      -----------------------------------------------------------      
     |                   =====================                   |     
     |                           x T B                           |     
     |                   =====================                   |     
     |                         S. Grimme                         |     
     |          Mulliken Center for Theoretical Chemistry        |     
     |                    University of Bonn                     |     
      -----------------------------------------------------------      

   * xtb version 6.6.1 (8d0f1dd) compiled by 'runner@Mac-1690902418499.local' on 2023-08-01

   xtb is free software: you can redistribute it and/or modify it under
   the terms of the GNU Lesser General Public License as published by
   the Free Software Foundation, either version 3 of the License, or
   (at your option) any later version.
   
   xtb is distributed in the hope that it will be useful,
   but WITHOUT ANY WARRANTY; without even the implied warranty of
   MERCHANTABILITY or FITNESS FOR A PARTICULAR PURPOSE.  See the
   GNU Lesser General Public License for more details.
   
   Cite this work as:
   * C. Bannwarth, E. Caldeweyher, S. Ehlert, A. Hansen, P. Pracht,
     J. Seibert, S. Spicher, S. Grimme, WIREs Comput. Mol. Sci., 2020, 11,
     e01493. DOI: 10.1002/wcms.1493
   
   for GFN2-xTB:
   * C. Bannwarth, S. Ehlert and S. Grimme., J. Chem. Theory Comput., 2019,
     15, 1652-1671. DOI: 10.1021/acs.jctc.8b01176
   for GFN1-xTB:
   * S. Grimme, C. Bannwarth, P. Shushkov, J. Chem. Theory Comput., 2017,
     13, 1989-2009. DOI: 10.1021/acs.jctc.7b00118
   for GFN0-xTB:
   * P. Pracht, E. Caldeweyher, S. Ehlert, S. Grimme, ChemRxiv, 2019, preprint.
     DOI: 10.26434/chemrxiv.8326202.v1
   for GFN-FF:
   * S. Spicher and S. Grimme, Angew. Chem. Int. Ed., 2020, 59, 15665-15673.
     DOI: 10.1002/anie.202004239
   
   for ALPB and GBSA implicit solvation:
   * S. Ehlert, M. Stahn, S. Spicher, S. Grimme, J. Chem. Theory Comput.,
     2021, 17, 4250-4261. DOI: 10.1021/acs.jctc.1c00471
   
   for DFT-D4:
   * E. Caldeweyher, C. Bannwarth and S. Grimme, J. Chem. Phys., 2017,
     147, 034112. DOI: 10.1063/1.4993215
   * E. Caldeweyher, S. Ehlert, A. Hansen, H. Neugebauer, S. Spicher,
     C. Bannwarth and S. Grimme, J. Chem. Phys., 2019, 150, 154122.
     DOI: 10.1063/1.5090222
   * E. Caldeweyher, J.-M. Mewes, S. Ehlert and S. Grimme, Phys. Chem. Chem. Phys.
     2020, 22, 8499-8512. DOI: 10.1039/D0CP00502A
   
   for sTDA-xTB:
   * S. Grimme and C. Bannwarth, J. Chem. Phys., 2016, 145, 054103.
     DOI: 10.1063/1.4959605
   
   in the mass-spec context:
   * V. Asgeirsson, C. Bauer and S. Grimme, Chem. Sci., 2017, 8, 4879.
     DOI: 10.1039/c7sc00601b
   * J. Koopman and S. Grimme, ACS Omega 2019, 4, 12, 15120-15133.
     DOI: 10.1021/acsomega.9b02011
   
   for metadynamics refer to:
   * S. Grimme, J. Chem. Theory Comput., 2019, 155, 2847-2862
     DOI: 10.1021/acs.jctc.9b00143
   
   for SPH calculations refer to:
   * S. Spicher and S. Grimme, J. Chem. Theory Comput., 2021, 17, 1701-1714
     DOI: 10.1021/acs.jctc.0c01306
   
   with help from (in alphabetical order)
   P. Atkinson, C. Bannwarth, F. Bohle, G. Brandenburg, E. Caldeweyher
   M. Checinski, S. Dohm, S. Ehlert, S. Ehrlich, I. Gerasimov, C. Hölzer
   A. Katbashev, J. Koopman, C. Lavigne, S. Lehtola, F. März, M. Müller,
   F. Musil, H. Neugebauer, J. Pisarek, C. Plett, P. Pracht, F. Pultar,
   J. Seibert, P. Shushkov, S. Spicher, M. Stahn, M. Steiner, T. Strunk,
   J. Stückrath, T. Rose, and J. Unsleber
   
 * started run on 2024/11/14 at 13:52:18.228     

           -------------------------------------------------
          |                Calculation Setup                |
           -------------------------------------------------

          program call               : xtb stacked_dimer_Verdazyl5.mol --opt --gfn2 --chrg 2 --uhf 0 --tight
          coordinate file            : stacked_dimer_Verdazyl5.mol
          omp threads                :                     8

   ID    Z sym.   atoms
    1    6 C      1-18, 29, 32, 37-50, 62-79, 90, 93, 98-111
    2    1 H      19-28, 51-61, 80-89, 112-122
    3    7 N      30, 31, 33, 34, 91, 92, 94, 95
    4    8 O      35, 96
    5   16 S      36, 97

molecular fragmentation (1/2 indicates fragments):
111111111111111111111111111111111111111111111111111111111111122222222222
22222222222222222222222222222222222222222222222222
# atoms in fragment 1/2:    61    61
 fragment masses (1/2) :      533.62      533.62
CMA distance (Bohr)    :   7.559
constraining FC (au)   :  0.0500
########################################################################
[WARNING] Please study the warnings concerning your input carefully
-1- prog_main_parseArguments: Unknown option '--tight' provided
########################################################################

           -------------------------------------------------
          |                 G F N 2 - x T B                 |
           -------------------------------------------------

        Reference                      10.1021/acs.jctc.8b01176
      * Hamiltonian:
        H0-scaling (s, p, d)           1.850000    2.230000    2.230000
        zeta-weighting                 0.500000
      * Dispersion:
        s8                             2.700000
        a1                             0.520000
        a2                             5.000000
        s9                             5.000000
      * Repulsion:
        kExp                           1.500000    1.000000
        rExp                           1.000000
      * Coulomb:
        alpha                          2.000000
        third order                    shell-resolved
        anisotropic                    true
        a3                             3.000000
        a5                             4.000000
        cn-shift                       1.200000
        cn-exp                         4.000000
        max-rad                        5.000000

q/qsh data taken from xtbrestart
CAMM data taken from xtbrestart

          ...................................................
          :                      SETUP                      :
          :.................................................:
          :  # basis functions                 374          :
          :  # atomic orbitals                 372          :
          :  # shells                          204          :
          :  # electrons                       376          :
          :  max. iterations                   250          :
          :  Hamiltonian                  GFN2-xTB          :
          :  restarted?                       true          :
          :  GBSA solvation                  false          :
          :  PC potential                    false          :
          :  electronic temp.          300.0000000     K    :
          :  accuracy                    1.0000000          :
          :  -> integral cutoff          0.2500000E+02      :
          :  -> integral neglect         0.1000000E-07      :
          :  -> SCF convergence          0.1000000E-05 Eh   :
          :  -> wf. convergence          0.1000000E-03 e    :
          :  Broyden damping             0.4000000          :
          ...................................................

 iter      E             dE          RMSdq      gap      omega  full diag
   1   -207.2604282 -0.207260E+03  0.181E+00    1.05       0.0  T
   2   -205.9751915  0.128524E+01  0.230E+00    0.13       1.0  T
   3   -207.4918204 -0.151663E+01  0.108E+00    1.05       1.0  T
   4   -207.6491046 -0.157284E+00  0.716E-01    0.64       1.0  T
   5   -206.6950577  0.954047E+00  0.152E+00    0.11       1.0  T
   6   -207.6351271 -0.940069E+00  0.578E-01    0.64       1.0  T
   7   -207.6549699 -0.198428E-01  0.437E-01    0.42       1.0  T
   8   -207.6633219 -0.835203E-02  0.372E-01    0.31       1.0  T
   9   -207.6780409 -0.147190E-01  0.315E-01    0.18       1.0  T
  10   -207.6908948 -0.128539E-01  0.262E-01    0.14       1.0  T
  11   -207.6916236 -0.728744E-03  0.261E-01    0.13       1.0  T
  12   -207.7098763 -0.182528E-01  0.177E-01    0.08       1.0  T
  13   -207.7019456  0.793073E-02  0.212E-01    0.11       1.0  T
  14   -207.7030390 -0.109344E-02  0.258E-01    0.05       1.0  T
  15   -207.7053317 -0.229263E-02  0.177E-01    0.12       1.0  T
  16   -207.7166533 -0.113216E-01  0.994E-02    0.08       1.0  T
  17   -207.7162538  0.399434E-03  0.851E-02    0.06       1.0  T
  18   -207.7177532 -0.149938E-02  0.523E-02    0.08       1.0  T
  19   -207.7186140 -0.860756E-03  0.296E-02    0.07       1.0  T
  20   -207.7181546  0.459344E-03  0.418E-02    0.08       1.0  T
  21   -207.7188634 -0.708777E-03  0.842E-03    0.07       1.1  T
  22   -207.7188892 -0.258251E-04  0.452E-03    0.07       2.0  T
  23   -207.7188794  0.981082E-05  0.594E-03    0.07       1.5  T
  24   -207.7188920 -0.126316E-04  0.246E-03    0.07       3.7  T
  25   -207.7188946 -0.256691E-05  0.663E-04    0.07      13.7  T
  26   -207.7188947 -0.144011E-06  0.232E-04    0.07      39.0  T
  27   -207.7188948 -0.163369E-07  0.165E-04    0.07      55.0  T

   *** convergence criteria satisfied after 27 iterations ***

         #    Occupation            Energy/Eh            Energy/eV
      -------------------------------------------------------------
         1        2.0000           -0.9287669             -25.2730
       ...           ...                  ...                  ...
       182        2.0000           -0.5660642             -15.4034
       183        2.0000           -0.5531189             -15.0511
       184        2.0000           -0.5504413             -14.9783
       185        1.9929           -0.5416574             -14.7392
       186        1.9912           -0.5414547             -14.7337
       187        1.6971           -0.5379369             -14.6380
       188        1.6618           -0.5378122             -14.6346 (HOMO)
       189        0.4396           -0.5350960             -14.5607 (LUMO)
       190        0.2173           -0.5343003             -14.5391
       191                         -0.4621753             -12.5764
       192                         -0.4609363             -12.5427
       193                         -0.4366967             -11.8831
       ...                                ...                  ...
       372                          0.5517298              15.0133
      -------------------------------------------------------------
                  HL-Gap            0.0027162 Eh            0.0739 eV
             Fermi-level           -0.5362996 Eh          -14.5935 eV

 SCC (total)                   0 d,  0 h,  0 min,  3.283 sec
 SCC setup                      ...        0 min,  0.001 sec (  0.017%)
 Dispersion                     ...        0 min,  0.002 sec (  0.054%)
 classical contributions        ...        0 min,  0.000 sec (  0.010%)
 integral evaluation            ...        0 min,  0.015 sec (  0.445%)
 iterations                     ...        0 min,  3.210 sec ( 97.791%)
 molecular gradient             ...        0 min,  0.053 sec (  1.618%)
 printout                       ...        0 min,  0.002 sec (  0.065%)

         :::::::::::::::::::::::::::::::::::::::::::::::::::::
         ::                     SUMMARY                     ::
         :::::::::::::::::::::::::::::::::::::::::::::::::::::
         :: total energy            -204.192295824302 Eh    ::
         :: gradient norm              0.085416418972 Eh/a0 ::
         :: HOMO-LUMO gap              0.073911513977 eV    ::
         ::.................................................::
         :: SCC energy              -207.718894757325 Eh    ::
         :: -> isotropic ES            0.242158826478 Eh    ::
         :: -> anisotropic ES         -0.020168049748 Eh    ::
         :: -> anisotropic XC          0.127722624055 Eh    ::
         :: -> dispersion             -0.220272024761 Eh    ::
         :: repulsion energy           3.511060764995 Eh    ::
         :: add. restraining           0.000000000000 Eh    ::
         :: total charge               2.000002079753 e     ::
         :::::::::::::::::::::::::::::::::::::::::::::::::::::

      ----------------------------------------------------------- 
     |                   =====================                   |
     |                        A N C O P T                        |
     |                   =====================                   |
     |               Approximate Normal Coordinate               |
     |                Rational Function Optimizer                |
      ----------------------------------------------------------- 

          ...................................................
          :                      SETUP                      :
          :.................................................:
          :   optimization level            normal          :
          :   max. optcycles                   366          :
          :   ANC micro-cycles                  20          :
          :   degrees of freedom               360          :
          :.................................................:
          :   RF solver                   davidson          :
          :   write xtbopt.log                true          :
          :   linear?                        false          :
          :   energy convergence         0.5000000E-05 Eh   :
          :   grad. convergence          0.1000000E-02 Eh/α :
          :   maxmium RF displ.          1.0000000          :
          :   Hlow (freq-cutoff)         0.1000000E-01      :
          :   Hmax (freq-cutoff)         5.0000000          :
          :   S6 in model hess.         20.0000000          :
          ...................................................

generating ANC from model Hessian ...
Using Lindh-Hessian (1995)
 Shifting diagonal of input Hessian by    1.0018925460044485E-002
 Lowest  eigenvalues of input Hessian
    0.010000    0.010007    0.000000    0.000000    0.000000    0.000000
    0.000000    0.000000    0.010091    0.010226    0.010295    0.010383
    0.010436    0.010557    0.010606    0.010723    0.010834    0.010853
 Highest eigenvalues
    2.153859    2.153868    2.298673    2.298682    2.526062    2.526072


........................................................................
.............................. CYCLE    1 ..............................
........................................................................

 iter      E             dE          RMSdq      gap      omega  full diag
   1   -207.7188948 -0.207719E+03  0.942E-05    0.07       0.0  T
   2   -207.7188939  0.904071E-06  0.161E-03    0.07       5.6  T
   3   -207.7188947 -0.877538E-06  0.271E-04    0.07      33.4  T
   4   -207.7188948 -0.275684E-07  0.699E-05    0.07     129.6  T
     SCC iter.                  ...        0 min,  0.291 sec
     gradient                   ...        0 min,  0.061 sec
 * total energy  :  -204.1922958 Eh     change       -0.4489522E-08 Eh
   gradient norm :     0.0854129 Eh/α   predicted     0.0000000E+00 (-100.00%)
   displ. norm   :     0.2557030 α      lambda       -0.5899569E-02
   maximum displ.:     0.1059667 α      in ANC's #10, #19, #40, ...

........................................................................
.............................. CYCLE    2 ..............................
........................................................................

 iter      E             dE          RMSdq      gap      omega  full diag
   1   -207.6882479 -0.207688E+03  0.253E-01    0.16       0.0  T
   2   -206.3942911  0.129396E+01  0.173E+00    0.16       1.0  T
   3   -207.5935491 -0.119926E+01  0.606E-01    0.00       1.0  T
   4   -207.6481478 -0.545987E-01  0.445E-01    0.01       1.0  T
   5   -207.7146561 -0.665083E-01  0.606E-02    0.07       1.0  T
   6   -207.7098974  0.475868E-02  0.134E-01    0.06       1.0  T
   7   -207.7129918 -0.309437E-02  0.850E-02    0.06       1.0  T
   8   -207.7144308 -0.143898E-02  0.492E-02    0.08       1.0  T
   9   -207.7141620  0.268743E-03  0.509E-02    0.09       1.0  T
  10   -207.7152136 -0.105151E-02  0.918E-03    0.08       1.0  T
  11   -207.7152290 -0.154583E-04  0.516E-03    0.08       1.8  T
  12   -207.7151795  0.494709E-04  0.115E-02    0.08       1.0  T
  13   -207.7152352 -0.557049E-04  0.153E-03    0.08       5.9  T
  14   -207.7152349  0.389187E-06  0.156E-03    0.08       5.8  T
  15   -207.7152356 -0.790013E-06  0.602E-04    0.08      15.0  T
  16   -207.7152358 -0.146936E-06  0.157E-04    0.08      57.6  T
     SCC iter.                  ...        0 min,  1.362 sec
     gradient                   ...        0 min,  0.053 sec
 * total energy  :  -204.1967652 Eh     change       -0.4469372E-02 Eh
   gradient norm :     0.0477546 Eh/α   predicted    -0.3147603E-02 ( -29.57%)
   displ. norm   :     0.3939191 α      lambda       -0.4256226E-02
   maximum displ.:     0.2139491 α      in ANC's #10, #19, #9, ...

........................................................................
.............................. CYCLE    3 ..............................
........................................................................

 iter      E             dE          RMSdq      gap      omega  full diag
   1   -207.6877678 -0.207688E+03  0.273E-01    0.18       0.0  T
   2   -206.3264507  0.136132E+01  0.177E+00    0.17       1.0  T
   3   -207.6521490 -0.132570E+01  0.481E-01    0.02       1.0  T
   4   -207.6965521 -0.444031E-01  0.278E-01    0.04       1.0  T
   5   -207.7152767 -0.187247E-01  0.879E-02    0.07       1.0  T
   6   -207.7092923  0.598447E-02  0.157E-01    0.05       1.0  T
   7   -207.7162949 -0.700267E-02  0.578E-02    0.07       1.0  T
   8   -207.7158620  0.432878E-03  0.594E-02    0.09       1.0  T
   9   -207.7169417 -0.107963E-02  0.214E-02    0.08       1.0  T
  10   -207.7170625 -0.120784E-03  0.592E-03    0.08       1.5  T
  11   -207.7170482  0.142405E-04  0.789E-03    0.08       1.1  T
  12   -207.7170711 -0.229157E-04  0.204E-03    0.08       4.4  T
  13   -207.7170721 -0.992149E-06  0.779E-04    0.08      11.6  T
  14   -207.7170723 -0.157397E-06  0.339E-04    0.08      26.7  T
     SCC iter.                  ...        0 min,  1.107 sec
     gradient                   ...        0 min,  0.057 sec
 * total energy  :  -204.1994821 Eh     change       -0.2716866E-02 Eh
   gradient norm :     0.0120548 Eh/α   predicted    -0.2459414E-02 (  -9.48%)
   displ. norm   :     0.4008383 α      lambda       -0.1506197E-02
   maximum displ.:     0.2386033 α      in ANC's #10, #19, #9, ...

........................................................................
.............................. CYCLE    4 ..............................
........................................................................

 iter      E             dE          RMSdq      gap      omega  full diag
   1   -207.7153877 -0.207715E+03  0.121E-01    0.10       0.0  T
   2   -206.5202948  0.119509E+01  0.161E+00    0.16       1.0  T
   3   -207.7177111 -0.119742E+01  0.823E-02    0.10       1.0  T
   4   -207.6963911  0.213200E-01  0.300E-01    0.04       1.0  T
   5   -207.7171723 -0.207812E-01  0.876E-02    0.06       1.0  T
   6   -207.7178525 -0.680181E-03  0.887E-02    0.06       1.0  T
   7   -207.7204033 -0.255074E-02  0.169E-02    0.08       1.0  T
   8   -207.7202863  0.116950E-03  0.210E-02    0.08       1.0  T
   9   -207.7204402 -0.153924E-03  0.853E-03    0.08       1.1  T
  10   -207.7204727 -0.324217E-04  0.175E-03    0.08       5.2  T
  11   -207.7204732 -0.489330E-06  0.788E-04    0.08      11.5  T
  12   -207.7204731  0.369812E-07  0.642E-04    0.08      14.1  T
     SCC iter.                  ...        0 min,  1.220 sec
     gradient                   ...        0 min,  0.051 sec
 * total energy  :  -204.2007822 Eh     change       -0.1300132E-02 Eh
   gradient norm :     0.0177227 Eh/α   predicted    -0.8741249E-03 ( -32.77%)
   displ. norm   :     0.6781866 α      lambda       -0.2282019E-02
   maximum displ.:     0.3829496 α      in ANC's #10, #19, #9, ...

........................................................................
.............................. CYCLE    5 ..............................
........................................................................

 iter      E             dE          RMSdq      gap      omega  full diag
   1   -207.7246010 -0.207725E+03  0.900E-02    0.08       0.0  T
   2   -207.6628862  0.617148E-01  0.478E-01    0.02       1.0  T
   3   -207.7057848 -0.428986E-01  0.213E-01    0.15       1.0  T
   4   -207.7088941 -0.310922E-02  0.222E-01    0.05       1.0  T
   5   -207.7192740 -0.103799E-01  0.122E-01    0.10       1.0  T
   6   -207.7212847 -0.201073E-02  0.964E-02    0.10       1.0  T
   7   -207.7240242 -0.273946E-02  0.500E-02    0.09       1.0  T
   8   -207.7249763 -0.952141E-03  0.140E-02    0.08       1.0  T
   9   -207.7250398 -0.634751E-04  0.354E-03    0.08       2.6  T
  10   -207.7250428 -0.295574E-05  0.236E-03    0.08       3.8  T
  11   -207.7250378  0.496554E-05  0.370E-03    0.08       2.4  T
  12   -207.7250434 -0.558054E-05  0.128E-03    0.08       7.1  T
  13   -207.7250437 -0.290800E-06  0.960E-04    0.08       9.4  T
  14   -207.7250439 -0.255702E-06  0.562E-04    0.08      16.1  T
     SCC iter.                  ...        0 min,  0.979 sec
     gradient                   ...        0 min,  0.051 sec
 * total energy  :  -204.2028146 Eh     change       -0.2032445E-02 Eh
   gradient norm :     0.0228314 Eh/α   predicted    -0.1665810E-02 ( -18.04%)
   displ. norm   :     0.7720153 α      lambda       -0.2432279E-02
   maximum displ.:     0.4383887 α      in ANC's #10, #19, #9, ...

........................................................................
.............................. CYCLE    6 ..............................
........................................................................

 iter      E             dE          RMSdq      gap      omega  full diag
   1   -207.7217182 -0.207722E+03  0.152E-01    0.05       0.0  T
   2   -207.6649578  0.567603E-01  0.423E-01    0.47       1.0  T
   3   -207.7125513 -0.475935E-01  0.240E-01    0.11       1.0  T
   4   -207.7123471  0.204215E-03  0.195E-01    0.14       1.0  T
   5   -207.6854906  0.268565E-01  0.307E-01    0.03       1.0  T
   6   -207.7251827 -0.396921E-01  0.113E-01    0.07       1.0  T
   7   -207.7240513  0.113147E-02  0.102E-01    0.10       1.0  T
   8   -207.7250740 -0.102270E-02  0.913E-02    0.10       1.0  T
   9   -207.7280363 -0.296234E-02  0.384E-02    0.09       1.0  T
  10   -207.7285066 -0.470239E-03  0.213E-02    0.08       1.0  T
  11   -207.7286902 -0.183632E-03  0.364E-03    0.08       2.5  T
  12   -207.7286908 -0.635506E-06  0.306E-03    0.08       3.0  T
  13   -207.7286945 -0.368421E-05  0.571E-04    0.08      15.9  T
  14   -207.7286946 -0.546983E-07  0.323E-04    0.08      28.1  T
  15   -207.7286944  0.168406E-06  0.755E-04    0.08      12.0  T
     SCC iter.                  ...        0 min,  0.972 sec
     gradient                   ...        0 min,  0.050 sec
 * total energy  :  -204.2050100 Eh     change       -0.2195406E-02 Eh
   gradient norm :     0.0221112 Eh/α   predicted    -0.1940977E-02 ( -11.59%)
   displ. norm   :     0.7718125 α      lambda       -0.2425627E-02
   maximum displ.:     0.4520980 α      in ANC's #10, #19, #14, ...

........................................................................
.............................. CYCLE    7 ..............................
........................................................................

 iter      E             dE          RMSdq      gap      omega  full diag
   1   -207.7180976 -0.207718E+03  0.193E-01    0.04       0.0  T
   2   -207.6477222  0.703754E-01  0.496E-01    0.70       1.0  T
   3   -207.6940078 -0.462856E-01  0.307E-01    0.24       1.0  T
   4   -207.7243630 -0.303552E-01  0.157E-01    0.10       1.0  T
   5   -207.7260127 -0.164977E-02  0.123E-01    0.10       1.0  T
   6   -207.5319714  0.194041E+00  0.688E-01    0.01       1.0  T
   7   -207.7245434 -0.192572E+00  0.153E-01    0.05       1.0  T
   8   -207.7211067  0.343666E-02  0.164E-01    0.11       1.0  T
   9   -207.7273375 -0.623074E-02  0.109E-01    0.10       1.0  T
  10   -207.7295067 -0.216928E-02  0.815E-02    0.09       1.0  T
  11   -207.7308600 -0.135327E-02  0.575E-02    0.09       1.0  T
  12   -207.7319431 -0.108311E-02  0.274E-02    0.08       1.0  T
  13   -207.7321559 -0.212745E-03  0.153E-02    0.08       1.0  T
  14   -207.7322480 -0.920930E-04  0.367E-03    0.07       2.5  T
  15   -207.7322535 -0.558748E-05  0.672E-04    0.07      13.5  T
  16   -207.7322537 -0.136734E-06  0.311E-04    0.07      29.1  T
  17   -207.7322537 -0.252101E-07  0.842E-05    0.07     107.6  T
     SCC iter.                  ...        0 min,  1.905 sec
     gradient                   ...        0 min,  0.052 sec
 * total energy  :  -204.2071774 Eh     change       -0.2167367E-02 Eh
   gradient norm :     0.0172676 Eh/α   predicted    -0.1935295E-02 ( -10.71%)
   displ. norm   :     0.7499267 α      lambda       -0.2246695E-02
   maximum displ.:     0.4605807 α      in ANC's #10, #9, #14, ...

........................................................................
.............................. CYCLE    8 ..............................
........................................................................

 iter      E             dE          RMSdq      gap      omega  full diag
   1   -207.7238855 -0.207724E+03  0.171E-01    0.04       0.0  T
   2   -207.6547242  0.691612E-01  0.471E-01    0.64       1.0  T
   3   -207.6987983 -0.440741E-01  0.292E-01    0.21       1.0  T
   4   -207.7330341 -0.342358E-01  0.756E-02    0.08       1.0  T
   5   -207.7239862  0.904788E-02  0.206E-01    0.04       1.0  T
   6   -207.6819344  0.420518E-01  0.334E-01    0.01       1.0  T
   7   -207.7329401 -0.510057E-01  0.849E-02    0.06       1.0  T
   8   -207.7231337  0.980638E-02  0.161E-01    0.11       1.0  T
   9   -207.7326479 -0.951422E-02  0.674E-02    0.08       1.0  T
  10   -207.7338693 -0.122132E-02  0.432E-02    0.08       1.0  T
  11   -207.7344264 -0.557124E-03  0.257E-02    0.07       1.0  T
  12   -207.7347209 -0.294552E-03  0.525E-03    0.07       1.7  T
  13   -207.7347333 -0.123733E-04  0.894E-04    0.07      10.1  T
  14   -207.7347333  0.411753E-07  0.876E-04    0.07      10.3  T
  15   -207.7347336 -0.288427E-06  0.309E-04    0.07      29.3  T
     SCC iter.                  ...        0 min,  0.925 sec
     gradient                   ...        0 min,  0.054 sec
 * total energy  :  -204.2090931 Eh     change       -0.1915635E-02 Eh
   gradient norm :     0.0117129 Eh/α   predicted    -0.1755131E-02 (  -8.38%)
   displ. norm   :     0.6953678 α      lambda       -0.1675962E-02
   maximum displ.:     0.4503518 α      in ANC's #10, #9, #14, ...

........................................................................
.............................. CYCLE    9 ..............................
........................................................................

 iter      E             dE          RMSdq      gap      omega  full diag
   1   -207.7317219 -0.207732E+03  0.117E-01    0.04       0.0  T
   2   -207.6722035  0.595183E-01  0.403E-01    0.43       1.0  T
   3   -207.7216943 -0.494908E-01  0.197E-01    0.11       1.0  T
   4   -207.7339312 -0.122368E-01  0.873E-02    0.07       1.0  T
   5   -207.6831256  0.508055E-01  0.333E-01    0.01       1.0  T
   6   -207.7343417 -0.512160E-01  0.653E-02    0.07       1.0  T
   7   -207.7351927 -0.851030E-03  0.518E-02    0.07       1.0  T
   8   -207.7355198 -0.327074E-03  0.370E-02    0.07       1.0  T
   9   -207.7357341 -0.214340E-03  0.288E-02    0.07       1.0  T
  10   -207.7360056 -0.271478E-03  0.159E-02    0.07       1.0  T
  11   -207.7361122 -0.106569E-03  0.523E-03    0.07       1.7  T
  12   -207.7361230 -0.107854E-04  0.191E-03    0.06       4.7  T
  13   -207.7361243 -0.130939E-05  0.755E-04    0.06      12.0  T
  14   -207.7361240  0.222290E-06  0.108E-03    0.06       8.4  T
  15   -207.7361244 -0.387973E-06  0.457E-04    0.06      19.8  T
  16   -207.7361245 -0.673435E-07  0.228E-04    0.06      39.7  T
     SCC iter.                  ...        0 min,  1.091 sec
     gradient                   ...        0 min,  0.052 sec
 * total energy  :  -204.2104555 Eh     change       -0.1362406E-02 Eh
   gradient norm :     0.0102525 Eh/α   predicted    -0.1243175E-02 (  -8.75%)
   displ. norm   :     0.5792784 α      lambda       -0.1079866E-02
   maximum displ.:     0.3894957 α      in ANC's #10, #9, #14, ...

........................................................................
.............................. CYCLE   10 ..............................
........................................................................

 iter      E             dE          RMSdq      gap      omega  full diag
   1   -207.7356434 -0.207736E+03  0.719E-02    0.05       0.0  T
   2   -207.6890331  0.466103E-01  0.337E-01    0.23       1.0  T
   3   -207.7269555 -0.379224E-01  0.198E-01    0.05       1.0  T
   4   -207.7353512 -0.839572E-02  0.600E-02    0.07       1.0  T
   5   -207.7196958  0.156555E-01  0.208E-01    0.03       1.0  T
   6   -207.7357805 -0.160848E-01  0.500E-02    0.07       1.0  T
   7   -207.7366023 -0.821743E-03  0.249E-02    0.07       1.0  T
   8   -207.7367681 -0.165810E-03  0.147E-02    0.06       1.0  T
   9   -207.7368041 -0.359924E-04  0.939E-03    0.06       1.0  T
  10   -207.7368229 -0.187652E-04  0.598E-03    0.06       1.5  T
  11   -207.7368362 -0.133439E-04  0.716E-04    0.06      12.6  T
  12   -207.7368364 -0.167924E-06  0.268E-04    0.06      33.7  T
  13   -207.7368363  0.663250E-07  0.422E-04    0.06      21.4  T
     SCC iter.                  ...        0 min,  1.225 sec
     gradient                   ...        0 min,  0.050 sec
 * total energy  :  -204.2113509 Eh     change       -0.8954152E-03 Eh
   gradient norm :     0.0089958 Eh/α   predicted    -0.7211186E-03 ( -19.47%)
   displ. norm   :     0.5038292 α      lambda       -0.8922415E-03
   maximum displ.:     0.3382537 α      in ANC's #10, #5, #1, ...

........................................................................
.............................. CYCLE   11 ..............................
........................................................................

 iter      E             dE          RMSdq      gap      omega  full diag
   1   -207.7392658 -0.207739E+03  0.546E-02    0.05       0.0  T
   2   -207.7048144  0.344514E-01  0.279E-01    0.17       1.0  T
   3   -207.7365367 -0.317223E-01  0.960E-02    0.04       1.0  T
   4   -207.7292114  0.732533E-02  0.199E-01    0.04       1.0  T
   5   -207.7354497 -0.623829E-02  0.960E-02    0.08       1.0  T
   6   -207.7379910 -0.254137E-02  0.600E-02    0.07       1.0  T
   7   -207.7395172 -0.152615E-02  0.143E-02    0.06       1.0  T
   8   -207.7395954 -0.782476E-04  0.546E-03    0.06       1.7  T
   9   -207.7395948  0.675378E-06  0.472E-03    0.06       1.9  T
  10   -207.7396048 -0.100736E-04  0.105E-03    0.06       8.6  T
  11   -207.7396050 -0.161062E-06  0.709E-04    0.06      12.8  T
  12   -207.7396052 -0.184385E-06  0.140E-04    0.06      64.7  T
     SCC iter.                  ...        0 min,  0.971 sec
     gradient                   ...        0 min,  0.051 sec
 * total energy  :  -204.2121057 Eh     change       -0.7547836E-03 Eh
   gradient norm :     0.0115484 Eh/α   predicted    -0.5593659E-03 ( -25.89%)
   displ. norm   :     0.5606319 α      lambda       -0.9911293E-03
   maximum displ.:     0.3643152 α      in ANC's #10, #5, #1, ...

........................................................................
.............................. CYCLE   12 ..............................
........................................................................

 iter      E             dE          RMSdq      gap      omega  full diag
   1   -207.7371759 -0.207737E+03  0.676E-02    0.05       0.0  T
   2   -207.7211876  0.159882E-01  0.275E-01    0.07       1.0  T
   3   -207.7375477 -0.163601E-01  0.319E-02    0.06       1.0  T
   4   -207.7289380  0.860975E-02  0.137E-01    0.09       1.0  T
   5   -207.7272019  0.173603E-02  0.149E-01    0.03       1.0  T
   6   -207.7368554 -0.965349E-02  0.474E-02    0.05       1.0  T
   7   -207.7374796 -0.624206E-03  0.201E-02    0.06       1.0  T
   8   -207.7374882 -0.858908E-05  0.147E-02    0.06       1.0  T
   9   -207.7375676 -0.793869E-04  0.559E-03    0.06       1.6  T
  10   -207.7375785 -0.109281E-04  0.156E-03    0.06       5.8  T
  11   -207.7375791 -0.587247E-06  0.912E-04    0.06       9.9  T
  12   -207.7375793 -0.129227E-06  0.690E-04    0.06      13.1  T
     SCC iter.                  ...        0 min,  1.089 sec
     gradient                   ...        0 min,  0.051 sec
 * total energy  :  -204.2128937 Eh     change       -0.7880110E-03 Eh
   gradient norm :     0.0093993 Eh/α   predicted    -0.6513291E-03 ( -17.35%)
   displ. norm   :     0.5976698 α      lambda       -0.9377088E-03
   maximum displ.:     0.3673487 α      in ANC's #10, #5, #1, ...

........................................................................
.............................. CYCLE   13 ..............................
........................................................................

 iter      E             dE          RMSdq      gap      omega  full diag
   1   -207.7383519 -0.207738E+03  0.816E-02    0.05       0.0  T
   2   -207.7022313  0.361206E-01  0.287E-01    0.17       1.0  T
   3   -207.7111524 -0.892117E-02  0.302E-01    0.01       1.0  T
   4   -207.7331304 -0.219780E-01  0.144E-01    0.04       1.0  T
   5   -207.7276616  0.546885E-02  0.155E-01    0.09       1.0  T
   6   -207.7352298 -0.756821E-02  0.869E-02    0.07       1.0  T
   7   -207.7384509 -0.322113E-02  0.320E-02    0.06       1.0  T
   8   -207.7388748 -0.423868E-03  0.651E-03    0.05       1.4  T
   9   -207.7388537  0.210732E-04  0.815E-03    0.06       1.1  T
  10   -207.7388853 -0.316050E-04  0.884E-04    0.05      10.2  T
  11   -207.7388835  0.185414E-05  0.204E-03    0.05       4.4  T
  12   -207.7388852 -0.172967E-05  0.735E-04    0.05      12.3  T
  13   -207.7388854 -0.171796E-06  0.384E-04    0.05      23.6  T
  14   -207.7388854 -0.586045E-07  0.723E-05    0.05     125.3  T
     SCC iter.                  ...        0 min,  1.127 sec
     gradient                   ...        0 min,  0.050 sec
 * total energy  :  -204.2136332 Eh     change       -0.7394942E-03 Eh
   gradient norm :     0.0086019 Eh/α   predicted    -0.6363379E-03 ( -13.95%)
   displ. norm   :     0.5746841 α      lambda       -0.6890871E-03
   maximum displ.:     0.3456968 α      in ANC's #10, #5, #1, ...

........................................................................
.............................. CYCLE   14 ..............................
........................................................................

 iter      E             dE          RMSdq      gap      omega  full diag
   1   -207.7375629 -0.207738E+03  0.764E-02    0.05       0.0  T
   2   -207.6980492  0.395136E-01  0.302E-01    0.19       1.0  T
   3   -207.7350488 -0.369996E-01  0.103E-01    0.04       1.0  T
   4   -207.7123927  0.226562E-01  0.315E-01    0.02       1.0  T
   5   -207.7305381 -0.181454E-01  0.128E-01    0.08       1.0  T
   6   -207.7366905 -0.615239E-02  0.540E-02    0.06       1.0  T
   7   -207.7379335 -0.124307E-02  0.194E-02    0.05       1.0  T
   8   -207.7380428 -0.109250E-03  0.584E-03    0.05       1.6  T
   9   -207.7380351  0.765638E-05  0.612E-03    0.05       1.5  T
  10   -207.7380515 -0.163523E-04  0.172E-03    0.05       5.3  T
  11   -207.7380507  0.819040E-06  0.199E-03    0.05       4.5  T
  12   -207.7380516 -0.901737E-06  0.144E-03    0.05       6.3  T
  13   -207.7380525 -0.953645E-06  0.274E-04    0.05      33.0  T
  14   -207.7380525 -0.884813E-08  0.181E-04    0.05      50.1  T
     SCC iter.                  ...        0 min,  0.988 sec
     gradient                   ...        0 min,  0.049 sec
 * total energy  :  -204.2141907 Eh     change       -0.5575503E-03 Eh
   gradient norm :     0.0070892 Eh/α   predicted    -0.4583337E-03 ( -17.80%)
   displ. norm   :     0.5590018 α      lambda       -0.5634790E-03
   maximum displ.:     0.3135745 α      in ANC's #10, #5, #1, ...

........................................................................
.............................. CYCLE   15 ..............................
........................................................................

 iter      E             dE          RMSdq      gap      omega  full diag
   1   -207.7374964 -0.207737E+03  0.751E-02    0.05       0.0  T
   2   -207.7036640  0.338324E-01  0.277E-01    0.16       1.0  T
   3   -207.7273663 -0.237022E-01  0.179E-01    0.03       1.0  T
   4   -207.7189788  0.838745E-02  0.263E-01    0.03       1.0  T
   5   -207.7291101 -0.101313E-01  0.138E-01    0.08       1.0  T
   6   -207.7343890 -0.527890E-02  0.844E-02    0.07       1.0  T
   7   -207.7372370 -0.284802E-02  0.367E-02    0.06       1.0  T
   8   -207.7377703 -0.533258E-03  0.133E-02    0.05       1.0  T
   9   -207.7378070 -0.367059E-04  0.926E-03    0.05       1.0  T
  10   -207.7378458 -0.388872E-04  0.210E-03    0.05       4.3  T
  11   -207.7378474 -0.152048E-05  0.551E-04    0.05      16.4  T
  12   -207.7378467  0.698288E-06  0.126E-03    0.05       7.2  T
  13   -207.7378474 -0.697283E-06  0.358E-04    0.05      25.3  T
  14   -207.7378474 -0.548415E-07  0.881E-05    0.05     102.8  T
     SCC iter.                  ...        0 min,  0.973 sec
     gradient                   ...        0 min,  0.054 sec
 * total energy  :  -204.2146394 Eh     change       -0.4487325E-03 Eh
   gradient norm :     0.0057423 Eh/α   predicted    -0.3697820E-03 ( -17.59%)
   displ. norm   :     0.5040771 α      lambda       -0.4519019E-03
   maximum displ.:     0.2461014 α      in ANC's #5, #10, #1, ...

........................................................................
.............................. CYCLE   16 ..............................
........................................................................

 iter      E             dE          RMSdq      gap      omega  full diag
   1   -207.7382739 -0.207738E+03  0.649E-02    0.05       0.0  T
   2   -207.7329756  0.529831E-02  0.114E-01    0.08       1.0  T
   3   -207.6663572  0.666184E-01  0.395E-01    0.02       1.0  T
   4   -207.7335410 -0.671838E-01  0.150E-01    0.04       1.0  T
   5   -207.7340196 -0.478631E-03  0.109E-01    0.07       1.0  T
   6   -207.7365794 -0.255981E-02  0.623E-02    0.06       1.0  T
   7   -207.7374805 -0.901113E-03  0.414E-02    0.06       1.0  T
   8   -207.7381796 -0.699057E-03  0.173E-02    0.05       1.0  T
   9   -207.7382801 -0.100564E-03  0.949E-03    0.05       1.0  T
  10   -207.7382979 -0.177536E-04  0.704E-03    0.05       1.3  T
  11   -207.7383190 -0.211401E-04  0.267E-03    0.05       3.4  T
  12   -207.7383218 -0.276542E-05  0.290E-04    0.05      31.2  T
  13   -207.7383218 -0.973677E-08  0.182E-04    0.05      49.7  T
  14   -207.7383218 -0.281864E-08  0.122E-04    0.05      74.4  T
     SCC iter.                  ...        0 min,  1.067 sec
     gradient                   ...        0 min,  0.055 sec
 * total energy  :  -204.2150042 Eh     change       -0.3647408E-03 Eh
   gradient norm :     0.0061450 Eh/α   predicted    -0.2833639E-03 ( -22.31%)
   displ. norm   :     0.4778547 α      lambda       -0.4140611E-03
   maximum displ.:     0.2441314 α      in ANC's #5, #1, #10, ...

........................................................................
.............................. CYCLE   17 ..............................
........................................................................

 iter      E             dE          RMSdq      gap      omega  full diag
   1   -207.7392427 -0.207739E+03  0.620E-02    0.05       0.0  T
   2   -207.6848677  0.543750E-01  0.337E-01    0.01       1.0  T
   3   -207.7338642 -0.489965E-01  0.115E-01    0.08       1.0  T
   4   -207.7194919  0.143723E-01  0.276E-01    0.02       1.0  T
   5   -207.7380353 -0.185434E-01  0.612E-02    0.06       1.0  T
   6   -207.7383325 -0.297198E-03  0.474E-02    0.06       1.0  T
   7   -207.7389827 -0.650222E-03  0.286E-02    0.06       1.0  T
   8   -207.7393096 -0.326881E-03  0.120E-02    0.05       1.0  T
   9   -207.7393529 -0.433273E-04  0.644E-03    0.05       1.4  T
  10   -207.7393612 -0.832771E-05  0.349E-03    0.05       2.6  T
  11   -207.7393656 -0.438795E-05  0.133E-03    0.05       6.8  T
  12   -207.7393664 -0.745453E-06  0.270E-04    0.05      33.5  T
  13   -207.7393664 -0.168490E-08  0.252E-04    0.05      35.9  T
     SCC iter.                  ...        0 min,  0.955 sec
     gradient                   ...        0 min,  0.056 sec
 * total energy  :  -204.2153427 Eh     change       -0.3385439E-03 Eh
   gradient norm :     0.0068725 Eh/α   predicted    -0.2543055E-03 ( -24.88%)
   displ. norm   :     0.4799276 α      lambda       -0.3998858E-03
   maximum displ.:     0.2521974 α      in ANC's #5, #1, #4, ...

........................................................................
.............................. CYCLE   18 ..............................
........................................................................

 iter      E             dE          RMSdq      gap      omega  full diag
   1   -207.7399590 -0.207740E+03  0.658E-02    0.06       0.0  T
   2   -207.4021003  0.337859E+00  0.839E-01    0.03       1.0  T
   3   -207.7361137 -0.334013E+00  0.106E-01    0.07       1.0  T
   4   -207.7235416  0.125721E-01  0.249E-01    0.02       1.0  T
   5   -207.7399908 -0.164492E-01  0.381E-02    0.06       1.0  T
   6   -207.7402431 -0.252291E-03  0.247E-02    0.06       1.0  T
   7   -207.7403478 -0.104703E-03  0.172E-02    0.05       1.0  T
   8   -207.7404606 -0.112812E-03  0.656E-03    0.05       1.4  T
   9   -207.7404648 -0.420048E-05  0.532E-03    0.05       1.7  T
  10   -207.7404699 -0.509625E-05  0.148E-03    0.05       6.1  T
  11   -207.7404698  0.914556E-07  0.125E-03    0.05       7.2  T
  12   -207.7404701 -0.274580E-06  0.726E-04    0.05      12.5  T
  13   -207.7404702 -0.136896E-06  0.310E-04    0.05      29.2  T
     SCC iter.                  ...        0 min,  0.917 sec
     gradient                   ...        0 min,  0.055 sec
 * total energy  :  -204.2156703 Eh     change       -0.3276110E-03 Eh
   gradient norm :     0.0062200 Eh/α   predicted    -0.2459970E-03 ( -24.91%)
   displ. norm   :     0.4815098 α      lambda       -0.3709850E-03
   maximum displ.:     0.2590518 α      in ANC's #5, #1, #4, ...

........................................................................
.............................. CYCLE   19 ..............................
........................................................................

 iter      E             dE          RMSdq      gap      omega  full diag
   1   -207.7406926 -0.207741E+03  0.663E-02    0.06       0.0  T
   2   -207.2377663  0.502926E+00  0.102E+00    0.01       1.0  T
   3   -207.7355662 -0.497800E+00  0.130E-01    0.08       1.0  T
   4   -207.7365298 -0.963572E-03  0.143E-01    0.04       1.0  T
   5   -207.7407508 -0.422108E-02  0.496E-02    0.06       1.0  T
   6   -207.7413794 -0.628548E-03  0.230E-02    0.05       1.0  T
   7   -207.7414602 -0.808386E-04  0.954E-03    0.05       1.0  T
   8   -207.7414852 -0.249582E-04  0.679E-03    0.05       1.3  T
   9   -207.7414928 -0.764421E-05  0.388E-03    0.05       2.3  T
  10   -207.7414943 -0.146313E-05  0.173E-03    0.05       5.2  T
  11   -207.7414952 -0.900816E-06  0.104E-03    0.05       8.7  T
  12   -207.7414955 -0.331068E-06  0.241E-04    0.05      37.6  T
  13   -207.7414955  0.565233E-07  0.436E-04    0.05      20.8  T
     SCC iter.                  ...        0 min,  1.959 sec
     gradient                   ...        0 min,  0.053 sec
 * total energy  :  -204.2159768 Eh     change       -0.3065031E-03 Eh
   gradient norm :     0.0046830 Eh/α   predicted    -0.2285021E-03 ( -25.45%)
   displ. norm   :     0.4778086 α      lambda       -0.3456278E-03
   maximum displ.:     0.2622359 α      in ANC's #5, #1, #4, ...

........................................................................
.............................. CYCLE   20 ..............................
........................................................................

 iter      E             dE          RMSdq      gap      omega  full diag
   1   -207.7416932 -0.207742E+03  0.630E-02    0.06       0.0  T
   2   -207.2191297  0.522563E+00  0.104E+00    0.01       1.0  T
   3   -207.7358231 -0.516693E+00  0.141E-01    0.08       1.0  T
   4   -207.7401003 -0.427717E-02  0.103E-01    0.04       1.0  T
   5   -207.7417699 -0.166962E-02  0.508E-02    0.06       1.0  T
   6   -207.7424741 -0.704249E-03  0.206E-02    0.06       1.0  T
   7   -207.7425397 -0.655724E-04  0.907E-03    0.06       1.0  T
   8   -207.7425538 -0.140512E-04  0.598E-03    0.05       1.5  T
   9   -207.7425600 -0.623252E-05  0.314E-03    0.05       2.9  T
  10   -207.7425596  0.383219E-06  0.223E-03    0.06       4.1  T
  11   -207.7425613 -0.171758E-05  0.989E-04    0.06       9.2  T
  12   -207.7425617 -0.402317E-06  0.481E-04    0.06      18.8  T
  13   -207.7425618 -0.190004E-07  0.319E-04    0.06      28.4  T
     SCC iter.                  ...        0 min,  1.179 sec
     gradient                   ...        0 min,  0.050 sec
 * total energy  :  -204.2162697 Eh     change       -0.2928283E-03 Eh
   gradient norm :     0.0049593 Eh/α   predicted    -0.2122687E-03 ( -27.51%)
   displ. norm   :     0.4959111 α      lambda       -0.3553099E-03
   maximum displ.:     0.2756445 α      in ANC's #5, #1, #4, ...
 * RMSD in coord.:     0.7857797 α      energy gain  -0.2397385E-01 Eh

generating ANC from model Hessian ...
Using Lindh-Hessian (1995)
 Shifting diagonal of input Hessian by    1.0079548674900513E-002
 Lowest  eigenvalues of input Hessian
    0.010000    0.010034    0.000000    0.000000    0.000000    0.000000
    0.000000    0.000000    0.010229    0.010294    0.010317    0.010475
    0.010539    0.010872    0.010974    0.011108    0.011162    0.011243
 Highest eigenvalues
    2.141490    2.155316    2.301138    2.307021    2.548067    2.569450


........................................................................
.............................. CYCLE   21 ..............................
........................................................................

 iter      E             dE          RMSdq      gap      omega  full diag
   1   -207.7425669 -0.207743E+03  0.604E-02    0.06       0.0  T
   2   -207.2036339  0.538933E+00  0.105E+00    0.01       1.0  T
   3   -207.7374134 -0.533779E+00  0.134E-01    0.08       1.0  T
   4   -207.7411008 -0.368740E-02  0.100E-01    0.05       1.0  T
   5   -207.7424731 -0.137231E-02  0.521E-02    0.07       1.0  T
   6   -207.7432826 -0.809517E-03  0.222E-02    0.06       1.0  T
   7   -207.7433650 -0.823833E-04  0.108E-02    0.06       1.0  T
   8   -207.7433877 -0.226219E-04  0.633E-03    0.06       1.4  T
   9   -207.7433966 -0.894300E-05  0.335E-03    0.06       2.7  T
  10   -207.7433969 -0.322953E-06  0.219E-03    0.06       4.1  T
  11   -207.7433976 -0.715552E-06  0.152E-03    0.06       6.0  T
  12   -207.7433986 -0.100175E-05  0.403E-04    0.06      22.4  T
  13   -207.7433986  0.102810E-07  0.330E-04    0.06      27.4  T
  14   -207.7433987 -0.333627E-07  0.137E-04    0.06      66.3  T
     SCC iter.                  ...        0 min,  1.149 sec
     gradient                   ...        0 min,  0.060 sec
 * total energy  :  -204.2165804 Eh     change       -0.3106797E-03 Eh
   gradient norm :     0.0069000 Eh/α   predicted     0.0000000E+00 (-100.00%)
   displ. norm   :     0.0934691 α      lambda       -0.1635272E-03
   maximum displ.:     0.0462116 α      in ANC's #4, #1, #3, ...

........................................................................
.............................. CYCLE   22 ..............................
........................................................................

 iter      E             dE          RMSdq      gap      omega  full diag
   1   -207.7432107 -0.207743E+03  0.215E-02    0.06       0.0  T
   2   -207.7396496  0.356108E-02  0.128E-01    0.05       1.0  T
   3   -207.7426821 -0.303244E-02  0.363E-02    0.07       1.0  T
   4   -207.7424965  0.185604E-03  0.413E-02    0.05       1.0  T
   5   -207.7431947 -0.698197E-03  0.131E-02    0.06       1.0  T
   6   -207.7432395 -0.448714E-04  0.827E-03    0.06       1.1  T
   7   -207.7432633 -0.237374E-04  0.346E-03    0.06       2.6  T
   8   -207.7432657 -0.241679E-05  0.112E-03    0.06       8.1  T
   9   -207.7432660 -0.351467E-06  0.489E-04    0.06      18.5  T
  10   -207.7432661 -0.821829E-07  0.213E-04    0.06      42.4  T
     SCC iter.                  ...        0 min,  0.671 sec
     gradient                   ...        0 min,  0.051 sec
 * total energy  :  -204.2167217 Eh     change       -0.1413888E-03 Eh
   gradient norm :     0.0032622 Eh/α   predicted    -0.8247904E-04 ( -41.67%)
   displ. norm   :     0.3236532 α      lambda       -0.3965668E-03
   maximum displ.:     0.1618826 α      in ANC's #4, #3, #1, ...

........................................................................
.............................. CYCLE   23 ..............................
........................................................................

 iter      E             dE          RMSdq      gap      omega  full diag
   1   -207.7419624 -0.207742E+03  0.661E-02    0.07       0.0  T
   2   -207.6598910  0.820715E-01  0.532E-01    0.02       1.0  T
   3   -207.7181614 -0.582705E-01  0.227E-01    0.13       1.0  T
   4   -207.7421499 -0.239885E-01  0.412E-02    0.07       1.0  T
   5   -207.7417314  0.418498E-03  0.452E-02    0.06       1.0  T
   6   -207.7423058 -0.574351E-03  0.171E-02    0.06       1.0  T
   7   -207.7423726 -0.668232E-04  0.117E-02    0.06       1.0  T
   8   -207.7423994 -0.267691E-04  0.747E-03    0.06       1.2  T
   9   -207.7424244 -0.250189E-04  0.181E-03    0.06       5.0  T
  10   -207.7424250 -0.639428E-06  0.827E-04    0.06      11.0  T
  11   -207.7424247  0.375922E-06  0.113E-03    0.06       8.0  T
  12   -207.7424252 -0.540649E-06  0.147E-04    0.06      61.6  T
     SCC iter.                  ...        0 min,  0.690 sec
     gradient                   ...        0 min,  0.051 sec
 * total energy  :  -204.2169926 Eh     change       -0.2708721E-03 Eh
   gradient norm :     0.0062610 Eh/α   predicted    -0.2190592E-03 ( -19.13%)
   displ. norm   :     0.2697364 α      lambda       -0.1876101E-03
   maximum displ.:     0.1453967 α      in ANC's #4, #3, #1, ...

........................................................................
.............................. CYCLE   24 ..............................
........................................................................

 iter      E             dE          RMSdq      gap      omega  full diag
   1   -207.7418891 -0.207742E+03  0.424E-02    0.07       0.0  T
   2   -207.6225657  0.119323E+00  0.570E-01    0.03       1.0  T
   3   -207.7389554 -0.116390E+00  0.819E-02    0.08       1.0  T
   4   -207.7329064  0.604900E-02  0.161E-01    0.05       1.0  T
   5   -207.7417028 -0.879640E-02  0.354E-02    0.07       1.0  T
   6   -207.7419135 -0.210743E-03  0.235E-02    0.07       1.0  T
   7   -207.7420464 -0.132905E-03  0.102E-02    0.07       1.0  T
   8   -207.7420858 -0.394053E-04  0.340E-03    0.07       2.7  T
   9   -207.7420900 -0.417683E-05  0.103E-03    0.07       8.8  T
  10   -207.7420900  0.196358E-07  0.766E-04    0.07      11.8  T
  11   -207.7420900  0.686640E-09  0.677E-04    0.07      13.4  T
     SCC iter.                  ...        0 min,  1.207 sec
     gradient                   ...        0 min,  0.052 sec
 * total energy  :  -204.2171458 Eh     change       -0.1531848E-03 Eh
   gradient norm :     0.0071278 Eh/α   predicted    -0.1006306E-03 ( -34.31%)
   displ. norm   :     0.3362691 α      lambda       -0.2330013E-03
   maximum displ.:     0.1848208 α      in ANC's #4, #3, #1, ...

........................................................................
.............................. CYCLE   25 ..............................
........................................................................

 iter      E             dE          RMSdq      gap      omega  full diag
   1   -207.7419113 -0.207742E+03  0.482E-02    0.08       0.0  T
   2   -207.3563172  0.385594E+00  0.881E-01    0.00       1.0  T
   3   -207.7414240 -0.385107E+00  0.503E-02    0.07       1.0  T
   4   -207.7406014  0.822654E-03  0.887E-02    0.08       1.0  T
   5   -207.7409559 -0.354491E-03  0.711E-02    0.07       1.0  T
   6   -207.7421150 -0.115913E-02  0.302E-02    0.07       1.0  T
   7   -207.7422784 -0.163450E-03  0.150E-02    0.07       1.0  T
   8   -207.7423342 -0.557710E-04  0.897E-03    0.07       1.0  T
   9   -207.7423651 -0.308496E-04  0.427E-03    0.07       2.1  T
  10   -207.7423721 -0.707219E-05  0.183E-03    0.07       4.9  T
  11   -207.7423730 -0.894860E-06  0.585E-04    0.07      15.5  T
  12   -207.7423732 -0.131888E-06  0.211E-04    0.07      42.9  T
     SCC iter.                  ...        0 min,  0.882 sec
     gradient                   ...        0 min,  0.052 sec
 * total energy  :  -204.2173454 Eh     change       -0.1995710E-03 Eh
   gradient norm :     0.0049250 Eh/α   predicted    -0.1296751E-03 ( -35.02%)
   displ. norm   :     0.4298656 α      lambda       -0.2830004E-03
   maximum displ.:     0.2413773 α      in ANC's #4, #3, #1, ...

........................................................................
.............................. CYCLE   26 ..............................
........................................................................

 iter      E             dE          RMSdq      gap      omega  full diag
   1   -207.7422962 -0.207742E+03  0.561E-02    0.08       0.0  T
   2   -207.1294396  0.612857E+00  0.109E+00    0.04       1.0  T
   3   -207.7408118 -0.611372E+00  0.865E-02    0.08       1.0  T
   4   -207.7369728  0.383907E-02  0.161E-01    0.05       1.0  T
   5   -207.7418749 -0.490216E-02  0.588E-02    0.09       1.0  T
   6   -207.7426635 -0.788537E-03  0.351E-02    0.07       1.0  T
   7   -207.7429089 -0.245402E-03  0.156E-02    0.07       1.0  T
   8   -207.7429494 -0.405321E-04  0.113E-02    0.07       1.0  T
   9   -207.7429977 -0.482502E-04  0.570E-03    0.07       1.6  T
  10   -207.7430081 -0.104619E-04  0.324E-03    0.07       2.8  T
  11   -207.7430105 -0.242541E-05  0.183E-03    0.07       4.9  T
  12   -207.7430120 -0.142521E-05  0.403E-04    0.07      22.5  T
  13   -207.7430120 -0.537780E-07  0.211E-04    0.07      43.0  T
  14   -207.7430120 -0.884125E-08  0.646E-05    0.07     140.2  T
     SCC iter.                  ...        0 min,  0.840 sec
     gradient                   ...        0 min,  0.050 sec
 * total energy  :  -204.2175874 Eh     change       -0.2419865E-03 Eh
   gradient norm :     0.0042915 Eh/α   predicted    -0.1676483E-03 ( -30.72%)
   displ. norm   :     0.4845125 α      lambda       -0.2895389E-03
   maximum displ.:     0.2769367 α      in ANC's #4, #3, #1, ...

........................................................................
.............................. CYCLE   27 ..............................
........................................................................

 iter      E             dE          RMSdq      gap      omega  full diag
   1   -207.7428928 -0.207743E+03  0.587E-02    0.08       0.0  T
   2   -207.1444927  0.598400E+00  0.109E+00    0.03       1.0  T
   3   -207.7376218 -0.593129E+00  0.137E-01    0.09       1.0  T
   4   -207.7397963 -0.217452E-02  0.129E-01    0.05       1.0  T
   5   -207.7426506 -0.285432E-02  0.567E-02    0.09       1.0  T
   6   -207.7434159 -0.765309E-03  0.319E-02    0.07       1.0  T
   7   -207.7436400 -0.224102E-03  0.119E-02    0.08       1.0  T
   8   -207.7436611 -0.211156E-04  0.809E-03    0.07       1.1  T
   9   -207.7436868 -0.256299E-04  0.347E-03    0.07       2.6  T
  10   -207.7436894 -0.264009E-05  0.210E-03    0.07       4.3  T
  11   -207.7436882  0.118300E-05  0.237E-03    0.07       3.8  T
  12   -207.7436906 -0.234309E-05  0.811E-04    0.07      11.2  T
  13   -207.7436909 -0.285744E-06  0.313E-04    0.07      28.9  T
  14   -207.7436909 -0.237822E-07  0.441E-05    0.07     205.1  T
     SCC iter.                  ...        0 min,  1.167 sec
     gradient                   ...        0 min,  0.049 sec
 * total energy  :  -204.2178386 Eh     change       -0.2512105E-03 Eh
   gradient norm :     0.0054064 Eh/α   predicted    -0.1787546E-03 ( -28.84%)
   displ. norm   :     0.5081952 α      lambda       -0.2878515E-03
   maximum displ.:     0.2949281 α      in ANC's #4, #3, #1, ...

........................................................................
.............................. CYCLE   28 ..............................
........................................................................

 iter      E             dE          RMSdq      gap      omega  full diag
   1   -207.7437274 -0.207744E+03  0.567E-02    0.08       0.0  T
   2   -207.2429869  0.500741E+00  0.102E+00    0.01       1.0  T
   3   -207.7358121 -0.492825E+00  0.152E-01    0.10       1.0  T
   4   -207.7417737 -0.596161E-02  0.107E-01    0.06       1.0  T
   5   -207.7436582 -0.188451E-02  0.509E-02    0.09       1.0  T
   6   -207.7442777 -0.619534E-03  0.274E-02    0.07       1.0  T
   7   -207.7444510 -0.173307E-03  0.840E-03    0.08       1.1  T
   8   -207.7444610 -0.997886E-05  0.514E-03    0.07       1.8  T
   9   -207.7444700 -0.896509E-05  0.181E-03    0.07       5.0  T
  10   -207.7444701 -0.170709E-06  0.120E-03    0.07       7.5  T
  11   -207.7444685  0.159748E-05  0.205E-03    0.07       4.4  T
  12   -207.7444703 -0.176390E-05  0.780E-04    0.07      11.6  T
  13   -207.7444705 -0.233087E-06  0.385E-04    0.07      23.5  T
  14   -207.7444706 -0.370771E-07  0.831E-05    0.07     108.9  T
     SCC iter.                  ...        0 min,  0.960 sec
     gradient                   ...        0 min,  0.048 sec
 * total energy  :  -204.2180918 Eh     change       -0.2532515E-03 Eh
   gradient norm :     0.0054747 Eh/α   predicted    -0.1810967E-03 ( -28.49%)
   displ. norm   :     0.5315976 α      lambda       -0.2967618E-03
   maximum displ.:     0.3109564 α      in ANC's #4, #3, #1, ...

........................................................................
.............................. CYCLE   29 ..............................
........................................................................

 iter      E             dE          RMSdq      gap      omega  full diag
   1   -207.7446198 -0.207745E+03  0.528E-02    0.08       0.0  T
   2   -207.3390804  0.405539E+00  0.934E-01    0.00       1.0  T
   3   -207.7368047 -0.397724E+00  0.143E-01    0.11       1.0  T
   4   -207.7425736 -0.576891E-02  0.105E-01    0.06       1.0  T
   5   -207.7446128 -0.203922E-02  0.459E-02    0.08       1.0  T
   6   -207.7450891 -0.476258E-03  0.240E-02    0.07       1.0  T
   7   -207.7452226 -0.133473E-03  0.731E-03    0.07       1.2  T
   8   -207.7452303 -0.768967E-05  0.435E-03    0.07       2.1  T
   9   -207.7452364 -0.611097E-05  0.128E-03    0.07       7.1  T
  10   -207.7452363  0.607775E-07  0.103E-03    0.07       8.8  T
  11   -207.7452352  0.107700E-05  0.170E-03    0.07       5.3  T
  12   -207.7452364 -0.117641E-05  0.736E-04    0.07      12.3  T
  13   -207.7452366 -0.193492E-06  0.393E-04    0.07      23.0  T
  14   -207.7452366 -0.392444E-07  0.102E-04    0.07      88.5  T
     SCC iter.                  ...        0 min,  0.984 sec
     gradient                   ...        0 min,  0.050 sec
 * total energy  :  -204.2183565 Eh     change       -0.2646370E-03 Eh
   gradient norm :     0.0047309 Eh/α   predicted    -0.1903132E-03 ( -28.09%)
   displ. norm   :     0.5792697 α      lambda       -0.3277597E-03
   maximum displ.:     0.3387659 α      in ANC's #4, #3, #1, ...

........................................................................
.............................. CYCLE   30 ..............................
........................................................................

 iter      E             dE          RMSdq      gap      omega  full diag
   1   -207.7453652 -0.207745E+03  0.498E-02    0.07       0.0  T
   2   -207.4513636  0.294002E+00  0.805E-01    0.01       1.0  T
   3   -207.7392615 -0.287898E+00  0.123E-01    0.10       1.0  T
   4   -207.7415069 -0.224541E-02  0.127E-01    0.05       1.0  T
   5   -207.7452543 -0.374740E-02  0.451E-02    0.08       1.0  T
   6   -207.7456399 -0.385657E-03  0.250E-02    0.07       1.0  T
   7   -207.7457887 -0.148740E-03  0.838E-03    0.07       1.1  T
   8   -207.7458015 -0.127955E-04  0.482E-03    0.07       1.9  T
   9   -207.7458103 -0.878670E-05  0.146E-03    0.07       6.2  T
  10   -207.7458100  0.314408E-06  0.136E-03    0.07       6.7  T
  11   -207.7458094  0.519980E-06  0.158E-03    0.07       5.7  T
  12   -207.7458105 -0.102144E-05  0.695E-04    0.07      13.0  T
  13   -207.7458106 -0.187390E-06  0.321E-04    0.07      28.2  T
  14   -207.7458107 -0.275096E-07  0.529E-05    0.07     171.3  T
     SCC iter.                  ...        0 min,  1.262 sec
     gradient                   ...        0 min,  0.050 sec
 * total energy  :  -204.2186500 Eh     change       -0.2935169E-03 Eh
   gradient norm :     0.0040611 Eh/α   predicted    -0.2188711E-03 ( -25.43%)
   displ. norm   :     0.6391328 α      lambda       -0.3587636E-03
   maximum displ.:     0.3714460 α      in ANC's #4, #1, #3, ...

........................................................................
.............................. CYCLE   31 ..............................
........................................................................

 iter      E             dE          RMSdq      gap      omega  full diag
   1   -207.7456395 -0.207746E+03  0.487E-02    0.07       0.0  T
   2   -207.6180482  0.127591E+00  0.530E-01    0.01       1.0  T
   3   -207.7413680 -0.123320E+00  0.102E-01    0.09       1.0  T
   4   -207.7350405  0.632742E-02  0.192E-01    0.04       1.0  T
   5   -207.7452038 -0.101632E-01  0.494E-02    0.08       1.0  T
   6   -207.7455196 -0.315869E-03  0.317E-02    0.07       1.0  T
   7   -207.7457861 -0.266445E-03  0.138E-02    0.07       1.0  T
   8   -207.7458368 -0.507217E-04  0.800E-03    0.07       1.1  T
   9   -207.7458636 -0.268182E-04  0.335E-03    0.07       2.7  T
  10   -207.7458669 -0.327784E-05  0.169E-03    0.07       5.4  T
  11   -207.7458674 -0.537275E-06  0.104E-03    0.07       8.7  T
  12   -207.7458679 -0.482651E-06  0.284E-04    0.07      31.9  T
  13   -207.7458680 -0.307266E-07  0.105E-04    0.07      86.6  T
     SCC iter.                  ...        0 min,  0.857 sec
     gradient                   ...        0 min,  0.054 sec
 * total energy  :  -204.2189661 Eh     change       -0.3161543E-03 Eh
   gradient norm :     0.0040369 Eh/α   predicted    -0.2526579E-03 ( -20.08%)
   displ. norm   :     0.6740554 α      lambda       -0.3466250E-03
   maximum displ.:     0.3890423 α      in ANC's #4, #1, #3, ...

........................................................................
.............................. CYCLE   32 ..............................
........................................................................

 iter      E             dE          RMSdq      gap      omega  full diag
   1   -207.7453145 -0.207745E+03  0.494E-02    0.07       0.0  T
   2   -207.7268026  0.185118E-01  0.197E-01    0.04       1.0  T
   3   -207.7390601 -0.122575E-01  0.119E-01    0.10       1.0  T
   4   -207.7353633  0.369680E-02  0.198E-01    0.04       1.0  T
   5   -207.7444434 -0.908008E-02  0.584E-02    0.08       1.0  T
   6   -207.7444880 -0.445670E-04  0.443E-02    0.07       1.0  T
   7   -207.7451566 -0.668664E-03  0.217E-02    0.07       1.0  T
   8   -207.7453155 -0.158924E-03  0.120E-02    0.07       1.0  T
   9   -207.7453808 -0.652222E-04  0.353E-03    0.07       2.6  T
  10   -207.7453857 -0.498022E-05  0.101E-03    0.07       9.0  T
  11   -207.7453855  0.281066E-06  0.121E-03    0.07       7.5  T
  12   -207.7453860 -0.558282E-06  0.299E-04    0.07      30.2  T
  13   -207.7453861 -0.325169E-07  0.162E-04    0.07      55.9  T
     SCC iter.                  ...        0 min,  0.967 sec
     gradient                   ...        0 min,  0.062 sec
 * total energy  :  -204.2192634 Eh     change       -0.2972851E-03 Eh
   gradient norm :     0.0043705 Eh/α   predicted    -0.2520614E-03 ( -15.21%)
   displ. norm   :     0.6651972 α      lambda       -0.2903188E-03
   maximum displ.:     0.3820190 α      in ANC's #4, #1, #3, ...

........................................................................
.............................. CYCLE   33 ..............................
........................................................................

 iter      E             dE          RMSdq      gap      omega  full diag
   1   -207.7447411 -0.207745E+03  0.492E-02    0.07       0.0  T
   2   -207.7441330  0.608091E-03  0.575E-02    0.06       1.0  T
   3   -207.7368908  0.724215E-02  0.168E-01    0.09       1.0  T
   4   -207.7322959  0.459488E-02  0.167E-01    0.04       1.0  T
   5   -207.7361854 -0.388950E-02  0.133E-01    0.10       1.0  T
   6   -207.7441306 -0.794517E-02  0.405E-02    0.07       1.0  T
   7   -207.7444745 -0.343918E-03  0.252E-02    0.07       1.0  T
   8   -207.7447185 -0.243975E-03  0.111E-02    0.07       1.0  T
   9   -207.7447714 -0.528904E-04  0.341E-03    0.07       2.7  T
  10   -207.7447752 -0.378485E-05  0.142E-03    0.07       6.4  T
  11   -207.7447747  0.441320E-06  0.155E-03    0.07       5.8  T
  12   -207.7447759 -0.114725E-05  0.327E-04    0.07      27.6  T
  13   -207.7447759 -0.327293E-07  0.829E-05    0.07     109.3  T
  14   -207.7447759  0.250262E-08  0.956E-05    0.07      94.7  T
     SCC iter.                  ...        0 min,  1.399 sec
     gradient                   ...        0 min,  0.053 sec
 * total energy  :  -204.2195074 Eh     change       -0.2440288E-03 Eh
   gradient norm :     0.0042160 Eh/α   predicted    -0.2093961E-03 ( -14.19%)
   displ. norm   :     0.6181452 α      lambda       -0.2265482E-03
   maximum displ.:     0.3523086 α      in ANC's #4, #1, #3, ...

........................................................................
.............................. CYCLE   34 ..............................
........................................................................

 iter      E             dE          RMSdq      gap      omega  full diag
   1   -207.7445026 -0.207745E+03  0.459E-02    0.06       0.0  T
   2   -207.7413980  0.310454E-02  0.914E-02    0.08       1.0  T
   3   -207.7199286  0.214694E-01  0.223E-01    0.03       1.0  T
   4   -207.7389235 -0.189949E-01  0.147E-01    0.08       1.0  T
   5   -207.7432752 -0.435167E-02  0.650E-02    0.07       1.0  T
   6   -207.7432925 -0.173074E-04  0.510E-02    0.07       1.0  T
   7   -207.7441787 -0.886188E-03  0.279E-02    0.07       1.0  T
   8   -207.7444578 -0.279123E-03  0.145E-02    0.07       1.0  T
   9   -207.7445518 -0.940383E-04  0.419E-03    0.07       2.2  T
  10   -207.7445592 -0.731695E-05  0.164E-03    0.06       5.5  T
  11   -207.7445590  0.115956E-06  0.159E-03    0.06       5.7  T
  12   -207.7445602 -0.112893E-05  0.458E-04    0.06      19.8  T
  13   -207.7445602 -0.750041E-07  0.213E-04    0.06      42.4  T
  14   -207.7445603 -0.186496E-07  0.298E-05    0.06     304.1  T
     SCC iter.                  ...        0 min,  2.157 sec
     gradient                   ...        0 min,  0.054 sec
 * total energy  :  -204.2196957 Eh     change       -0.1882213E-03 Eh
   gradient norm :     0.0032679 Eh/α   predicted    -0.1565596E-03 ( -16.82%)
   displ. norm   :     0.5424329 α      lambda       -0.1736067E-03
   maximum displ.:     0.3022309 α      in ANC's #4, #1, #3, ...

........................................................................
.............................. CYCLE   35 ..............................
........................................................................

 iter      E             dE          RMSdq      gap      omega  full diag
   1   -207.7447777 -0.207745E+03  0.400E-02    0.06       0.0  T
   2   -207.7366137  0.816400E-02  0.134E-01    0.10       1.0  T
   3   -207.7327776  0.383611E-02  0.174E-01    0.03       1.0  T
   4   -207.7404701 -0.769243E-02  0.123E-01    0.05       1.0  T
   5   -207.7438426 -0.337257E-02  0.543E-02    0.07       1.0  T
   6   -207.7439315 -0.889083E-04  0.437E-02    0.07       1.0  T
   7   -207.7447280 -0.796440E-03  0.164E-02    0.07       1.0  T
   8   -207.7448464 -0.118466E-03  0.410E-03    0.06       2.2  T
   9   -207.7448538 -0.736303E-05  0.972E-04    0.06       9.3  T
  10   -207.7448539 -0.136503E-06  0.459E-04    0.06      19.7  T
  11   -207.7448537  0.195022E-06  0.729E-04    0.06      12.4  T
     SCC iter.                  ...        0 min,  1.010 sec
     gradient                   ...        0 min,  0.053 sec
 * total energy  :  -204.2198374 Eh     change       -0.1416963E-03 Eh
   gradient norm :     0.0022966 Eh/α   predicted    -0.1123445E-03 ( -20.71%)
   displ. norm   :     0.4533787 α      lambda       -0.1318027E-03
   maximum displ.:     0.2520931 α      in ANC's #1, #4, #3, ...

........................................................................
.............................. CYCLE   36 ..............................
........................................................................

 iter      E             dE          RMSdq      gap      omega  full diag
   1   -207.7453620 -0.207745E+03  0.323E-02    0.06       0.0  T
   2   -207.7369583  0.840369E-02  0.138E-01    0.10       1.0  T
   3   -207.7420638 -0.510549E-02  0.921E-02    0.04       1.0  T
   4   -207.7411768  0.886962E-03  0.120E-01    0.05       1.0  T
   5   -207.7446217 -0.344495E-02  0.485E-02    0.07       1.0  T
   6   -207.7450237 -0.401945E-03  0.283E-02    0.07       1.0  T
   7   -207.7453820 -0.358366E-03  0.787E-03    0.06       1.2  T
   8   -207.7454111 -0.290821E-04  0.119E-03    0.06       7.6  T
   9   -207.7454113 -0.146406E-06  0.752E-04    0.06      12.0  T
  10   -207.7454114 -0.143058E-06  0.348E-04    0.06      26.0  T
     SCC iter.                  ...        0 min,  1.015 sec
     gradient                   ...        0 min,  0.050 sec
 * total energy  :  -204.2199442 Eh     change       -0.1068405E-03 Eh
   gradient norm :     0.0024404 Eh/α   predicted    -0.7945312E-04 ( -25.63%)
   displ. norm   :     0.3743572 α      lambda       -0.1045490E-03
   maximum displ.:     0.2104025 α      in ANC's #1, #4, #3, ...

........................................................................
.............................. CYCLE   37 ..............................
........................................................................

 iter      E             dE          RMSdq      gap      omega  full diag
   1   -207.7457560 -0.207746E+03  0.278E-02    0.06       0.0  T
   2   -207.7354105  0.103456E-01  0.158E-01    0.10       1.0  T
   3   -207.7447628 -0.935236E-02  0.506E-02    0.05       1.0  T
   4   -207.7451737 -0.410925E-03  0.454E-02    0.07       1.0  T
   5   -207.7439827  0.119101E-02  0.813E-02    0.06       1.0  T
   6   -207.7456844 -0.170170E-02  0.163E-02    0.06       1.0  T
   7   -207.7458091 -0.124688E-03  0.226E-03    0.06       4.0  T
   8   -207.7458095 -0.353037E-06  0.186E-03    0.06       4.9  T
   9   -207.7458108 -0.130027E-05  0.548E-04    0.06      16.5  T
  10   -207.7458108 -0.134104E-07  0.449E-04    0.06      20.1  T
  11   -207.7458108 -0.483233E-07  0.118E-04    0.06      76.7  T
     SCC iter.                  ...        0 min,  1.163 sec
     gradient                   ...        0 min,  0.050 sec
 * total energy  :  -204.2200286 Eh     change       -0.8441325E-04 Eh
   gradient norm :     0.0028925 Eh/α   predicted    -0.5960340E-04 ( -29.39%)
   displ. norm   :     0.3232665 α      lambda       -0.9102884E-04
   maximum displ.:     0.1800634 α      in ANC's #1, #5, #4, ...

........................................................................
.............................. CYCLE   38 ..............................
........................................................................

 iter      E             dE          RMSdq      gap      omega  full diag
   1   -207.7458516 -0.207746E+03  0.274E-02    0.06       0.0  T
   2   -207.7354701  0.103816E-01  0.175E-01    0.09       1.0  T
   3   -207.7444328 -0.896278E-02  0.576E-02    0.05       1.0  T
   4   -207.7447997 -0.366866E-03  0.542E-02    0.07       1.0  T
   5   -207.7457667 -0.967031E-03  0.253E-02    0.06       1.0  T
   6   -207.7458975 -0.130722E-03  0.845E-03    0.06       1.1  T
   7   -207.7459210 -0.235834E-04  0.192E-03    0.06       4.7  T
   8   -207.7459215 -0.464979E-06  0.962E-04    0.06       9.4  T
   9   -207.7459217 -0.218191E-06  0.676E-04    0.06      13.4  T
     SCC iter.                  ...        0 min,  0.900 sec
     gradient                   ...        0 min,  0.055 sec
 * total energy  :  -204.2201019 Eh     change       -0.7328259E-04 Eh
   gradient norm :     0.0027082 Eh/α   predicted    -0.5027327E-04 ( -31.40%)
   displ. norm   :     0.2948225 α      lambda       -0.8247115E-04
   maximum displ.:     0.1589967 α      in ANC's #1, #5, #9, ...

........................................................................
.............................. CYCLE   39 ..............................
........................................................................

 iter      E             dE          RMSdq      gap      omega  full diag
   1   -207.7456109 -0.207746E+03  0.278E-02    0.06       0.0  T
   2   -207.7346915  0.109194E-01  0.182E-01    0.09       1.0  T
   3   -207.7442237 -0.953221E-02  0.574E-02    0.05       1.0  T
   4   -207.7446061 -0.382432E-03  0.519E-02    0.07       1.0  T
   5   -207.7455581 -0.951941E-03  0.230E-02    0.06       1.0  T
   6   -207.7456735 -0.115399E-03  0.797E-03    0.06       1.1  T
   7   -207.7456879 -0.143862E-04  0.187E-03    0.06       4.8  T
   8   -207.7456885 -0.660958E-06  0.834E-04    0.06      10.9  T
   9   -207.7456886 -0.489907E-07  0.675E-04    0.06      13.4  T
     SCC iter.                  ...        0 min,  0.938 sec
     gradient                   ...        0 min,  0.051 sec
 * total energy  :  -204.2201683 Eh     change       -0.6640613E-04 Eh
   gradient norm :     0.0021308 Eh/α   predicted    -0.4482441E-04 ( -32.50%)
   displ. norm   :     0.2737912 α      lambda       -0.7483303E-04
   maximum displ.:     0.1406164 α      in ANC's #1, #5, #9, ...

........................................................................
.............................. CYCLE   40 ..............................
........................................................................

 iter      E             dE          RMSdq      gap      omega  full diag
   1   -207.7452849 -0.207745E+03  0.277E-02    0.06       0.0  T
   2   -207.7352270  0.100579E-01  0.176E-01    0.09       1.0  T
   3   -207.7440717 -0.884467E-02  0.539E-02    0.05       1.0  T
   4   -207.7440262  0.455197E-04  0.568E-02    0.07       1.0  T
   5   -207.7452464 -0.122021E-02  0.207E-02    0.06       1.0  T
   6   -207.7453378 -0.914261E-04  0.794E-03    0.06       1.1  T
   7   -207.7453512 -0.134024E-04  0.237E-03    0.06       3.8  T
   8   -207.7453529 -0.169736E-05  0.634E-04    0.06      14.3  T
   9   -207.7453529  0.475513E-07  0.618E-04    0.06      14.6  T
  10   -207.7453529 -0.689159E-07  0.395E-04    0.06      22.9  T
     SCC iter.                  ...        0 min,  2.207 sec
     gradient                   ...        0 min,  0.067 sec
 * total energy  :  -204.2202289 Eh     change       -0.6063192E-04 Eh
   gradient norm :     0.0019223 Eh/α   predicted    -0.4022202E-04 ( -33.66%)
   displ. norm   :     0.4124795 α      lambda       -0.7130547E-04
   maximum displ.:     0.2059202 α      in ANC's #5, #1, #9, ...

........................................................................
.............................. CYCLE   41 ..............................
........................................................................

 iter      E             dE          RMSdq      gap      omega  full diag
   1   -207.7445955 -0.207745E+03  0.427E-02    0.06       0.0  T
   2   -207.7290649  0.155307E-01  0.216E-01    0.10       1.0  T
   3   -207.7412752 -0.122103E-01  0.886E-02    0.04       1.0  T
   4   -207.7422882 -0.101304E-02  0.789E-02    0.07       1.0  T
   5   -207.7445577 -0.226949E-02  0.277E-02    0.06       1.0  T
   6   -207.7446571 -0.994076E-04  0.162E-02    0.06       1.0  T
   7   -207.7447079 -0.507795E-04  0.729E-03    0.06       1.2  T
   8   -207.7447293 -0.214001E-04  0.189E-03    0.06       4.8  T
   9   -207.7447303 -0.979417E-06  0.991E-04    0.06       9.1  T
  10   -207.7447305 -0.219112E-06  0.778E-04    0.06      11.6  T
     SCC iter.                  ...        0 min,  1.035 sec
     gradient                   ...        0 min,  0.051 sec
 * total energy  :  -204.2203040 Eh     change       -0.7502214E-04 Eh
   gradient norm :     0.0027629 Eh/α   predicted    -0.3834959E-04 ( -48.88%)
   displ. norm   :     0.1834664 α      lambda       -0.4385267E-04
   maximum displ.:     0.0959094 α      in ANC's #5, #1, #9, ...

........................................................................
.............................. CYCLE   42 ..............................
........................................................................

 iter      E             dE          RMSdq      gap      omega  full diag
   1   -207.7449920 -0.207745E+03  0.169E-02    0.06       0.0  T
   2   -207.7427063  0.228566E-02  0.705E-02    0.07       1.0  T
   3   -207.7441698 -0.146350E-02  0.481E-02    0.05       1.0  T
   4   -207.7445266 -0.356754E-03  0.456E-02    0.06       1.0  T
   5   -207.7449780 -0.451449E-03  0.107E-02    0.06       1.0  T
   6   -207.7449969 -0.188962E-04  0.461E-03    0.06       2.0  T
   7   -207.7450020 -0.505469E-05  0.246E-03    0.06       3.7  T
   8   -207.7450045 -0.247610E-05  0.459E-04    0.06      19.7  T
   9   -207.7450045 -0.156303E-07  0.348E-04    0.06      26.0  T
  10   -207.7450045 -0.399542E-07  0.134E-04    0.06      67.8  T
     SCC iter.                  ...        0 min,  0.668 sec
     gradient                   ...        0 min,  0.052 sec
 * total energy  :  -204.2203426 Eh     change       -0.3864178E-04 Eh
   gradient norm :     0.0024663 Eh/α   predicted    -0.2266523E-04 ( -41.35%)
   displ. norm   :     0.3070232 α      lambda       -0.7838050E-04
   maximum displ.:     0.1619423 α      in ANC's #5, #1, #9, ...
 * RMSD in coord.:     0.7410126 α      energy gain  -0.4072923E-02 Eh

generating ANC from model Hessian ...
Using Lindh-Hessian (1995)
 Shifting diagonal of input Hessian by    1.0097035017692456E-002
 Lowest  eigenvalues of input Hessian
    0.010000    0.010054    0.000000    0.000000    0.000000    0.000000
    0.000000    0.000000    0.010222    0.010296    0.010320    0.010563
    0.010616    0.010895    0.010933    0.011098    0.011158    0.011260
 Highest eigenvalues
    2.146727    2.159279    2.298663    2.305202    2.549315    2.576328


[...]
    29   6 C    3.961 --    30 N    1.342    34 N    1.338    37 C    1.115
    30   7 N    2.868 --    29 C    1.342    31 N    1.212
    31   7 N    3.594 --    30 N    1.212    32 C    1.084    45 C    1.023
                            35 O    0.124
    32   6 C    3.955 --    35 O    1.627    31 N    1.084    33 N    1.080
    33   7 N    3.607 --    34 N    1.221    32 C    1.080    39 C    1.029
                            35 O    0.121
    34   7 N    2.871 --    29 C    1.338    33 N    1.221
    35   8 O    1.984 --    32 C    1.627    31 N    0.124    33 N    0.121
    36  16 S    2.618 --    11 C    1.144    37 C    1.101
    37   6 C    3.938 --    38 C    1.530    29 C    1.115    36 S    1.101
    38   6 C    3.964 --    37 C    1.530    15 C    1.244    61 H    0.958
    39   6 C    3.932 --    40 C    1.356    44 C    1.347    33 N    1.029
    40   6 C    3.964 --    41 C    1.459    39 C    1.356    56 H    0.964
                            43 C    0.101
    41   6 C    3.983 --    40 C    1.459    42 C    1.423    57 H    0.965
                            44 C    0.102
    42   6 C    3.944 --    41 C    1.423    43 C    1.415    58 H    0.967
    43   6 C    3.983 --    44 C    1.468    42 C    1.415    59 H    0.965
                            40 C    0.101
    44   6 C    3.962 --    43 C    1.468    39 C    1.347    60 H    0.962
                            41 C    0.102
    45   6 C    3.933 --    50 C    1.360    46 C    1.352    31 N    1.023
    46   6 C    3.960 --    47 C    1.463    45 C    1.352    51 H    0.956
                            49 C    0.103
    47   6 C    3.985 --    46 C    1.463    48 C    1.419    52 H    0.964
                            50 C    0.102
    48   6 C    3.949 --    49 C    1.425    47 C    1.419    53 H    0.967
    49   6 C    3.984 --    50 C    1.456    48 C    1.425    54 H    0.966
                            46 C    0.103
    50   6 C    3.965 --    49 C    1.456    45 C    1.360    55 H    0.964
                            47 C    0.102
    51   1 H    0.994 --    46 C    0.956
    52   1 H    0.994 --    47 C    0.964
    53   1 H    0.995 --    48 C    0.967
    54   1 H    0.993 --    49 C    0.966
    55   1 H    0.995 --    50 C    0.964
    56   1 H    0.995 --    40 C    0.964
    57   1 H    0.993 --    41 C    0.965
    58   1 H    0.994 --    42 C    0.967
    59   1 H    0.993 --    43 C    0.965
    60   1 H    0.995 --    44 C    0.962
    61   1 H    0.994 --    38 C    0.958
    62   6 C    3.926 --    65 C    1.287    63 C    1.219    64 C    1.183
    63   6 C    3.981 --    66 C    1.264    72 C    1.260    62 C    1.219
    64   6 C    3.983 --    73 C    1.323    67 C    1.264    62 C    1.183
    65   6 C    3.958 --    62 C    1.287    69 C    1.246    68 C    1.240
    66   6 C    3.963 --    74 C    1.270    63 C    1.264    70 C    1.234
    67   6 C    3.983 --    75 C    1.309    64 C    1.264    71 C    1.228
    68   6 C    3.961 --    70 C    1.596    65 C    1.240    80 H    0.963
    69   6 C    3.962 --    71 C    1.587    65 C    1.246    81 H    0.963
    70   6 C    3.960 --    68 C    1.596    66 C    1.234    82 H    0.964
    71   6 C    3.928 --    69 C    1.587    67 C    1.228    83 H    0.964
    72   6 C    3.927 --    76 C    1.299    63 C    1.260    97 S    1.143
    73   6 C    3.948 --    77 C    1.476    64 C    1.323    84 H    0.954
    74   6 C    3.962 --    78 C    1.560    66 C    1.270    85 H    0.964
    75   6 C    3.941 --    79 C    1.498    67 C    1.309    86 H    0.966
    76   6 C    3.978 --    72 C    1.299    78 C    1.254    99 C    1.246
    77   6 C    3.963 --    73 C    1.476    79 C    1.370    87 H    0.967
    78   6 C    3.942 --    74 C    1.560    76 C    1.254    88 H    0.965
    79   6 C    3.969 --    75 C    1.498    77 C    1.370    89 H    0.969
    80   1 H    0.995 --    68 C    0.963
    81   1 H    0.995 --    69 C    0.963
    82   1 H    0.995 --    70 C    0.964
    83   1 H    0.994 --    71 C    0.964
    84   1 H    0.998 --    73 C    0.954
    85   1 H    0.995 --    74 C    0.964
    86   1 H    0.996 --    75 C    0.966
    87   1 H    0.997 --    77 C    0.967
    88   1 H    0.996 --    78 C    0.965
    89   1 H    0.996 --    79 C    0.969
    90   6 C    3.960 --    91 N    1.342    95 N    1.327    98 C    1.112
    91   7 N    2.946 --    90 C    1.342    92 N    1.253
    92   7 N    3.653 --    91 N    1.253   106 C    1.048    93 C    1.041
                            96 O    0.122
    93   6 C    3.956 --    96 O    1.724    94 N    1.044    92 N    1.041
    94   7 N    3.650 --    95 N    1.252    93 C    1.044   100 C    1.044
                            96 O    0.124
    95   7 N    2.922 --    90 C    1.327    94 N    1.252
    96   8 O    2.080 --    93 C    1.724    94 N    0.124    92 N    0.122
    97  16 S    2.600 --    72 C    1.143    98 C    1.107    99 C    0.103
    98   6 C    3.938 --    99 C    1.530    90 C    1.112    97 S    1.107
    99   6 C    3.968 --    98 C    1.530    76 C    1.246   122 H    0.960
                            97 S    0.103
   100   6 C    3.931 --   101 C    1.346   105 C    1.335    94 N    1.044
   101   6 C    3.964 --   102 C    1.461   100 C    1.346   117 H    0.960
   102   6 C    3.982 --   101 C    1.461   103 C    1.421   118 H    0.964
                           105 C    0.101
   103   6 C    3.937 --   102 C    1.421   104 C    1.408   119 H    0.966
   104   6 C    3.981 --   105 C    1.475   103 C    1.408   120 H    0.965
   105   6 C    3.965 --   104 C    1.475   100 C    1.335   121 H    0.961
                           102 C    0.101
   106   6 C    3.932 --   111 C    1.343   107 C    1.334    92 N    1.048
   107   6 C    3.964 --   108 C    1.475   106 C    1.334   112 H    0.961
                           110 C    0.100
   108   6 C    3.981 --   107 C    1.475   109 C    1.408   113 H    0.965
   109   6 C    3.935 --   110 C    1.419   108 C    1.408   114 H    0.966
   110   6 C    3.982 --   111 C    1.463   109 C    1.419   115 H    0.964
                           107 C    0.100
   111   6 C    3.963 --   110 C    1.463   106 C    1.343   116 H    0.960
   112   1 H    0.994 --   107 C    0.961
   113   1 H    0.993 --   108 C    0.965
   114   1 H    0.993 --   109 C    0.966
   115   1 H    0.992 --   110 C    0.964
   116   1 H    0.992 --   111 C    0.960
   117   1 H    0.992 --   101 C    0.960
   118   1 H    0.992 --   102 C    0.964
   119   1 H    0.994 --   103 C    0.966
   120   1 H    0.993 --   104 C    0.965
   121   1 H    0.995 --   105 C    0.961
   122   1 H    0.996 --    99 C    0.960
 ---------------------------------------------------------------------------

Topologies differ in bond orders
Writing corrected topology to xtbtopo.mol

molecular dipole:
                 x           y           z       tot (Debye)
 q only:       -4.257       1.288      10.274
   full:       -4.310       0.775      10.206      28.228
molecular quadrupole (traceless):
                xx          xy          yy          xz          yz          zz
 q only:       49.881      48.427      17.537     -60.302      24.638     -67.418
  q+dip:       61.177      46.810      21.141     -46.984      28.930     -82.317
   full:       51.575      49.771       8.975     -53.171      20.467     -60.550

           -------------------------------------------------
          |                Geometry Summary                 |
           -------------------------------------------------

      molecular mass/u    :     1067.2455630
   center of mass at/Å    :       -0.8783140       0.4421352       2.6638041
  moments of inertia/u·Å² :        0.1078906E+05   0.2141252E+05   0.2609393E+05
rotational constants/cm⁻¹ :        0.1562474E-02   0.7872792E-03   0.6460366E-03

 * 134 selected distances

     #   Z          #   Z                                           value/Å
     1   6 C        2   6 C                                       1.4291507
     1   6 C        4   6 C                                       1.4146248
     2   6 C        5   6 C                                       1.4230326
     3   6 C        6   6 C                                       1.4185787
     4   6 C        7   6 C                                       1.4177638
     4   6 C        8   6 C                                       1.4139706
     5   6 C        9   6 C                                       1.4185640
     7   6 C        9   6 C                                       1.3569353
     6   6 C       10   6 C                                       1.4169735
     8   6 C       10   6 C                                       1.3626462
     2   6 C       11   6 C                                       1.4165051
     3   6 C       12   6 C                                       1.4032320
     5   6 C       13   6 C                                       1.4130739
     6   6 C       14   6 C                                       1.4057424
    11   6 C       15   6 C                                       1.4088728
    12   6 C       16   6 C                                       1.3784756
    13   6 C       17   6 C                                       1.3634471
    15   6 C       17   6 C                                       1.4082090
    14   6 C       18   6 C                                       1.3755918
    16   6 C       18   6 C                                       1.3933691
     7   6 C       19   1 H                                       1.0790522
     8   6 C       20   1 H                                       1.0792533
     9   6 C       21   1 H                                       1.0790687
    10   6 C       22   1 H                                       1.0795867
    12   6 C       23   1 H                                       1.0791915
    13   6 C       24   1 H                                       1.0791290
    14   6 C       25   1 H                                       1.0797572
    16   6 C       26   1 H                                       1.0790187
    17   6 C       27   1 H                                       1.0782954
    18   6 C       28   1 H                                       1.0788273
    29   6 C       30   7 N                                       1.3277355
    30   7 N       31   7 N                                       1.3202680
    31   7 N       32   6 C                                       1.3918194
    32   6 C       33   7 N                                       1.3924339
    29   6 C       34   7 N                                       1.3272981
    33   7 N       34   7 N                                       1.3184801
    32   6 C       35   8 O                                       1.2115917
    11   6 C       36  16 S                                       1.7367978
    29   6 C       37   6 C                                       1.4331992
    36  16 S       37   6 C                                       1.7396282
    15   6 C       38   6 C                                       1.4144508
    37   6 C       38   6 C                                       1.3644562
    33   7 N       39   6 C                                       1.4093952
    39   6 C       40   6 C                                       1.3933767
    40   6 C       41   6 C                                       1.3816596
    41   6 C       42   6 C                                       1.3868039
    42   6 C       43   6 C                                       1.3879592
    39   6 C       44   6 C                                       1.3951116
    43   6 C       44   6 C                                       1.3789806
    31   7 N       45   6 C                                       1.4111709
    45   6 C       46   6 C                                       1.3936097
    46   6 C       47   6 C                                       1.3796331
    47   6 C       48   6 C                                       1.3875071
    48   6 C       49   6 C                                       1.3863736
    45   6 C       50   6 C                                       1.3930325
    49   6 C       50   6 C                                       1.3819593
    46   6 C       51   1 H                                       1.0777649
    47   6 C       52   1 H                                       1.0783696
    48   6 C       53   1 H                                       1.0784165
    49   6 C       54   1 H                                       1.0782103
    50   6 C       55   1 H                                       1.0775683
    40   6 C       56   1 H                                       1.0773992
    41   6 C       57   1 H                                       1.0783111
    42   6 C       58   1 H                                       1.0783770
    43   6 C       59   1 H                                       1.0783881
    44   6 C       60   1 H                                       1.0780917
    38   6 C       61   1 H                                       1.0744038 (min)
    62   6 C       63   6 C                                       1.4328117
    62   6 C       65   6 C                                       1.4152285
    63   6 C       66   6 C                                       1.4229308
    64   6 C       67   6 C                                       1.4188076
    65   6 C       68   6 C                                       1.4159272
    65   6 C       69   6 C                                       1.4166772
    66   6 C       70   6 C                                       1.4174814
    68   6 C       70   6 C                                       1.3568234
    67   6 C       71   6 C                                       1.4192195
    69   6 C       71   6 C                                       1.3589414
    63   6 C       72   6 C                                       1.4182096
    64   6 C       73   6 C                                       1.4032846
    66   6 C       74   6 C                                       1.4128056
    67   6 C       75   6 C                                       1.4054537
    72   6 C       76   6 C                                       1.4099468
    73   6 C       77   6 C                                       1.3768715
    74   6 C       78   6 C                                       1.3622490
    76   6 C       78   6 C                                       1.4073378
    75   6 C       79   6 C                                       1.3737043
    77   6 C       79   6 C                                       1.3942380
    68   6 C       80   1 H                                       1.0790075
    69   6 C       81   1 H                                       1.0792683
    70   6 C       82   1 H                                       1.0788239
    71   6 C       83   1 H                                       1.0792754
    73   6 C       84   1 H                                       1.0771924
    74   6 C       85   1 H                                       1.0788820
    75   6 C       86   1 H                                       1.0796902
    77   6 C       87   1 H                                       1.0792072
    78   6 C       88   1 H                                       1.0782176
    79   6 C       89   1 H                                       1.0792657
    90   6 C       91   7 N                                       1.3263281
    91   7 N       92   7 N                                       1.3098031
    92   7 N       93   6 C                                       1.4085034
    93   6 C       94   7 N                                       1.4072641
    90   6 C       95   7 N                                       1.3311254
    94   7 N       95   7 N                                       1.3122795
    93   6 C       96   8 O                                       1.1948942
    72   6 C       97  16 S                                       1.7411223
    90   6 C       98   6 C                                       1.4370989
    97  16 S       98   6 C                                       1.7451534 (max)
    76   6 C       99   6 C                                       1.4128226
Note: The following floating-point exceptions are signalling: IEEE_UNDERFLOW_FLAG
normal termination of xtb
    98   6 C       99   6 C                                       1.3651664
    94   7 N      100   6 C                                       1.4056254
   100   6 C      101   6 C                                       1.3949052
   101   6 C      102   6 C                                       1.3814299
   102   6 C      103   6 C                                       1.3871273
   103   6 C      104   6 C                                       1.3889687
   100   6 C      105   6 C                                       1.3980919
   104   6 C      105   6 C                                       1.3781454
    92   7 N      106   6 C                                       1.4041717
   106   6 C      107   6 C                                       1.3983990
   107   6 C      108   6 C                                       1.3782101
   108   6 C      109   6 C                                       1.3891024
   109   6 C      110   6 C                                       1.3874671
   106   6 C      111   6 C                                       1.3955158
   110   6 C      111   6 C                                       1.3813170
   107   6 C      112   1 H                                       1.0787314
   108   6 C      113   1 H                                       1.0785684
   109   6 C      114   1 H                                       1.0787432
   110   6 C      115   1 H                                       1.0784542
   111   6 C      116   1 H                                       1.0764268
   101   6 C      117   1 H                                       1.0763121
   102   6 C      118   1 H                                       1.0783601
   103   6 C      119   1 H                                       1.0785893
   104   6 C      120   1 H                                       1.0785440
   105   6 C      121   1 H                                       1.0788204
    99   6 C      122   1 H                                       1.0747949

 * 6 distinct bonds (by element types)

   Z      Z             #   av. dist./Å        max./Å        min./Å
   1 H    6 C          42     1.0783727     1.0797572     1.0744038
   6 C    6 C          70     1.3972798     1.4370989     1.3568234
   6 C    7 N          12     1.3785726     1.4111709     1.3263281
   7 N    7 N           4     1.3152077     1.3202680     1.3098031
   6 C    8 O           2     1.2032429     1.2115917     1.1948942
   6 C   16 S           4     1.7406754     1.7451534     1.7367978


optimized geometry written to: xtbopt.mol


           -------------------------------------------------
          | TOTAL ENERGY             -204.220710319411 Eh   |
          | GRADIENT NORM               0.000257930192 Eh/α |
          | HOMO-LUMO GAP               0.052315652315 eV   |
           -------------------------------------------------
########################################################################
[WARNING] Runtime exception occurred
-1- restart_readRestart: Number of electron missmatch in restart file.
########################################################################

------------------------------------------------------------------------
 * finished run on 2024/11/14 at 13:53:26.390     
------------------------------------------------------------------------
 total:
 * wall-time:     0 d,  0 h,  1 min,  8.161 sec
 *  cpu-time:     0 d,  0 h,  4 min, 11.894 sec
 * ratio c/w:     3.696 speedup
 SCF:
 * wall-time:     0 d,  0 h,  0 min,  3.283 sec
 *  cpu-time:     0 d,  0 h,  0 min, 13.367 sec
 * ratio c/w:     4.072 speedup
 ANC optimizer:
 * wall-time:     0 d,  0 h,  1 min,  4.849 sec
 *  cpu-time:     0 d,  0 h,  3 min, 58.486 sec
 * ratio c/w:     3.678 speedup

