      -----------------------------------------------------------      
     |                   =====================                   |     
     |                           x T B                           |     
     |                   =====================                   |     
     |                         S. Grimme                         |     
     |          Mulliken Center for Theoretical Chemistry        |     
     |                    University of Bonn                     |     
      -----------------------------------------------------------      

   * xtb version 6.6.1 (8d0f1dd) compiled by 'runner@Mac-1690902418499.local' on 2023-08-01

   xtb is free software: you can redistribute it and/or modify it under
   the terms of the GNU Lesser General Public License as published by
   the Free Software Foundation, either version 3 of the License, or
   (at your option) any later version.
   
   xtb is distributed in the hope that it will be useful,
   but WITHOUT ANY WARRANTY; without even the implied warranty of
   MERCHANTABILITY or FITNESS FOR A PARTICULAR PURPOSE.  See the
   GNU Lesser General Public License for more details.
   
   Cite this work as:
   * C. Bannwarth, E. Caldeweyher, S. Ehlert, A. Hansen, P. Pracht,
     J. Seibert, S. Spicher, S. Grimme, WIREs Comput. Mol. Sci., 2020, 11,
     e01493. DOI: 10.1002/wcms.1493
   
   for GFN2-xTB:
   * C. Bannwarth, S. Ehlert and S. Grimme., J. Chem. Theory Comput., 2019,
     15, 1652-1671. DOI: 10.1021/acs.jctc.8b01176
   for GFN1-xTB:
   * S. Grimme, C. Bannwarth, P. Shushkov, J. Chem. Theory Comput., 2017,
     13, 1989-2009. DOI: 10.1021/acs.jctc.7b00118
   for GFN0-xTB:
   * P. Pracht, E. Caldeweyher, S. Ehlert, S. Grimme, ChemRxiv, 2019, preprint.
     DOI: 10.26434/chemrxiv.8326202.v1
   for GFN-FF:
   * S. Spicher and S. Grimme, Angew. Chem. Int. Ed., 2020, 59, 15665-15673.
     DOI: 10.1002/anie.202004239
   
   for ALPB and GBSA implicit solvation:
   * S. Ehlert, M. Stahn, S. Spicher, S. Grimme, J. Chem. Theory Comput.,
     2021, 17, 4250-4261. DOI: 10.1021/acs.jctc.1c00471
   
   for DFT-D4:
   * E. Caldeweyher, C. Bannwarth and S. Grimme, J. Chem. Phys., 2017,
     147, 034112. DOI: 10.1063/1.4993215
   * E. Caldeweyher, S. Ehlert, A. Hansen, H. Neugebauer, S. Spicher,
     C. Bannwarth and S. Grimme, J. Chem. Phys., 2019, 150, 154122.
     DOI: 10.1063/1.5090222
   * E. Caldeweyher, J.-M. Mewes, S. Ehlert and S. Grimme, Phys. Chem. Chem. Phys.
     2020, 22, 8499-8512. DOI: 10.1039/D0CP00502A
   
   for sTDA-xTB:
   * S. Grimme and C. Bannwarth, J. Chem. Phys., 2016, 145, 054103.
     DOI: 10.1063/1.4959605
   
   in the mass-spec context:
   * V. Asgeirsson, C. Bauer and S. Grimme, Chem. Sci., 2017, 8, 4879.
     DOI: 10.1039/c7sc00601b
   * J. Koopman and S. Grimme, ACS Omega 2019, 4, 12, 15120-15133.
     DOI: 10.1021/acsomega.9b02011
   
   for metadynamics refer to:
   * S. Grimme, J. Chem. Theory Comput., 2019, 155, 2847-2862
     DOI: 10.1021/acs.jctc.9b00143
   
   for SPH calculations refer to:
   * S. Spicher and S. Grimme, J. Chem. Theory Comput., 2021, 17, 1701-1714
     DOI: 10.1021/acs.jctc.0c01306
   
   with help from (in alphabetical order)
   P. Atkinson, C. Bannwarth, F. Bohle, G. Brandenburg, E. Caldeweyher
   M. Checinski, S. Dohm, S. Ehlert, S. Ehrlich, I. Gerasimov, C. Hölzer
   A. Katbashev, J. Koopman, C. Lavigne, S. Lehtola, F. März, M. Müller,
   F. Musil, H. Neugebauer, J. Pisarek, C. Plett, P. Pracht, F. Pultar,
   J. Seibert, P. Shushkov, S. Spicher, M. Stahn, M. Steiner, T. Strunk,
   J. Stückrath, T. Rose, and J. Unsleber
   
 * started run on 2024/11/14 at 13:49:05.350     

           -------------------------------------------------
          |                Calculation Setup                |
           -------------------------------------------------

          program call               : xtb opt_cation_Verdazyl5.mol --gfn2 --sp --chrg 1 --uhf 0
          coordinate file            : opt_cation_Verdazyl5.mol
          omp threads                :                     8

   ID    Z sym.   atoms
    1    6 C      1-18, 29, 32, 37-50
    2    1 H      19-28, 51-61
    3    7 N      30, 31, 33, 34
    4    8 O      35
    5   16 S      36
########################################################################
[WARNING] Please study the warnings concerning your input carefully
-1- prog_main: Charge in sdf/mol input was overwritten
########################################################################

           -------------------------------------------------
          |                 G F N 2 - x T B                 |
           -------------------------------------------------

        Reference                      10.1021/acs.jctc.8b01176
      * Hamiltonian:
        H0-scaling (s, p, d)           1.850000    2.230000    2.230000
        zeta-weighting                 0.500000
      * Dispersion:
        s8                             2.700000
        a1                             0.520000
        a2                             5.000000
        s9                             5.000000
      * Repulsion:
        kExp                           1.500000    1.000000
        rExp                           1.000000
      * Coulomb:
        alpha                          2.000000
        third order                    shell-resolved
        anisotropic                    true
        a3                             3.000000
        a5                             4.000000
        cn-shift                       1.200000
        cn-exp                         4.000000
        max-rad                        5.000000

q/qsh data taken from xtbrestart
CAMM data taken from xtbrestart

          ...................................................
          :                      SETUP                      :
          :.................................................:
          :  # basis functions                 187          :
          :  # atomic orbitals                 186          :
          :  # shells                          102          :
          :  # electrons                       188          :
          :  max. iterations                   250          :
          :  Hamiltonian                  GFN2-xTB          :
          :  restarted?                       true          :
          :  GBSA solvation                  false          :
          :  PC potential                    false          :
          :  electronic temp.          300.0000000     K    :
          :  accuracy                    1.0000000          :
          :  -> integral cutoff          0.2500000E+02      :
          :  -> integral neglect         0.1000000E-07      :
          :  -> SCF convergence          0.1000000E-05 Eh   :
          :  -> wf. convergence          0.1000000E-03 e    :
          :  Broyden damping             0.4000000          :
          ...................................................

 iter      E             dE          RMSdq      gap      omega  full diag
   1   -103.6850319 -0.103685E+03  0.162E+00    1.00       0.0  T
   2   -103.2630412  0.421991E+00  0.210E+00    0.20       1.0  T
   3   -103.7794237 -0.516382E+00  0.955E-01    1.32       1.0  T
   4   -103.8239012 -0.444776E-01  0.627E-01    1.04       1.0  T
   5   -103.8385752 -0.146740E-01  0.388E-01    0.23       1.0  T
   6   -103.3569838  0.481591E+00  0.172E+00    0.21       1.0  T
   7   -103.8426410 -0.485657E+00  0.267E-01    0.17       1.0  T
   8   -103.8384546  0.418641E-02  0.274E-01    0.23       1.0  T
   9   -103.8443827 -0.592803E-02  0.184E-01    0.16       1.0  T
  10   -103.8495089 -0.512622E-02  0.619E-02    0.11       1.0  T
  11   -103.8497682 -0.259287E-03  0.470E-02    0.11       1.0  T
  12   -103.8498352 -0.670552E-04  0.405E-02    0.10       1.0  T
  13   -103.8500929 -0.257684E-03  0.915E-03    0.09       1.4  T
  14   -103.8500929  0.738754E-08  0.807E-03    0.10       1.6  T
  15   -103.8501027 -0.982647E-05  0.127E-03    0.10      10.1  T
  16   -103.8501025  0.195716E-06  0.152E-03    0.10       8.4  T
  17   -103.8501028 -0.319487E-06  0.373E-04    0.10      34.3  T
  18   -103.8501028  0.650618E-07  0.712E-04    0.10      18.0  T

   *** convergence criteria satisfied after 18 iterations ***

         #    Occupation            Energy/Eh            Energy/eV
      -------------------------------------------------------------
         1        2.0000           -0.8644651             -23.5233
       ...           ...                  ...                  ...
        88        2.0000           -0.5068316             -13.7916
        89        2.0000           -0.5049812             -13.7412
        90        2.0000           -0.5042982             -13.7227
        91        2.0000           -0.4959177             -13.4946
        92        2.0000           -0.4819420             -13.1143
        93        1.9993           -0.4703406             -12.7986
        94        1.7282           -0.4645654             -12.6415 (HOMO)
        95        0.2725           -0.4610533             -12.5459 (LUMO)
        96                         -0.3952454             -10.7552
        97                         -0.3676362             -10.0039
        98                         -0.3640642              -9.9067
        99                         -0.3480053              -9.4697
       ...                                ...                  ...
       186                          0.6197653              16.8647
      -------------------------------------------------------------
                  HL-Gap            0.0035121 Eh            0.0956 eV
             Fermi-level           -0.4628079 Eh          -12.5936 eV

 SCC (total)                   0 d,  0 h,  0 min,  0.540 sec
 SCC setup                      ...        0 min,  0.000 sec (  0.031%)
 Dispersion                     ...        0 min,  0.000 sec (  0.087%)
 classical contributions        ...        0 min,  0.000 sec (  0.019%)
 integral evaluation            ...        0 min,  0.002 sec (  0.426%)
 iterations                     ...        0 min,  0.525 sec ( 97.343%)
 molecular gradient             ...        0 min,  0.011 sec (  1.983%)
 printout                       ...        0 min,  0.001 sec (  0.111%)

         :::::::::::::::::::::::::::::::::::::::::::::::::::::
         ::                     SUMMARY                     ::
         :::::::::::::::::::::::::::::::::::::::::::::::::::::
         :: total energy            -102.108817437443 Eh    ::
         :: gradient norm              0.040551396789 Eh/a0 ::
         :: HOMO-LUMO gap              0.095568692789 eV    ::
         ::.................................................::
         :: SCC energy              -103.850102776994 Eh    ::
         :: -> isotropic ES            0.086036020620 Eh    ::
         :: -> anisotropic ES         -0.006811380804 Eh    ::
         :: -> anisotropic XC          0.064763384537 Eh    ::
         :: -> dispersion             -0.085142355506 Eh    ::
         :: repulsion energy           1.741565579388 Eh    ::
         :: add. restraining           0.000000000000 Eh    ::
         :: total charge               0.999997902724 e     ::
         :::::::::::::::::::::::::::::::::::::::::::::::::::::

           -------------------------------------------------
          |                Property Printout                |
           -------------------------------------------------

    * Orbital Energies and Occupations

         #    Occupation            Energy/Eh            Energy/eV
      -------------------------------------------------------------
         1        2.0000           -0.8644651             -23.5233
       ...           ...                  ...                  ...
        82        2.0000           -0.5254714             -14.2988
        83        2.0000           -0.5233243             -14.2404
        84        2.0000           -0.5212110             -14.1829
        85        2.0000           -0.5204450             -14.1620
        86        2.0000           -0.5156734             -14.0322
        87        2.0000           -0.5110085             -13.9052
        88        2.0000           -0.5068316             -13.7916
        89        2.0000           -0.5049812             -13.7412
        90        2.0000           -0.5042982             -13.7227
        91        2.0000           -0.4959177             -13.4946
        92        2.0000           -0.4819420             -13.1143
        93        1.9993           -0.4703406             -12.7986
        94        1.7282           -0.4645654             -12.6415 (HOMO)
        95        0.2725           -0.4610533             -12.5459 (LUMO)
        96                         -0.3952454             -10.7552
        97                         -0.3676362             -10.0039
        98                         -0.3640642              -9.9067
        99                         -0.3480053              -9.4697
       100                         -0.3371411              -9.1741
       101                         -0.3366581              -9.1609
       102                         -0.3349941              -9.1157
       103                         -0.3257150              -8.8632
       104                         -0.3208593              -8.7310
       105                         -0.3051469              -8.3035
       ...                                ...                  ...
       186                          0.6197653              16.8647
      -------------------------------------------------------------
                  HL-Gap            0.0035121 Eh            0.0956 eV
             Fermi-level           -0.4628079 Eh          -12.5936 eV

     #   Z          covCN         q      C6AA      α(0)
     1   6 C        2.976     0.013    27.718     8.636
     2   6 C        2.986     0.006    27.881     8.661
     3   6 C        2.979     0.012    27.745     8.640
     4   6 C        2.984     0.023    27.474     8.598
     5   6 C        2.986     0.021    27.530     8.607
     6   6 C        2.985     0.019    27.577     8.614
     7   6 C        2.914    -0.028    28.709     8.786
     8   6 C        2.915    -0.029    28.719     8.788
     9   6 C        2.916    -0.029    28.718     8.788
    10   6 C        2.915    -0.023    28.578     8.766
    11   6 C        2.991     0.029    27.353     8.579
    12   6 C        2.921    -0.026    28.661     8.779
    13   6 C        2.920    -0.031    28.772     8.796
    14   6 C        2.921    -0.025    28.629     8.774
    15   6 C        3.151     0.006    27.598     8.592
    16   6 C        2.915    -0.023    28.568     8.765
    17   6 C        2.910    -0.027    28.672     8.780
    18   6 C        2.913    -0.023    28.574     8.765
    19   1 H        0.926     0.057     2.231     2.336
    20   1 H        0.926     0.056     2.243     2.342
    21   1 H        0.926     0.057     2.238     2.339
    22   1 H        0.926     0.056     2.246     2.344
    23   1 H        0.926     0.043     2.411     2.428
    24   1 H        0.926     0.060     2.203     2.321
    25   1 H        0.926     0.053     2.286     2.365
    26   1 H        0.926     0.047     2.357     2.401
    27   1 H        0.926     0.058     2.225     2.333
    28   1 H        0.926     0.050     2.316     2.380
    29   6 C        2.912     0.160    24.553     8.125
    30   7 N        1.937    -0.182    25.732     7.522
    31   7 N        2.850     0.087    19.736     6.598
    32   6 C        2.705     0.295    22.000     7.677
    33   7 N        2.852     0.090    19.683     6.589
    34   7 N        1.938    -0.183    25.761     7.526
    35   8 O        0.858    -0.372    21.126     6.162
    36  16 S        2.280     0.010   140.655    19.961
    37   6 C        3.003     0.007    27.857     8.658
    38   6 C        3.062    -0.039    28.912     8.817
    39   6 C        2.935     0.060    26.662     8.468
    40   6 C        2.915    -0.024    28.598     8.769
    41   6 C        2.918    -0.016    28.411     8.741
    42   6 C        2.918    -0.010    28.268     8.719
    43   6 C        2.917    -0.017    28.424     8.743
    44   6 C        2.921    -0.025    28.616     8.772
    45   6 C        2.934     0.060    26.652     8.467
    46   6 C        2.921    -0.025    28.635     8.775
    47   6 C        2.917    -0.017    28.436     8.744
    48   6 C        2.918    -0.011    28.281     8.721
    49   6 C        2.918    -0.017    28.425     8.743
    50   6 C        2.916    -0.025    28.635     8.775
    51   1 H        0.926     0.074     2.041     2.234
    52   1 H        0.926     0.067     2.118     2.276
    53   1 H        0.926     0.070     2.082     2.256
    54   1 H        0.926     0.071     2.074     2.252
    55   1 H        0.926     0.079     1.990     2.206
    56   1 H        0.926     0.078     2.005     2.214
    57   1 H        0.926     0.072     2.067     2.248
    58   1 H        0.926     0.072     2.068     2.249
    59   1 H        0.926     0.069     2.095     2.264
    60   1 H        0.926     0.071     2.069     2.250
    61   1 H        0.926     0.069     2.096     2.264

 Mol. C6AA /au·bohr⁶  :      60380.046190
 Mol. C8AA /au·bohr⁸  :    1600433.001307
 Mol. α(0) /au        :        397.090843


Wiberg/Mayer (AO) data.
largest (>0.10) Wiberg bond orders for each atom

 ---------------------------------------------------------------------------
     #   Z sym  total        # sym  WBO       # sym  WBO       # sym  WBO
 ---------------------------------------------------------------------------
     1   6 C    3.922 --     4 C    1.273     2 C    1.231     3 C    1.183
     2   6 C    3.979 --    11 C    1.261     5 C    1.251     1 C    1.231
     3   6 C    3.984 --    12 C    1.334     6 C    1.254     1 C    1.183
     4   6 C    3.955 --     1 C    1.273     8 C    1.263     7 C    1.242
     5   6 C    3.960 --    13 C    1.284     2 C    1.251     9 C    1.235
     6   6 C    3.983 --    14 C    1.311     3 C    1.254    10 C    1.238
     7   6 C    3.962 --     9 C    1.597     4 C    1.242    19 H    0.964
     8   6 C    3.957 --    10 C    1.565     4 C    1.263    20 H    0.964
     9   6 C    3.958 --     7 C    1.597     5 C    1.235    21 H    0.965
    10   6 C    3.916 --     8 C    1.565     6 C    1.238    22 H    0.966
    11   6 C    3.925 --    15 C    1.294     2 C    1.261    36 S    1.149
    12   6 C    3.946 --    16 C    1.472     3 C    1.334    23 H    0.965
    13   6 C    3.959 --    17 C    1.547     5 C    1.284    24 H    0.965
    14   6 C    3.934 --    18 C    1.488     6 C    1.311    25 H    0.967
    15   6 C    3.978 --    11 C    1.294    17 C    1.265    38 C    1.243
    16   6 C    3.962 --    12 C    1.472    18 C    1.380    26 H    0.969
    17   6 C    3.939 --    13 C    1.547    15 C    1.265    27 H    0.966
    18   6 C    3.968 --    14 C    1.488    16 C    1.380    28 H    0.969
    19   1 H    0.996 --     7 C    0.964
    20   1 H    0.996 --     8 C    0.964
    21   1 H    0.995 --     9 C    0.965
    22   1 H    0.995 --    10 C    0.966
    23   1 H    0.997 --    12 C    0.965
    24   1 H    0.995 --    13 C    0.965
    25   1 H    0.996 --    14 C    0.967
    26   1 H    0.997 --    16 C    0.969
    27   1 H    0.996 --    17 C    0.966
    28   1 H    0.997 --    18 C    0.969
    29   6 C    3.960 --    30 N    1.344    34 N    1.330    37 C    1.112
    30   7 N    2.916 --    29 C    1.344    31 N    1.246
    31   7 N    3.632 --    30 N    1.246    32 C    1.049    45 C    1.045
                            35 O    0.127
    32   6 C    3.956 --    35 O    1.709    31 N    1.049    33 N    1.040
    33   7 N    3.633 --    34 N    1.257    39 C    1.045    32 C    1.040
                            35 O    0.125
    34   7 N    2.912 --    29 C    1.330    33 N    1.257
    35   8 O    2.071 --    32 C    1.709    31 N    0.127    33 N    0.125
    36  16 S    2.592 --    11 C    1.149    37 C    1.109    38 C    0.103
    37   6 C    3.938 --    38 C    1.533    29 C    1.112    36 S    1.109
    38   6 C    3.967 --    37 C    1.533    15 C    1.243    61 H    0.959
                            36 S    0.103
    39   6 C    3.935 --    40 C    1.348    44 C    1.335    33 N    1.045
    40   6 C    3.965 --    41 C    1.463    39 C    1.348    56 H    0.962
    41   6 C    3.984 --    40 C    1.463    42 C    1.422    57 H    0.966
    42   6 C    3.941 --    41 C    1.422    43 C    1.409    58 H    0.968
Note: The following floating-point exceptions are signalling: IEEE_UNDERFLOW_FLAG
normal termination of xtb
    43   6 C    3.984 --    44 C    1.477    42 C    1.409    59 H    0.966
    44   6 C    3.963 --    43 C    1.477    39 C    1.335    60 H    0.961
    45   6 C    3.935 --    50 C    1.348    46 C    1.336    31 N    1.045
    46   6 C    3.963 --    47 C    1.477    45 C    1.336    51 H    0.961
                            49 C    0.100
    47   6 C    3.984 --    46 C    1.477    48 C    1.409    52 H    0.966
    48   6 C    3.940 --    49 C    1.422    47 C    1.409    53 H    0.968
    49   6 C    3.984 --    50 C    1.462    48 C    1.422    54 H    0.966
                            46 C    0.100
    50   6 C    3.964 --    49 C    1.462    45 C    1.348    55 H    0.961
    51   1 H    0.994 --    46 C    0.961
    52   1 H    0.994 --    47 C    0.966
    53   1 H    0.995 --    48 C    0.968
    54   1 H    0.994 --    49 C    0.966
    55   1 H    0.994 --    50 C    0.961
    56   1 H    0.994 --    40 C    0.962
    57   1 H    0.993 --    41 C    0.966
    58   1 H    0.995 --    42 C    0.968
    59   1 H    0.994 --    43 C    0.966
    60   1 H    0.995 --    44 C    0.961
    61   1 H    0.995 --    38 C    0.959
 ---------------------------------------------------------------------------

Topologies differ in bond orders
Writing corrected topology to xtbtopo.mol

molecular dipole:
                 x           y           z       tot (Debye)
 q only:       -2.522       0.395       1.270
   full:       -2.579       0.172       1.265       7.314
molecular quadrupole (traceless):
                xx          xy          yy          xz          yz          zz
 q only:       41.350      22.842      26.434      -4.256       6.234     -67.783
  q+dip:       46.446      22.221      29.819       2.637       8.544     -76.266
   full:       41.837      23.422      23.056      -1.576       5.255     -64.892


           -------------------------------------------------
          | TOTAL ENERGY             -102.108817437443 Eh   |
          | GRADIENT NORM               0.040551396789 Eh/α |
          | HOMO-LUMO GAP               0.095568692789 eV   |
           -------------------------------------------------
########################################################################
[WARNING] Runtime exception occurred
-1- restart_readRestart: Number of electron missmatch in restart file.
########################################################################

------------------------------------------------------------------------
 * finished run on 2024/11/14 at 13:49:05.900     
------------------------------------------------------------------------
 total:
 * wall-time:     0 d,  0 h,  0 min,  0.550 sec
 *  cpu-time:     0 d,  0 h,  0 min,  1.866 sec
 * ratio c/w:     3.394 speedup
 SCF:
 * wall-time:     0 d,  0 h,  0 min,  0.540 sec
 *  cpu-time:     0 d,  0 h,  0 min,  1.853 sec
 * ratio c/w:     3.431 speedup

