      -----------------------------------------------------------      
     |                   =====================                   |     
     |                           x T B                           |     
     |                   =====================                   |     
     |                         S. Grimme                         |     
     |          Mulliken Center for Theoretical Chemistry        |     
     |                    University of Bonn                     |     
      -----------------------------------------------------------      

   * xtb version 6.6.1 (8d0f1dd) compiled by 'runner@Mac-1690902418499.local' on 2023-08-01

   xtb is free software: you can redistribute it and/or modify it under
   the terms of the GNU Lesser General Public License as published by
   the Free Software Foundation, either version 3 of the License, or
   (at your option) any later version.
   
   xtb is distributed in the hope that it will be useful,
   but WITHOUT ANY WARRANTY; without even the implied warranty of
   MERCHANTABILITY or FITNESS FOR A PARTICULAR PURPOSE.  See the
   GNU Lesser General Public License for more details.
   
   Cite this work as:
   * C. Bannwarth, E. Caldeweyher, S. Ehlert, A. Hansen, P. Pracht,
     J. Seibert, S. Spicher, S. Grimme, WIREs Comput. Mol. Sci., 2020, 11,
     e01493. DOI: 10.1002/wcms.1493
   
   for GFN2-xTB:
   * C. Bannwarth, S. Ehlert and S. Grimme., J. Chem. Theory Comput., 2019,
     15, 1652-1671. DOI: 10.1021/acs.jctc.8b01176
   for GFN1-xTB:
   * S. Grimme, C. Bannwarth, P. Shushkov, J. Chem. Theory Comput., 2017,
     13, 1989-2009. DOI: 10.1021/acs.jctc.7b00118
   for GFN0-xTB:
   * P. Pracht, E. Caldeweyher, S. Ehlert, S. Grimme, ChemRxiv, 2019, preprint.
     DOI: 10.26434/chemrxiv.8326202.v1
   for GFN-FF:
   * S. Spicher and S. Grimme, Angew. Chem. Int. Ed., 2020, 59, 15665-15673.
     DOI: 10.1002/anie.202004239
   
   for ALPB and GBSA implicit solvation:
   * S. Ehlert, M. Stahn, S. Spicher, S. Grimme, J. Chem. Theory Comput.,
     2021, 17, 4250-4261. DOI: 10.1021/acs.jctc.1c00471
   
   for DFT-D4:
   * E. Caldeweyher, C. Bannwarth and S. Grimme, J. Chem. Phys., 2017,
     147, 034112. DOI: 10.1063/1.4993215
   * E. Caldeweyher, S. Ehlert, A. Hansen, H. Neugebauer, S. Spicher,
     C. Bannwarth and S. Grimme, J. Chem. Phys., 2019, 150, 154122.
     DOI: 10.1063/1.5090222
   * E. Caldeweyher, J.-M. Mewes, S. Ehlert and S. Grimme, Phys. Chem. Chem. Phys.
     2020, 22, 8499-8512. DOI: 10.1039/D0CP00502A
   
   for sTDA-xTB:
   * S. Grimme and C. Bannwarth, J. Chem. Phys., 2016, 145, 054103.
     DOI: 10.1063/1.4959605
   
   in the mass-spec context:
   * V. Asgeirsson, C. Bauer and S. Grimme, Chem. Sci., 2017, 8, 4879.
     DOI: 10.1039/c7sc00601b
   * J. Koopman and S. Grimme, ACS Omega 2019, 4, 12, 15120-15133.
     DOI: 10.1021/acsomega.9b02011
   
   for metadynamics refer to:
   * S. Grimme, J. Chem. Theory Comput., 2019, 155, 2847-2862
     DOI: 10.1021/acs.jctc.9b00143
   
   for SPH calculations refer to:
   * S. Spicher and S. Grimme, J. Chem. Theory Comput., 2021, 17, 1701-1714
     DOI: 10.1021/acs.jctc.0c01306
   
   with help from (in alphabetical order)
   P. Atkinson, C. Bannwarth, F. Bohle, G. Brandenburg, E. Caldeweyher
   M. Checinski, S. Dohm, S. Ehlert, S. Ehrlich, I. Gerasimov, C. Hölzer
   A. Katbashev, J. Koopman, C. Lavigne, S. Lehtola, F. März, M. Müller,
   F. Musil, H. Neugebauer, J. Pisarek, C. Plett, P. Pracht, F. Pultar,
   J. Seibert, P. Shushkov, S. Spicher, M. Stahn, M. Steiner, T. Strunk,
   J. Stückrath, T. Rose, and J. Unsleber
   
 * started run on 2024/11/14 at 13:49:05.921     

           -------------------------------------------------
          |                Calculation Setup                |
           -------------------------------------------------

          program call               : xtb opt_cation_Verdazyl5.mol --gfn2 --sp --chrg 0 --uhf 1
          coordinate file            : opt_cation_Verdazyl5.mol
          omp threads                :                     8

   ID    Z sym.   atoms
    1    6 C      1-18, 29, 32, 37-50
    2    1 H      19-28, 51-61
    3    7 N      30, 31, 33, 34
    4    8 O      35
    5   16 S      36
########################################################################
[WARNING] Please study the warnings concerning your input carefully
-1- prog_main: Charge in sdf/mol input was overwritten
########################################################################

           -------------------------------------------------
          |                 G F N 2 - x T B                 |
           -------------------------------------------------

        Reference                      10.1021/acs.jctc.8b01176
      * Hamiltonian:
        H0-scaling (s, p, d)           1.850000    2.230000    2.230000
        zeta-weighting                 0.500000
      * Dispersion:
        s8                             2.700000
        a1                             0.520000
        a2                             5.000000
        s9                             5.000000
      * Repulsion:
        kExp                           1.500000    1.000000
        rExp                           1.000000
      * Coulomb:
        alpha                          2.000000
        third order                    shell-resolved
        anisotropic                    true
        a3                             3.000000
        a5                             4.000000
        cn-shift                       1.200000
        cn-exp                         4.000000
        max-rad                        5.000000

q/qsh data taken from xtbrestart
CAMM data taken from xtbrestart

          ...................................................
          :                      SETUP                      :
          :.................................................:
          :  # basis functions                 187          :
          :  # atomic orbitals                 186          :
          :  # shells                          102          :
          :  # electrons                       189          :
          :  max. iterations                   250          :
          :  Hamiltonian                  GFN2-xTB          :
          :  restarted?                       true          :
          :  GBSA solvation                  false          :
          :  PC potential                    false          :
          :  electronic temp.          300.0000000     K    :
          :  accuracy                    1.0000000          :
          :  -> integral cutoff          0.2500000E+02      :
          :  -> integral neglect         0.1000000E-07      :
          :  -> SCF convergence          0.1000000E-05 Eh   :
          :  -> wf. convergence          0.1000000E-03 e    :
          :  Broyden damping             0.4000000          :
          ...................................................

 iter      E             dE          RMSdq      gap      omega  full diag
   1   -104.2131708 -0.104213E+03  0.641E-01    1.79       0.0  T
   2   -104.2405209 -0.273501E-01  0.474E-01    1.01       1.0  T
   3   -104.2487786 -0.825769E-02  0.230E-01    1.21       1.0  T
   4   -104.2487569  0.216899E-04  0.185E-01    1.23       1.0  T
   5   -104.2492496 -0.492666E-03  0.660E-02    1.26       1.0  T
   6   -104.2492743 -0.247179E-04  0.286E-02    1.26       1.0  T
   7   -104.2493225 -0.482371E-04  0.752E-03    1.25       1.7  T
   8   -104.2493248 -0.224683E-05  0.327E-03    1.25       3.9  T
   9   -104.2493250 -0.228880E-06  0.173E-03    1.26       7.4  T
  10   -104.2493251 -0.704007E-07  0.756E-04    1.26      16.9  T
  11   -104.2493251 -0.169068E-07  0.324E-04    1.26      39.5  T

   *** convergence criteria satisfied after 11 iterations ***

         #    Occupation            Energy/Eh            Energy/eV
      -------------------------------------------------------------
         1        2.0000           -0.7360958             -20.0302
       ...           ...                  ...                  ...
        89        2.0000           -0.4037552             -10.9867
        90        2.0000           -0.3904816             -10.6255
        91        2.0000           -0.3830580             -10.4235
        92        2.0000           -0.3732335             -10.1562
        93        2.0000           -0.3703250             -10.0771
        94        2.0000           -0.3679410             -10.0122
        95        1.0000           -0.3267517              -8.8914 (HOMO)
        96                         -0.2806213              -7.6361 (LUMO)
        97                         -0.2706885              -7.3658
        98                         -0.2542318              -6.9180
        99                         -0.2452538              -6.6737
       100                         -0.2306102              -6.2752
       ...                                ...                  ...
       186                          0.7172432              19.5172
      -------------------------------------------------------------
                  HL-Gap            0.0461304 Eh            1.2553 eV
             Fermi-level           -0.3254970 Eh           -8.8572 eV

 SCC (total)                   0 d,  0 h,  0 min,  0.362 sec
 SCC setup                      ...        0 min,  0.000 sec (  0.045%)
 Dispersion                     ...        0 min,  0.000 sec (  0.122%)
 classical contributions        ...        0 min,  0.000 sec (  0.029%)
 integral evaluation            ...        0 min,  0.002 sec (  0.646%)
 iterations                     ...        0 min,  0.330 sec ( 91.070%)
 molecular gradient             ...        0 min,  0.010 sec (  2.890%)
 printout                       ...        0 min,  0.019 sec (  5.193%)

         :::::::::::::::::::::::::::::::::::::::::::::::::::::
         ::                     SUMMARY                     ::
         :::::::::::::::::::::::::::::::::::::::::::::::::::::
         :: total energy            -102.508039747784 Eh    ::
         :: gradient norm              0.104425131430 Eh/a0 ::
         :: HOMO-LUMO gap              1.255272403752 eV    ::
         ::.................................................::
         :: SCC energy              -104.249325087335 Eh    ::
         :: -> isotropic ES            0.048221568117 Eh    ::
         :: -> anisotropic ES          0.006613309911 Eh    ::
         :: -> anisotropic XC          0.060764260208 Eh    ::
         :: -> dispersion             -0.087044614186 Eh    ::
         :: repulsion energy           1.741565579388 Eh    ::
         :: add. restraining           0.000000000000 Eh    ::
         :: total charge              -0.000027316052 e     ::
         :::::::::::::::::::::::::::::::::::::::::::::::::::::

           -------------------------------------------------
          |                Property Printout                |
           -------------------------------------------------

    * Orbital Energies and Occupations

         #    Occupation            Energy/Eh            Energy/eV
      -------------------------------------------------------------
         1        2.0000           -0.7360958             -20.0302
       ...           ...                  ...                  ...
        83        2.0000           -0.4185983             -11.3906
        84        2.0000           -0.4139647             -11.2646
        85        2.0000           -0.4139257             -11.2635
        86        2.0000           -0.4128195             -11.2334
        87        2.0000           -0.4115114             -11.1978
        88        2.0000           -0.4105428             -11.1714
        89        2.0000           -0.4037552             -10.9867
        90        2.0000           -0.3904816             -10.6255
        91        2.0000           -0.3830580             -10.4235
        92        2.0000           -0.3732335             -10.1562
        93        2.0000           -0.3703250             -10.0771
        94        2.0000           -0.3679410             -10.0122
        95        1.0000           -0.3267517              -8.8914 (HOMO)
        96                         -0.2806213              -7.6361 (LUMO)
        97                         -0.2706885              -7.3658
        98                         -0.2542318              -6.9180
        99                         -0.2452538              -6.6737
       100                         -0.2306102              -6.2752
       101                         -0.2285395              -6.2189
       102                         -0.2282072              -6.2098
       103                         -0.2227155              -6.0604
       104                         -0.2148572              -5.8466
       105                         -0.2005626              -5.4576
       106                         -0.1941681              -5.2836
       ...                                ...                  ...
       186                          0.7172432              19.5172
      -------------------------------------------------------------
                  HL-Gap            0.0461304 Eh            1.2553 eV
             Fermi-level           -0.3254970 Eh           -8.8572 eV

     #   Z          covCN         q      C6AA      α(0)
     1   6 C        2.976     0.003    27.962     8.674
     2   6 C        2.986     0.002    27.979     8.677
     3   6 C        2.979     0.010    27.789     8.647
     4   6 C        2.984     0.011    27.752     8.641
     5   6 C        2.986     0.010    27.792     8.648
     6   6 C        2.985     0.013    27.708     8.635
     7   6 C        2.914    -0.037    28.914     8.817
     8   6 C        2.915    -0.038    28.936     8.821
     9   6 C        2.916    -0.037    28.927     8.820
    10   6 C        2.915    -0.037    28.920     8.818
    11   6 C        2.991     0.023    27.479     8.599
    12   6 C        2.921    -0.031    28.775     8.797
    13   6 C        2.920    -0.041    29.022     8.834
    14   6 C        2.921    -0.036    28.895     8.815
    15   6 C        3.151     0.000    27.738     8.614
    16   6 C        2.915    -0.029    28.723     8.788
    17   6 C        2.910    -0.037    28.911     8.817
    18   6 C        2.913    -0.029    28.735     8.790
    19   1 H        0.926     0.035     2.523     2.484
    20   1 H        0.926     0.033     2.542     2.493
    21   1 H        0.926     0.034     2.524     2.484
    22   1 H        0.926     0.033     2.548     2.496
    23   1 H        0.926     0.035     2.518     2.481
    24   1 H        0.926     0.036     2.498     2.471
    25   1 H        0.926     0.032     2.556     2.500
    26   1 H        0.926     0.032     2.554     2.499
    27   1 H        0.926     0.038     2.476     2.461
    28   1 H        0.926     0.031     2.568     2.506
    29   6 C        2.912     0.154    24.660     8.143
    30   7 N        1.937    -0.240    27.098     7.719
    31   7 N        2.850     0.046    20.434     6.714
    32   6 C        2.705     0.296    21.978     7.673
    33   7 N        2.852     0.048    20.399     6.708
    34   7 N        1.938    -0.245    27.240     7.739
    35   8 O        0.858    -0.410    21.888     6.273
    36  16 S        2.280    -0.022   141.953    20.053
    37   6 C        3.003     0.015    27.674     8.629
    38   6 C        3.062    -0.050    29.168     8.856
    39   6 C        2.935     0.060    26.662     8.468
    40   6 C        2.915    -0.036    28.897     8.815
    41   6 C        2.918    -0.026    28.652     8.778
    42   6 C        2.918    -0.031    28.784     8.798
    43   6 C        2.917    -0.027    28.667     8.780
    44   6 C        2.921    -0.035    28.883     8.813
    45   6 C        2.934     0.060    26.659     8.468
    46   6 C        2.921    -0.035    28.878     8.812
    47   6 C        2.917    -0.026    28.658     8.779
    48   6 C        2.918    -0.031    28.780     8.797
    49   6 C        2.918    -0.027    28.666     8.780
    50   6 C        2.916    -0.038    28.934     8.821
    51   1 H        0.926     0.062     2.179     2.308
    52   1 H        0.926     0.042     2.428     2.437
    53   1 H        0.926     0.039     2.468     2.457
    54   1 H        0.926     0.042     2.422     2.434
    55   1 H        0.926     0.061     2.187     2.313
    56   1 H        0.926     0.060     2.198     2.318
    57   1 H        0.926     0.043     2.413     2.429
    58   1 H        0.926     0.039     2.462     2.453
    59   1 H        0.926     0.041     2.436     2.440
    60   1 H        0.926     0.057     2.232     2.336
    61   1 H        0.926     0.055     2.252     2.347

 Mol. C6AA /au·bohr⁶  :      61871.219969
 Mol. C8AA /au·bohr⁸  :    1632172.688935
 Mol. α(0) /au        :        401.815583


Wiberg/Mayer (AO) data.
largest (>0.10) Wiberg bond orders for each atom

 ---------------------------------------------------------------------------
     #   Z sym  total        # sym  WBO       # sym  WBO       # sym  WBO
 ---------------------------------------------------------------------------
     1   6 C    3.985 --     4 C    1.302     2 C    1.223     3 C    1.188
     2   6 C    3.986 --    11 C    1.266     5 C    1.259     1 C    1.223
     3   6 C    3.988 --    12 C    1.328     6 C    1.257     1 C    1.188
     4   6 C    3.988 --     1 C    1.302     8 C    1.247     7 C    1.245
     5   6 C    3.978 --    13 C    1.276     2 C    1.259     9 C    1.244
     6   6 C    3.986 --    14 C    1.314     3 C    1.257    10 C    1.235
     7   6 C    3.968 --     9 C    1.595     4 C    1.245    19 H    0.967
     8   6 C    3.986 --    10 C    1.600     4 C    1.247    20 H    0.967
     9   6 C    3.981 --     7 C    1.595     5 C    1.244    21 H    0.967
    10   6 C    3.979 --     8 C    1.600     6 C    1.235    22 H    0.968
    11   6 C    3.946 --    15 C    1.305     2 C    1.266    36 S    1.138
    12   6 C    3.991 --    16 C    1.498     3 C    1.328    23 H    0.966
                            14 C    0.115
    13   6 C    3.985 --    17 C    1.564     5 C    1.276    24 H    0.967
    14   6 C    3.983 --    18 C    1.509     6 C    1.314    25 H    0.969
                            12 C    0.115
    15   6 C    3.983 --    11 C    1.305    17 C    1.264    38 C    1.234
    16   6 C    3.987 --    12 C    1.498    18 C    1.368    26 H    0.971
    17   6 C    3.971 --    13 C    1.564    15 C    1.264    27 H    0.968
    18   6 C    3.982 --    14 C    1.509    16 C    1.368    28 H    0.971
    19   1 H    0.998 --     7 C    0.967
    20   1 H    0.998 --     8 C    0.967
    21   1 H    0.997 --     9 C    0.967
    22   1 H    0.998 --    10 C    0.968
    23   1 H    0.998 --    12 C    0.966
    24   1 H    0.997 --    13 C    0.967
    25   1 H    0.998 --    14 C    0.969
    26   1 H    0.998 --    16 C    0.971
    27   1 H    0.998 --    17 C    0.968
    28   1 H    0.998 --    18 C    0.971
    29   6 C    3.969 --    30 N    1.361    34 N    1.345    37 C    1.093
    30   7 N    2.932 --    29 C    1.361    31 N    1.195    34 N    0.122
    31   7 N    3.630 --    30 N    1.195    32 C    1.062    45 C    1.043
                            35 O    0.123
    32   6 C    3.957 --    35 O    1.681    31 N    1.062    33 N    1.055
    33   7 N    3.630 --    34 N    1.203    32 C    1.055    39 C    1.043
                            35 O    0.122
    34   7 N    2.920 --    29 C    1.345    33 N    1.203    30 N    0.122
    35   8 O    2.038 --    32 C    1.681    31 N    0.123    33 N    0.122
    36  16 S    2.587 --    11 C    1.138    37 C    1.115
    37   6 C    3.944 --    38 C    1.558    36 S    1.115    29 C    1.093
    38   6 C    3.972 --    37 C    1.558    15 C    1.234    61 H    0.961
    39   6 C    3.951 --    40 C    1.365    44 C    1.353    33 N    1.043
    40   6 C    3.984 --    41 C    1.457    39 C    1.365    56 H    0.965
                            43 C    0.103
    41   6 C    3.990 --    40 C    1.457    42 C    1.430    57 H    0.970
                            44 C    0.103
    42   6 C    3.972 --    41 C    1.430    43 C    1.420    58 H    0.972
    43   6 C    3.991 --    44 C    1.469    42 C    1.420    59 H    0.970
                            40 C    0.103
    44   6 C    3.983 --    43 C    1.469    39 C    1.353    60 H    0.965
                            41 C    0.103
    45   6 C    3.951 --    50 C    1.365    46 C    1.353    31 N    1.043
Note: The following floating-point exceptions are signalling: IEEE_UNDERFLOW_FLAG
normal termination of xtb
    46   6 C    3.983 --    47 C    1.469    45 C    1.353    51 H    0.964
                            49 C    0.104
    47   6 C    3.990 --    46 C    1.469    48 C    1.420    52 H    0.970
                            50 C    0.103
    48   6 C    3.972 --    49 C    1.431    47 C    1.420    53 H    0.972
    49   6 C    3.990 --    50 C    1.456    48 C    1.431    54 H    0.970
                            46 C    0.104
    50   6 C    3.984 --    49 C    1.456    45 C    1.365    55 H    0.964
                            47 C    0.103
    51   1 H    0.996 --    46 C    0.964
    52   1 H    0.998 --    47 C    0.970
    53   1 H    0.998 --    48 C    0.972
    54   1 H    0.998 --    49 C    0.970
    55   1 H    0.996 --    50 C    0.964
    56   1 H    0.996 --    40 C    0.965
    57   1 H    0.998 --    41 C    0.970
    58   1 H    0.998 --    42 C    0.972
    59   1 H    0.998 --    43 C    0.970
    60   1 H    0.997 --    44 C    0.965
    61   1 H    0.996 --    38 C    0.961
 ---------------------------------------------------------------------------

Topologies differ in bond orders
Writing corrected topology to xtbtopo.mol

molecular dipole:
                 x           y           z       tot (Debye)
 q only:        0.619       0.162      -0.330
   full:        0.498      -0.075      -0.311       1.504
molecular quadrupole (traceless):
                xx          xy          yy          xz          yz          zz
 q only:       -3.887      -2.338      16.232       8.658       4.128     -12.345
  q+dip:        2.118      -3.356      19.960      15.767       6.690     -22.078
   full:       -2.075      -2.182      13.668      11.674       3.637     -11.593


           -------------------------------------------------
          | TOTAL ENERGY             -102.508039747784 Eh   |
          | GRADIENT NORM               0.104425131430 Eh/α |
          | HOMO-LUMO GAP               1.255272403752 eV   |
           -------------------------------------------------
########################################################################
[WARNING] Runtime exception occurred
-2- restart_readRestart: Multiplicity missmatch in restart file.
-1- restart_readRestart: Number of electron missmatch in restart file.
########################################################################

------------------------------------------------------------------------
 * finished run on 2024/11/14 at 13:49:06.292     
------------------------------------------------------------------------
 total:
 * wall-time:     0 d,  0 h,  0 min,  0.371 sec
 *  cpu-time:     0 d,  0 h,  0 min,  1.298 sec
 * ratio c/w:     3.500 speedup
 SCF:
 * wall-time:     0 d,  0 h,  0 min,  0.362 sec
 *  cpu-time:     0 d,  0 h,  0 min,  1.285 sec
 * ratio c/w:     3.544 speedup

