      -----------------------------------------------------------      
     |                   =====================                   |     
     |                           x T B                           |     
     |                   =====================                   |     
     |                         S. Grimme                         |     
     |          Mulliken Center for Theoretical Chemistry        |     
     |                    University of Bonn                     |     
      -----------------------------------------------------------      

   * xtb version 6.6.1 (8d0f1dd) compiled by 'runner@Mac-1690902418499.local' on 2023-08-01

   xtb is free software: you can redistribute it and/or modify it under
   the terms of the GNU Lesser General Public License as published by
   the Free Software Foundation, either version 3 of the License, or
   (at your option) any later version.
   
   xtb is distributed in the hope that it will be useful,
   but WITHOUT ANY WARRANTY; without even the implied warranty of
   MERCHANTABILITY or FITNESS FOR A PARTICULAR PURPOSE.  See the
   GNU Lesser General Public License for more details.
   
   Cite this work as:
   * C. Bannwarth, E. Caldeweyher, S. Ehlert, A. Hansen, P. Pracht,
     J. Seibert, S. Spicher, S. Grimme, WIREs Comput. Mol. Sci., 2020, 11,
     e01493. DOI: 10.1002/wcms.1493
   
   for GFN2-xTB:
   * C. Bannwarth, S. Ehlert and S. Grimme., J. Chem. Theory Comput., 2019,
     15, 1652-1671. DOI: 10.1021/acs.jctc.8b01176
   for GFN1-xTB:
   * S. Grimme, C. Bannwarth, P. Shushkov, J. Chem. Theory Comput., 2017,
     13, 1989-2009. DOI: 10.1021/acs.jctc.7b00118
   for GFN0-xTB:
   * P. Pracht, E. Caldeweyher, S. Ehlert, S. Grimme, ChemRxiv, 2019, preprint.
     DOI: 10.26434/chemrxiv.8326202.v1
   for GFN-FF:
   * S. Spicher and S. Grimme, Angew. Chem. Int. Ed., 2020, 59, 15665-15673.
     DOI: 10.1002/anie.202004239
   
   for ALPB and GBSA implicit solvation:
   * S. Ehlert, M. Stahn, S. Spicher, S. Grimme, J. Chem. Theory Comput.,
     2021, 17, 4250-4261. DOI: 10.1021/acs.jctc.1c00471
   
   for DFT-D4:
   * E. Caldeweyher, C. Bannwarth and S. Grimme, J. Chem. Phys., 2017,
     147, 034112. DOI: 10.1063/1.4993215
   * E. Caldeweyher, S. Ehlert, A. Hansen, H. Neugebauer, S. Spicher,
     C. Bannwarth and S. Grimme, J. Chem. Phys., 2019, 150, 154122.
     DOI: 10.1063/1.5090222
   * E. Caldeweyher, J.-M. Mewes, S. Ehlert and S. Grimme, Phys. Chem. Chem. Phys.
     2020, 22, 8499-8512. DOI: 10.1039/D0CP00502A
   
   for sTDA-xTB:
   * S. Grimme and C. Bannwarth, J. Chem. Phys., 2016, 145, 054103.
     DOI: 10.1063/1.4959605
   
   in the mass-spec context:
   * V. Asgeirsson, C. Bauer and S. Grimme, Chem. Sci., 2017, 8, 4879.
     DOI: 10.1039/c7sc00601b
   * J. Koopman and S. Grimme, ACS Omega 2019, 4, 12, 15120-15133.
     DOI: 10.1021/acsomega.9b02011
   
   for metadynamics refer to:
   * S. Grimme, J. Chem. Theory Comput., 2019, 155, 2847-2862
     DOI: 10.1021/acs.jctc.9b00143
   
   for SPH calculations refer to:
   * S. Spicher and S. Grimme, J. Chem. Theory Comput., 2021, 17, 1701-1714
     DOI: 10.1021/acs.jctc.0c01306
   
   with help from (in alphabetical order)
   P. Atkinson, C. Bannwarth, F. Bohle, G. Brandenburg, E. Caldeweyher
   M. Checinski, S. Dohm, S. Ehlert, S. Ehrlich, I. Gerasimov, C. Hölzer
   A. Katbashev, J. Koopman, C. Lavigne, S. Lehtola, F. März, M. Müller,
   F. Musil, H. Neugebauer, J. Pisarek, C. Plett, P. Pracht, F. Pultar,
   J. Seibert, P. Shushkov, S. Spicher, M. Stahn, M. Steiner, T. Strunk,
   J. Stückrath, T. Rose, and J. Unsleber
   
 * started run on 2024/11/14 at 13:49:04.160     

           -------------------------------------------------
          |                Calculation Setup                |
           -------------------------------------------------

          program call               : xtb opt_anion_Verdazyl5.mol --gfn2 --sp --chrg 0 --uhf 1
          coordinate file            : opt_anion_Verdazyl5.mol
          omp threads                :                     8

   ID    Z sym.   atoms
    1    6 C      1-18, 29, 32, 37-50
    2    1 H      19-28, 51-61
    3    7 N      30, 31, 33, 34
    4    8 O      35
    5   16 S      36
########################################################################
[WARNING] Please study the warnings concerning your input carefully
-1- prog_main: Charge in sdf/mol input was overwritten
########################################################################

           -------------------------------------------------
          |                 G F N 2 - x T B                 |
           -------------------------------------------------

        Reference                      10.1021/acs.jctc.8b01176
      * Hamiltonian:
        H0-scaling (s, p, d)           1.850000    2.230000    2.230000
        zeta-weighting                 0.500000
      * Dispersion:
        s8                             2.700000
        a1                             0.520000
        a2                             5.000000
        s9                             5.000000
      * Repulsion:
        kExp                           1.500000    1.000000
        rExp                           1.000000
      * Coulomb:
        alpha                          2.000000
        third order                    shell-resolved
        anisotropic                    true
        a3                             3.000000
        a5                             4.000000
        cn-shift                       1.200000
        cn-exp                         4.000000
        max-rad                        5.000000

q/qsh data taken from xtbrestart
CAMM data taken from xtbrestart

          ...................................................
          :                      SETUP                      :
          :.................................................:
          :  # basis functions                 187          :
          :  # atomic orbitals                 186          :
          :  # shells                          102          :
          :  # electrons                       189          :
          :  max. iterations                   250          :
          :  Hamiltonian                  GFN2-xTB          :
          :  restarted?                       true          :
          :  GBSA solvation                  false          :
          :  PC potential                    false          :
          :  electronic temp.          300.0000000     K    :
          :  accuracy                    1.0000000          :
          :  -> integral cutoff          0.2500000E+02      :
          :  -> integral neglect         0.1000000E-07      :
          :  -> SCF convergence          0.1000000E-05 Eh   :
          :  -> wf. convergence          0.1000000E-03 e    :
          :  Broyden damping             0.4000000          :
          ...................................................

 iter      E             dE          RMSdq      gap      omega  full diag
   1   -104.1819366 -0.104182E+03  0.792E-01    0.16       0.0  T
   2   -104.2157068 -0.337702E-01  0.568E-01    1.63       1.0  T
   3   -104.2266614 -0.109547E-01  0.269E-01    1.56       1.0  T
   4   -104.2267120 -0.505490E-04  0.230E-01    1.67       1.0  T
   5   -104.2274777 -0.765696E-03  0.771E-02    1.72       1.0  T
   6   -104.2275683 -0.906074E-04  0.330E-02    1.71       1.0  T
   7   -104.2276340 -0.656969E-04  0.871E-03    1.71       1.5  T
   8   -104.2276353 -0.132769E-05  0.451E-03    1.71       2.8  T
   9   -104.2276358 -0.451166E-06  0.220E-03    1.71       5.8  T
  10   -104.2276359 -0.890315E-07  0.885E-04    1.71      14.5  T
  11   -104.2276359 -0.203891E-07  0.423E-04    1.71      30.2  T

   *** convergence criteria satisfied after 11 iterations ***

         #    Occupation            Energy/Eh            Energy/eV
      -------------------------------------------------------------
         1        2.0000           -0.7290046             -19.8372
       ...           ...                  ...                  ...
        89        2.0000           -0.4032833             -10.9739
        90        2.0000           -0.3931190             -10.6973
        91        2.0000           -0.3841309             -10.4527
        92        2.0000           -0.3828475             -10.4178
        93        2.0000           -0.3738821             -10.1738
        94        2.0000           -0.3684181             -10.0252
        95        1.0000           -0.3473953              -9.4531 (HOMO)
        96                         -0.2847174              -7.7476 (LUMO)
        97                         -0.2694868              -7.3331
        98                         -0.2564498              -6.9784
        99                         -0.2477682              -6.7421
       100                         -0.2290642              -6.2332
       ...                                ...                  ...
       186                          0.7191857              19.5700
      -------------------------------------------------------------
                  HL-Gap            0.0626779 Eh            1.7056 eV
             Fermi-level           -0.3369808 Eh           -9.1697 eV

 SCC (total)                   0 d,  0 h,  0 min,  0.441 sec
 SCC setup                      ...        0 min,  0.000 sec (  0.051%)
 Dispersion                     ...        0 min,  0.001 sec (  0.150%)
 classical contributions        ...        0 min,  0.000 sec (  0.043%)
 integral evaluation            ...        0 min,  0.003 sec (  0.704%)
 iterations                     ...        0 min,  0.405 sec ( 91.992%)
 molecular gradient             ...        0 min,  0.016 sec (  3.571%)
 printout                       ...        0 min,  0.015 sec (  3.487%)

         :::::::::::::::::::::::::::::::::::::::::::::::::::::
         ::                     SUMMARY                     ::
         :::::::::::::::::::::::::::::::::::::::::::::::::::::
         :: total energy            -102.505580212382 Eh    ::
         :: gradient norm              0.107991785936 Eh/a0 ::
         :: HOMO-LUMO gap              1.705552543774 eV    ::
         ::.................................................::
         :: SCC energy              -104.227635881717 Eh    ::
         :: -> isotropic ES            0.053822868502 Eh    ::
         :: -> anisotropic ES          0.002889615127 Eh    ::
         :: -> anisotropic XC          0.059329968395 Eh    ::
         :: -> dispersion             -0.087785228644 Eh    ::
         :: repulsion energy           1.722522260530 Eh    ::
         :: add. restraining           0.000000000000 Eh    ::
         :: total charge               0.000065056325 e     ::
         :::::::::::::::::::::::::::::::::::::::::::::::::::::

           -------------------------------------------------
          |                Property Printout                |
           -------------------------------------------------

    * Orbital Energies and Occupations

         #    Occupation            Energy/Eh            Energy/eV
      -------------------------------------------------------------
         1        2.0000           -0.7290046             -19.8372
       ...           ...                  ...                  ...
        83        2.0000           -0.4205397             -11.4435
        84        2.0000           -0.4156671             -11.3109
        85        2.0000           -0.4135084             -11.2521
        86        2.0000           -0.4124678             -11.2238
        87        2.0000           -0.4110630             -11.1856
        88        2.0000           -0.4106711             -11.1749
        89        2.0000           -0.4032833             -10.9739
        90        2.0000           -0.3931190             -10.6973
        91        2.0000           -0.3841309             -10.4527
        92        2.0000           -0.3828475             -10.4178
        93        2.0000           -0.3738821             -10.1738
        94        2.0000           -0.3684181             -10.0252
        95        1.0000           -0.3473953              -9.4531 (HOMO)
        96                         -0.2847174              -7.7476 (LUMO)
        97                         -0.2694868              -7.3331
        98                         -0.2564498              -6.9784
        99                         -0.2477682              -6.7421
       100                         -0.2290642              -6.2332
       101                         -0.2287807              -6.2254
       102                         -0.2276533              -6.1948
       103                         -0.2216934              -6.0326
       104                         -0.2133516              -5.8056
       105                         -0.2032658              -5.5311
       106                         -0.1930620              -5.2535
       ...                                ...                  ...
       186                          0.7191857              19.5700
      -------------------------------------------------------------
                  HL-Gap            0.0626779 Eh            1.7056 eV
             Fermi-level           -0.3369808 Eh           -9.1697 eV

     #   Z          covCN         q      C6AA      α(0)
     1   6 C        2.976     0.003    27.965     8.674
     2   6 C        2.984     0.002    27.973     8.676
     3   6 C        2.978     0.010    27.783     8.646
     4   6 C        2.983     0.013    27.719     8.636
     5   6 C        2.986     0.012    27.746     8.640
     6   6 C        2.985     0.013    27.710     8.635
     7   6 C        2.915    -0.035    28.882     8.813
     8   6 C        2.915    -0.036    28.899     8.815
     9   6 C        2.917    -0.037    28.925     8.819
    10   6 C        2.914    -0.036    28.884     8.813
    11   6 C        2.992     0.023    27.473     8.598
    12   6 C        2.930    -0.032    28.805     8.802
    13   6 C        2.920    -0.041    29.007     8.832
    14   6 C        2.921    -0.035    28.862     8.810
    15   6 C        3.134     0.002    27.760     8.625
    16   6 C        2.915    -0.027    28.682     8.782
    17   6 C        2.910    -0.034    28.855     8.808
    18   6 C        2.914    -0.029    28.736     8.790
    19   1 H        0.925     0.034     2.528     2.487
    20   1 H        0.925     0.032     2.561     2.503
    21   1 H        0.925     0.034     2.526     2.486
    22   1 H        0.925     0.032     2.558     2.501
    23   1 H        0.926     0.038     2.478     2.462
    24   1 H        0.925     0.036     2.502     2.473
    25   1 H        0.925     0.031     2.569     2.507
    26   1 H        0.925     0.032     2.555     2.500
    27   1 H        0.925     0.038     2.482     2.464
    28   1 H        0.925     0.031     2.574     2.509
    29   6 C        2.886     0.174    24.273     8.077
    30   7 N        1.933    -0.250    27.348     7.754
    31   7 N        2.838     0.033    20.670     6.753
    32   6 C        2.700     0.306    21.795     7.641
    33   7 N        2.839     0.031    20.700     6.757
    34   7 N        1.922    -0.258    27.551     7.783
    35   8 O        0.858    -0.449    22.681     6.385
    36  16 S        2.280    -0.031   142.326    20.079
    37   6 C        3.008     0.015    27.670     8.629
    38   6 C        3.062    -0.046    29.083     8.843
    39   6 C        2.920     0.070    26.444     8.433
    40   6 C        2.918    -0.041    29.017     8.833
    41   6 C        2.919    -0.026    28.640     8.776
    42   6 C        2.916    -0.029    28.722     8.788
    43   6 C        2.918    -0.025    28.637     8.775
    44   6 C        2.925    -0.039    28.973     8.827
    45   6 C        2.922     0.069    26.465     8.436
    46   6 C        2.925    -0.039    28.972     8.827
    47   6 C        2.919    -0.025    28.634     8.775
    48   6 C        2.916    -0.028    28.711     8.787
    49   6 C        2.920    -0.026    28.654     8.778
    50   6 C        2.918    -0.044    29.080     8.843
    51   1 H        0.926     0.072     2.066     2.248
    52   1 H        0.925     0.041     2.441     2.443
    53   1 H        0.925     0.039     2.465     2.455
    54   1 H        0.925     0.041     2.433     2.439
    55   1 H        0.926     0.078     2.002     2.212
    56   1 H        0.926     0.074     2.041     2.234
    57   1 H        0.925     0.042     2.426     2.436
    58   1 H        0.925     0.039     2.458     2.452
    59   1 H        0.925     0.040     2.453     2.449
    60   1 H        0.926     0.066     2.126     2.280
    61   1 H        0.926     0.055     2.264     2.353

 Mol. C6AA /au·bohr⁶  :      61838.809630
 Mol. C8AA /au·bohr⁸  :    1631756.611335
 Mol. α(0) /au        :        401.686316


Wiberg/Mayer (AO) data.
largest (>0.10) Wiberg bond orders for each atom

 ---------------------------------------------------------------------------
     #   Z sym  total        # sym  WBO       # sym  WBO       # sym  WBO
 ---------------------------------------------------------------------------
     1   6 C    3.984 --     4 C    1.297     3 C    1.218     2 C    1.196
     2   6 C    3.986 --    11 C    1.298     5 C    1.255     1 C    1.196
     3   6 C    3.989 --    12 C    1.302     6 C    1.255     1 C    1.218
     4   6 C    3.989 --     1 C    1.297     7 C    1.271     8 C    1.229
     5   6 C    3.980 --     9 C    1.266    13 C    1.263     2 C    1.255
     6   6 C    3.985 --    14 C    1.325     3 C    1.255    10 C    1.222
     7   6 C    3.966 --     9 C    1.562     4 C    1.271    19 H    0.967
     8   6 C    3.985 --    10 C    1.621     4 C    1.229    20 H    0.966
     9   6 C    3.978 --     7 C    1.562     5 C    1.266    21 H    0.967
    10   6 C    3.982 --     8 C    1.621     6 C    1.222    22 H    0.967
    11   6 C    3.949 --     2 C    1.298    15 C    1.296    36 S    1.120
    12   6 C    3.991 --    16 C    1.514     3 C    1.302    23 H    0.965
                            14 C    0.114
    13   6 C    3.983 --    17 C    1.571     5 C    1.263    24 H    0.967
    14   6 C    3.985 --    18 C    1.504     6 C    1.325    25 H    0.968
                            12 C    0.114
    15   6 C    3.981 --    11 C    1.296    17 C    1.266    38 C    1.235
    16   6 C    3.988 --    12 C    1.514    18 C    1.362    26 H    0.970
    17   6 C    3.975 --    13 C    1.571    15 C    1.266    27 H    0.967
    18   6 C    3.978 --    14 C    1.504    16 C    1.362    28 H    0.971
    19   1 H    0.998 --     7 C    0.967
    20   1 H    0.998 --     8 C    0.966
    21   1 H    0.997 --     9 C    0.967
    22   1 H    0.997 --    10 C    0.967
    23   1 H    0.998 --    12 C    0.965
    24   1 H    0.997 --    13 C    0.967
    25   1 H    0.998 --    14 C    0.968
    26   1 H    0.998 --    16 C    0.970
    27   1 H    0.998 --    17 C    0.967
    28   1 H    0.998 --    18 C    0.971
    29   6 C    3.971 --    30 N    1.397    34 N    1.385    37 C    1.072
    30   7 N    2.900 --    29 C    1.397    31 N    1.108    34 N    0.122
    31   7 N    3.630 --    32 C    1.119    30 N    1.108    45 C    1.081
                            35 O    0.121
    32   6 C    3.959 --    35 O    1.604    31 N    1.119    33 N    1.103
    33   7 N    3.625 --    34 N    1.109    32 C    1.103    39 C    1.090
                            35 O    0.119
    34   7 N    2.881 --    29 C    1.385    33 N    1.109    30 N    0.122
    35   8 O    1.983 --    32 C    1.604    31 N    0.121    33 N    0.119
    36  16 S    2.581 --    11 C    1.120    37 C    1.113
    37   6 C    3.940 --    38 C    1.565    36 S    1.113    29 C    1.072
    38   6 C    3.977 --    37 C    1.565    15 C    1.235    61 H    0.960
    39   6 C    3.951 --    40 C    1.345    44 C    1.333    33 N    1.090
    40   6 C    3.979 --    41 C    1.463    39 C    1.345    56 H    0.959
    41   6 C    3.990 --    40 C    1.463    42 C    1.425    57 H    0.969
                            44 C    0.101
    42   6 C    3.965 --    41 C    1.425    43 C    1.414    58 H    0.971
    43   6 C    3.990 --    44 C    1.478    42 C    1.414    59 H    0.969
    44   6 C    3.980 --    43 C    1.478    39 C    1.333    60 H    0.961
                            41 C    0.101
    45   6 C    3.950 --    50 C    1.350    46 C    1.336    31 N    1.081
    46   6 C    3.980 --    47 C    1.477    45 C    1.336    51 H    0.960
Note: The following floating-point exceptions are signalling: IEEE_UNDERFLOW_FLAG
normal termination of xtb
                            49 C    0.103
    47   6 C    3.990 --    46 C    1.477    48 C    1.414    52 H    0.970
    48   6 C    3.965 --    49 C    1.429    47 C    1.414    53 H    0.971
    49   6 C    3.990 --    50 C    1.459    48 C    1.429    54 H    0.970
                            46 C    0.103
    50   6 C    3.977 --    49 C    1.459    45 C    1.350    55 H    0.957
    51   1 H    0.995 --    46 C    0.960
    52   1 H    0.998 --    47 C    0.970
    53   1 H    0.998 --    48 C    0.971
    54   1 H    0.998 --    49 C    0.970
    55   1 H    0.994 --    50 C    0.957
    56   1 H    0.995 --    40 C    0.959
    57   1 H    0.998 --    41 C    0.969
    58   1 H    0.998 --    42 C    0.971
    59   1 H    0.998 --    43 C    0.969
    60   1 H    0.996 --    44 C    0.961
    61   1 H    0.996 --    38 C    0.960
 ---------------------------------------------------------------------------

Topologies differ in bond orders
Writing corrected topology to xtbtopo.mol

molecular dipole:
                 x           y           z       tot (Debye)
 q only:        0.738       0.223      -0.468
   full:        0.634      -0.010      -0.443       1.966
molecular quadrupole (traceless):
                xx          xy          yy          xz          yz          zz
 q only:       -3.995      -2.478      18.059       8.538       4.415     -14.064
  q+dip:        2.489      -3.242      22.509      12.626       6.883     -24.999
   full:       -2.411      -2.345      15.730      10.632       4.170     -13.319


           -------------------------------------------------
          | TOTAL ENERGY             -102.505580212382 Eh   |
          | GRADIENT NORM               0.107991785936 Eh/α |
          | HOMO-LUMO GAP               1.705552543774 eV   |
           -------------------------------------------------
########################################################################
[WARNING] Runtime exception occurred
-2- restart_readRestart: Multiplicity missmatch in restart file.
-1- restart_readRestart: Number of electron missmatch in restart file.
########################################################################

------------------------------------------------------------------------
 * finished run on 2024/11/14 at 13:49:04.609     
------------------------------------------------------------------------
 total:
 * wall-time:     0 d,  0 h,  0 min,  0.449 sec
 *  cpu-time:     0 d,  0 h,  0 min,  1.637 sec
 * ratio c/w:     3.650 speedup
 SCF:
 * wall-time:     0 d,  0 h,  0 min,  0.441 sec
 *  cpu-time:     0 d,  0 h,  0 min,  1.624 sec
 * ratio c/w:     3.682 speedup

