      -----------------------------------------------------------      
     |                   =====================                   |     
     |                           x T B                           |     
     |                   =====================                   |     
     |                         S. Grimme                         |     
     |          Mulliken Center for Theoretical Chemistry        |     
     |                    University of Bonn                     |     
      -----------------------------------------------------------      

   * xtb version 6.6.1 (8d0f1dd) compiled by 'runner@Mac-1690902418499.local' on 2023-08-01

   xtb is free software: you can redistribute it and/or modify it under
   the terms of the GNU Lesser General Public License as published by
   the Free Software Foundation, either version 3 of the License, or
   (at your option) any later version.
   
   xtb is distributed in the hope that it will be useful,
   but WITHOUT ANY WARRANTY; without even the implied warranty of
   MERCHANTABILITY or FITNESS FOR A PARTICULAR PURPOSE.  See the
   GNU Lesser General Public License for more details.
   
   Cite this work as:
   * C. Bannwarth, E. Caldeweyher, S. Ehlert, A. Hansen, P. Pracht,
     J. Seibert, S. Spicher, S. Grimme, WIREs Comput. Mol. Sci., 2020, 11,
     e01493. DOI: 10.1002/wcms.1493
   
   for GFN2-xTB:
   * C. Bannwarth, S. Ehlert and S. Grimme., J. Chem. Theory Comput., 2019,
     15, 1652-1671. DOI: 10.1021/acs.jctc.8b01176
   for GFN1-xTB:
   * S. Grimme, C. Bannwarth, P. Shushkov, J. Chem. Theory Comput., 2017,
     13, 1989-2009. DOI: 10.1021/acs.jctc.7b00118
   for GFN0-xTB:
   * P. Pracht, E. Caldeweyher, S. Ehlert, S. Grimme, ChemRxiv, 2019, preprint.
     DOI: 10.26434/chemrxiv.8326202.v1
   for GFN-FF:
   * S. Spicher and S. Grimme, Angew. Chem. Int. Ed., 2020, 59, 15665-15673.
     DOI: 10.1002/anie.202004239
   
   for ALPB and GBSA implicit solvation:
   * S. Ehlert, M. Stahn, S. Spicher, S. Grimme, J. Chem. Theory Comput.,
     2021, 17, 4250-4261. DOI: 10.1021/acs.jctc.1c00471
   
   for DFT-D4:
   * E. Caldeweyher, C. Bannwarth and S. Grimme, J. Chem. Phys., 2017,
     147, 034112. DOI: 10.1063/1.4993215
   * E. Caldeweyher, S. Ehlert, A. Hansen, H. Neugebauer, S. Spicher,
     C. Bannwarth and S. Grimme, J. Chem. Phys., 2019, 150, 154122.
     DOI: 10.1063/1.5090222
   * E. Caldeweyher, J.-M. Mewes, S. Ehlert and S. Grimme, Phys. Chem. Chem. Phys.
     2020, 22, 8499-8512. DOI: 10.1039/D0CP00502A
   
   for sTDA-xTB:
   * S. Grimme and C. Bannwarth, J. Chem. Phys., 2016, 145, 054103.
     DOI: 10.1063/1.4959605
   
   in the mass-spec context:
   * V. Asgeirsson, C. Bauer and S. Grimme, Chem. Sci., 2017, 8, 4879.
     DOI: 10.1039/c7sc00601b
   * J. Koopman and S. Grimme, ACS Omega 2019, 4, 12, 15120-15133.
     DOI: 10.1021/acsomega.9b02011
   
   for metadynamics refer to:
   * S. Grimme, J. Chem. Theory Comput., 2019, 155, 2847-2862
     DOI: 10.1021/acs.jctc.9b00143
   
   for SPH calculations refer to:
   * S. Spicher and S. Grimme, J. Chem. Theory Comput., 2021, 17, 1701-1714
     DOI: 10.1021/acs.jctc.0c01306
   
   with help from (in alphabetical order)
   P. Atkinson, C. Bannwarth, F. Bohle, G. Brandenburg, E. Caldeweyher
   M. Checinski, S. Dohm, S. Ehlert, S. Ehrlich, I. Gerasimov, C. Hölzer
   A. Katbashev, J. Koopman, C. Lavigne, S. Lehtola, F. März, M. Müller,
   F. Musil, H. Neugebauer, J. Pisarek, C. Plett, P. Pracht, F. Pultar,
   J. Seibert, P. Shushkov, S. Spicher, M. Stahn, M. Steiner, T. Strunk,
   J. Stückrath, T. Rose, and J. Unsleber
   
 * started run on 2024/11/14 at 13:45:57.522     

           -------------------------------------------------
          |                Calculation Setup                |
           -------------------------------------------------

          program call               : xtb Verdazyl5.mol --opt --gfn2 --chrg 0 --uhf 2 --tight
          coordinate file            : Verdazyl5.mol
          omp threads                :                     8

   ID    Z sym.   atoms
    1    6 C      1-18, 29, 32, 37-50
    2    1 H      19-28, 51-61
    3    7 N      30, 31, 33, 34
    4    8 O      35
    5   16 S      36
########################################################################
[WARNING] Please study the warnings concerning your input carefully
-1- prog_main_parseArguments: Unknown option '--tight' provided
########################################################################

           -------------------------------------------------
          |                 G F N 2 - x T B                 |
           -------------------------------------------------

        Reference                      10.1021/acs.jctc.8b01176
      * Hamiltonian:
        H0-scaling (s, p, d)           1.850000    2.230000    2.230000
        zeta-weighting                 0.500000
      * Dispersion:
        s8                             2.700000
        a1                             0.520000
        a2                             5.000000
        s9                             5.000000
      * Repulsion:
        kExp                           1.500000    1.000000
        rExp                           1.000000
      * Coulomb:
        alpha                          2.000000
        third order                    shell-resolved
        anisotropic                    true
        a3                             3.000000
        a5                             4.000000
        cn-shift                       1.200000
        cn-exp                         4.000000
        max-rad                        5.000000


          ...................................................
          :                      SETUP                      :
          :.................................................:
          :  # basis functions                 187          :
          :  # atomic orbitals                 186          :
          :  # shells                          102          :
          :  # electrons                       189          :
          :  max. iterations                   250          :
          :  Hamiltonian                  GFN2-xTB          :
          :  restarted?                      false          :
          :  GBSA solvation                  false          :
          :  PC potential                    false          :
          :  electronic temp.          300.0000000     K    :
          :  accuracy                    1.0000000          :
          :  -> integral cutoff          0.2500000E+02      :
          :  -> integral neglect         0.1000000E-07      :
          :  -> SCF convergence          0.1000000E-05 Eh   :
          :  -> wf. convergence          0.1000000E-03 e    :
          :  Broyden damping             0.4000000          :
          ...................................................

 iter      E             dE          RMSdq      gap      omega  full diag
   1   -102.4377157 -0.102438E+03  0.593E+00    0.32       0.0  T
   2   -102.4919199 -0.542042E-01  0.376E+00    1.43       1.0  T
   3   -102.2408159  0.251104E+00  0.252E+00    0.87       1.0  T
   4   -102.5307326 -0.289917E+00  0.772E-01    1.07       1.0  T
   5   -102.5668508 -0.361182E-01  0.240E-01    1.37       1.0  T
   6   -102.5690705 -0.221972E-02  0.127E-01    1.31       1.0  T
   7   -102.5699501 -0.879630E-03  0.565E-02    1.29       1.0  T
   8   -102.5700471 -0.970122E-04  0.312E-02    1.29       1.0  T
   9   -102.5700779 -0.307521E-04  0.162E-02    1.30       1.0  T
  10   -102.5700846 -0.678043E-05  0.629E-03    1.30       2.0  T
  11   -102.5700861 -0.143631E-05  0.297E-03    1.30       4.3  T
  12   -102.5700864 -0.335126E-06  0.128E-03    1.30      10.0  T
  13   -102.5700864  0.710412E-08  0.892E-04    1.30      14.3  T
  14   -102.5700864 -0.378637E-07  0.378E-04    1.30      33.9  T

   *** convergence criteria satisfied after 14 iterations ***

         #    Occupation            Energy/Eh            Energy/eV
      -------------------------------------------------------------
         1        2.0000           -0.7399822             -20.1359
       ...           ...                  ...                  ...
        89        2.0000           -0.3946535             -10.7391
        90        2.0000           -0.3841736             -10.4539
        91        2.0000           -0.3732801             -10.1575
        92        2.0000           -0.3710911             -10.0979
        93        2.0000           -0.3626719              -9.8688
        94        2.0000           -0.3604982              -9.8097
        95        1.0000           -0.3395475              -9.2396 (HOMO)
        96                         -0.2919286              -7.9438 (LUMO)
        97                         -0.2901318              -7.8949
        98                         -0.2854257              -7.7668
        99                         -0.2781608              -7.5691
       100                         -0.2724924              -7.4149
       ...                                ...                  ...
       186                          0.8118731              22.0922
      -------------------------------------------------------------
                  HL-Gap            0.0476189 Eh            1.2958 eV
             Fermi-level           -0.3328911 Eh           -9.0584 eV

 transition dipole moment (au) for excitation:          94          95
     X       Y       Z   
   0.1061  -0.4616  -0.0830  total (au/Debye):    0.481   1.222
 dE (eV)             :    0.570
 oscillator strength :  0.45670E-02

 SCC (total)                   0 d,  0 h,  0 min,  0.415 sec
 SCC setup                      ...        0 min,  0.001 sec (  0.255%)
 Dispersion                     ...        0 min,  0.001 sec (  0.233%)
 classical contributions        ...        0 min,  0.000 sec (  0.085%)
 integral evaluation            ...        0 min,  0.003 sec (  0.806%)
 iterations                     ...        0 min,  0.381 sec ( 91.698%)
 molecular gradient             ...        0 min,  0.010 sec (  2.454%)
 printout                       ...        0 min,  0.019 sec (  4.466%)

         :::::::::::::::::::::::::::::::::::::::::::::::::::::
         ::                     SUMMARY                     ::
         :::::::::::::::::::::::::::::::::::::::::::::::::::::
         :: total energy            -101.609161807608 Eh    ::
         :: gradient norm              0.599575099537 Eh/a0 ::
         :: HOMO-LUMO gap              1.295776420237 eV    ::
         ::.................................................::
         :: SCC energy              -102.570086446959 Eh    ::
         :: -> isotropic ES            0.061812027032 Eh    ::
         :: -> anisotropic ES          0.001765214127 Eh    ::
         :: -> anisotropic XC          0.090574625211 Eh    ::
         :: -> dispersion             -0.077183726214 Eh    ::
         :: repulsion energy           0.961386196144 Eh    ::
         :: add. restraining           0.000000000000 Eh    ::
         :: total charge              -0.000000000002 e     ::
         :::::::::::::::::::::::::::::::::::::::::::::::::::::

      ----------------------------------------------------------- 
     |                   =====================                   |
     |                        A N C O P T                        |
     |                   =====================                   |
     |               Approximate Normal Coordinate               |
     |                Rational Function Optimizer                |
      ----------------------------------------------------------- 

          ...................................................
          :                      SETUP                      :
          :.................................................:
          :   optimization level            normal          :
          :   max. optcycles                   200          :
          :   ANC micro-cycles                  20          :
          :   degrees of freedom               177          :
          :.................................................:
          :   RF solver                   davidson          :
          :   write xtbopt.log                true          :
          :   linear?                        false          :
          :   energy convergence         0.5000000E-05 Eh   :
          :   grad. convergence          0.1000000E-02 Eh/α :
          :   maxmium RF displ.          1.0000000          :
          :   Hlow (freq-cutoff)         0.1000000E-01      :
          :   Hmax (freq-cutoff)         5.0000000          :
          :   S6 in model hess.         20.0000000          :
          ...................................................

generating ANC from model Hessian ...
Using Lindh-Hessian (1995)
 Shifting diagonal of input Hessian by    1.0016055352710504E-002
 Lowest  eigenvalues of input Hessian
    0.010000    0.010015    0.000000    0.000000    0.000000    0.000000
    0.000000    0.000000    0.010097    0.010114    0.010137    0.010151
    0.010213    0.010427    0.010535    0.010727    0.010852    0.010878
 Highest eigenvalues
    1.399541    1.419695    1.458515    1.464616    1.622768    1.769865


........................................................................
.............................. CYCLE    1 ..............................
........................................................................

 iter      E             dE          RMSdq      gap      omega  full diag
   1   -102.5700864 -0.102570E+03  0.236E-04    1.30       0.0  T
   2   -102.5700864  0.141131E-08  0.242E-04    1.30      52.8  T
   3   -102.5700865 -0.345264E-08  0.988E-05    1.30     129.5  T
     SCC iter.                  ...        0 min,  0.075 sec
     gradient                   ...        0 min,  0.010 sec
 * total energy  :  -101.6091618 Eh     change       -0.3613863E-08 Eh
   gradient norm :     0.5995750 Eh/α   predicted     0.0000000E+00 (-100.00%)
   displ. norm   :     0.7031121 α      lambda       -0.3588849E+00
   maximum displ.:     0.3856056 α      in ANC's #103, #93, #157, ...

........................................................................
.............................. CYCLE    2 ..............................
........................................................................

 iter      E             dE          RMSdq      gap      omega  full diag
   1   -102.9311609 -0.102931E+03  0.519E-01    1.20       0.0  T
   2   -102.9329789 -0.181805E-02  0.321E-01    1.10       1.0  T
   3   -102.9323684  0.610590E-03  0.197E-01    1.15       1.0  T
   4   -102.9334948 -0.112646E-02  0.104E-01    1.14       1.0  T
   5   -102.9340942 -0.599424E-03  0.325E-02    1.13       1.0  T
   6   -102.9341322 -0.379747E-04  0.143E-02    1.13       1.0  T
   7   -102.9341416 -0.935815E-05  0.626E-03    1.13       2.0  T
   8   -102.9341430 -0.143710E-05  0.327E-03    1.13       3.9  T
   9   -102.9341432 -0.205043E-06  0.177E-03    1.13       7.2  T
  10   -102.9341433 -0.101985E-06  0.748E-04    1.13      17.1  T
  11   -102.9341433 -0.153655E-07  0.384E-04    1.13      33.4  T
     SCC iter.                  ...        0 min,  0.312 sec
     gradient                   ...        0 min,  0.009 sec
 * total energy  :  -101.9111223 Eh     change       -0.3019605E+00 Eh
   gradient norm :     0.3721365 Eh/α   predicted    -0.2681654E+00 ( -11.19%)
   displ. norm   :     0.7755737 α      lambda       -0.2610157E+00
   maximum displ.:     0.4063964 α      in ANC's #103, #93, #118, ...

........................................................................
.............................. CYCLE    3 ..............................
........................................................................

 iter      E             dE          RMSdq      gap      omega  full diag
   1   -103.3113968 -0.103311E+03  0.559E-01    0.73       0.0  T
   2   -103.3149360 -0.353919E-02  0.337E-01    0.65       1.0  T
   3   -103.3150117 -0.756728E-04  0.192E-01    0.68       1.0  T
   4   -103.3153387 -0.326937E-03  0.117E-01    0.69       1.0  T
   5   -103.3160796 -0.740913E-03  0.305E-02    0.67       1.0  T
   6   -103.3161019 -0.222927E-04  0.115E-02    0.67       1.1  T
   7   -103.3161061 -0.425747E-05  0.637E-03    0.67       2.0  T
   8   -103.3161074 -0.129034E-05  0.327E-03    0.67       3.9  T
   9   -103.3161076 -0.225100E-06  0.191E-03    0.67       6.7  T
  10   -103.3161078 -0.157592E-06  0.678E-04    0.67      18.9  T
  11   -103.3161078 -0.125547E-07  0.372E-04    0.67      34.4  T
     SCC iter.                  ...        0 min,  0.368 sec
     gradient                   ...        0 min,  0.009 sec
 * total energy  :  -102.1079323 Eh     change       -0.1968100E+00 Eh
   gradient norm :     0.1901631 Eh/α   predicted    -0.2090102E+00 (   6.20%)
   displ. norm   :     0.7518486 α      lambda       -0.1284877E+00
   maximum displ.:     0.3050892 α      in ANC's #103, #93, #43, ...

........................................................................
.............................. CYCLE    4 ..............................
........................................................................

 iter      E             dE          RMSdq      gap      omega  full diag
   1   -103.6000214 -0.103600E+03  0.410E-01    0.35       0.0  T
   2   -103.6011112 -0.108978E-02  0.255E-01    0.50       1.0  T
   3   -103.6006527  0.458533E-03  0.167E-01    0.36       1.0  T
   4   -103.6013329 -0.680259E-03  0.875E-02    0.47       1.0  T
   5   -103.6017915 -0.458535E-03  0.266E-02    0.42       1.0  T
   6   -103.6018231 -0.316863E-04  0.132E-02    0.43       1.0  T
   7   -103.6018350 -0.118270E-04  0.548E-03    0.43       2.3  T
   8   -103.6018362 -0.122921E-05  0.275E-03    0.43       4.7  T
   9   -103.6018364 -0.174725E-06  0.135E-03    0.43       9.5  T
  10   -103.6018364 -0.221418E-07  0.658E-04    0.43      19.5  T
  11   -103.6018364 -0.181702E-07  0.285E-04    0.43      45.0  T
     SCC iter.                  ...        0 min,  0.320 sec
     gradient                   ...        0 min,  0.011 sec
 * total energy  :  -102.2079249 Eh     change       -0.9999254E-01 Eh
   gradient norm :     0.1158980 Eh/α   predicted    -0.1005597E+00 (   0.57%)
   displ. norm   :     0.7716231 α      lambda       -0.7350057E-01
   maximum displ.:     0.3241668 α      in ANC's #24, #43, #21, ...

........................................................................
.............................. CYCLE    5 ..............................
........................................................................

 iter      E             dE          RMSdq      gap      omega  full diag
   1   -103.7942197 -0.103794E+03  0.312E-01    0.32       0.0  T
   2   -103.7949961 -0.776414E-03  0.216E-01    0.48       1.0  T
   3   -103.7952624 -0.266306E-03  0.130E-01    0.35       1.0  T
   4   -103.7952578  0.454753E-05  0.850E-02    0.44       1.0  T
   5   -103.7957683 -0.510472E-03  0.188E-02    0.39       1.0  T
   6   -103.7957862 -0.179150E-04  0.103E-02    0.40       1.2  T
   7   -103.7957940 -0.774448E-05  0.360E-03    0.40       3.6  T
   8   -103.7957943 -0.330366E-06  0.181E-03    0.40       7.1  T
   9   -103.7957943 -0.507599E-07  0.965E-04    0.40      13.3  T
  10   -103.7957944 -0.182445E-07  0.474E-04    0.40      27.0  T
     SCC iter.                  ...        0 min,  0.229 sec
     gradient                   ...        0 min,  0.013 sec
 * total energy  :  -102.2660654 Eh     change       -0.5814057E-01 Eh
   gradient norm :     0.0670686 Eh/α   predicted    -0.5863153E-01 (   0.84%)
   displ. norm   :     0.8262211 α      lambda       -0.4779259E-01
   maximum displ.:     0.4513050 α      in ANC's #24, #43, #21, ...

........................................................................
.............................. CYCLE    6 ..............................
........................................................................

 iter      E             dE          RMSdq      gap      omega  full diag
   1   -103.9110531 -0.103911E+03  0.243E-01    0.68       0.0  T
   2   -103.9114479 -0.394883E-03  0.153E-01    0.73       1.0  T
   3   -103.9114574 -0.943353E-05  0.796E-02    0.68       1.0  T
   4   -103.9115011 -0.437041E-04  0.341E-02    0.73       1.0  T
   5   -103.9115864 -0.853197E-04  0.846E-03    0.70       1.5  T
   6   -103.9115886 -0.215752E-05  0.488E-03    0.71       2.6  T
   7   -103.9115894 -0.811218E-06  0.228E-03    0.71       5.6  T
   8   -103.9115896 -0.216393E-06  0.110E-03    0.71      11.7  T
   9   -103.9115896 -0.995533E-08  0.553E-04    0.71      23.2  T
  10   -103.9115896 -0.984902E-08  0.226E-04    0.71      56.7  T
     SCC iter.                  ...        0 min,  0.206 sec
     gradient                   ...        0 min,  0.010 sec
 * total energy  :  -102.3064601 Eh     change       -0.4039467E-01 Eh
   gradient norm :     0.0621928 Eh/α   predicted    -0.4020896E-01 (  -0.46%)
   displ. norm   :     0.8914873 α      lambda       -0.4300436E-01
   maximum displ.:     0.5368459 α      in ANC's #24, #21, #43, ...

........................................................................
.............................. CYCLE    7 ..............................
........................................................................

 iter      E             dE          RMSdq      gap      omega  full diag
   1   -103.9950413 -0.103995E+03  0.246E-01    1.17       0.0  T
   2   -103.9955430 -0.501728E-03  0.150E-01    1.21       1.0  T
   3   -103.9955279  0.150824E-04  0.813E-02    1.18       1.0  T
   4   -103.9956048 -0.768727E-04  0.411E-02    1.19       1.0  T
   5   -103.9957168 -0.112031E-03  0.818E-03    1.19       1.6  T
   6   -103.9957177 -0.901249E-06  0.471E-03    1.19       2.7  T
   7   -103.9957181 -0.416519E-06  0.242E-03    1.19       5.3  T
   8   -103.9957184 -0.235464E-06  0.970E-04    1.19      13.2  T
   9   -103.9957184 -0.427863E-08  0.527E-04    1.19      24.3  T
     SCC iter.                  ...        0 min,  0.172 sec
     gradient                   ...        0 min,  0.019 sec
 * total energy  :  -102.3453137 Eh     change       -0.3885357E-01 Eh
   gradient norm :     0.0754914 Eh/α   predicted    -0.3859108E-01 (  -0.68%)
   displ. norm   :     0.9103613 α      lambda       -0.4407603E-01
   maximum displ.:     0.5722749 α      in ANC's #24, #21, #18, ...

........................................................................
.............................. CYCLE    8 ..............................
........................................................................

 iter      E             dE          RMSdq      gap      omega  full diag
   1   -104.0482080 -0.104048E+03  0.248E-01    1.31       0.0  T
   2   -104.0493184 -0.111039E-02  0.148E-01    1.38       1.0  T
   3   -104.0494414 -0.122960E-03  0.749E-02    1.35       1.0  T
   4   -104.0494329  0.853701E-05  0.405E-02    1.36       1.0  T
   5   -104.0495114 -0.784962E-04  0.888E-03    1.36       1.4  T
   6   -104.0495125 -0.112183E-05  0.486E-03    1.36       2.6  T
   7   -104.0495128 -0.347083E-06  0.222E-03    1.36       5.8  T
   8   -104.0495129 -0.107279E-06  0.103E-03    1.36      12.5  T
   9   -104.0495130 -0.254758E-07  0.494E-04    1.36      25.9  T
  10   -104.0495130 -0.200914E-08  0.258E-04    1.36      49.7  T
     SCC iter.                  ...        0 min,  0.208 sec
     gradient                   ...        0 min,  0.035 sec
 * total energy  :  -102.3877976 Eh     change       -0.4248394E-01 Eh
   gradient norm :     0.0769350 Eh/α   predicted    -0.4030220E-01 (  -5.14%)
   displ. norm   :     0.9097343 α      lambda       -0.4811118E-01
   maximum displ.:     0.5581827 α      in ANC's #24, #21, #18, ...

........................................................................
.............................. CYCLE    9 ..............................
........................................................................

 iter      E             dE          RMSdq      gap      omega  full diag
   1   -104.0670173 -0.104067E+03  0.315E-01    1.54       0.0  T
   2   -104.0691767 -0.215938E-02  0.191E-01    1.61       1.0  T
   3   -104.0694168 -0.240143E-03  0.977E-02    1.58       1.0  T
   4   -104.0694568 -0.399153E-04  0.577E-02    1.59       1.0  T
   5   -104.0695537 -0.969183E-04  0.124E-02    1.59       1.0  T
   6   -104.0695545 -0.802675E-06  0.759E-03    1.59       1.7  T
   7   -104.0695562 -0.169270E-05  0.361E-03    1.59       3.5  T
   8   -104.0695565 -0.328539E-06  0.124E-03    1.59      10.3  T
   9   -104.0695565 -0.389262E-07  0.543E-04    1.59      23.6  T
  10   -104.0695565 -0.242457E-08  0.295E-04    1.59      43.4  T
     SCC iter.                  ...        0 min,  0.253 sec
     gradient                   ...        0 min,  0.010 sec
 * total energy  :  -102.4257705 Eh     change       -0.3797287E-01 Eh
   gradient norm :     0.0691356 Eh/α   predicted    -0.4396439E-01 (  15.78%)
   displ. norm   :     0.8629066 α      lambda       -0.3590690E-01
   maximum displ.:     0.5516215 α      in ANC's #24, #21, #18, ...

........................................................................
.............................. CYCLE   10 ..............................
........................................................................

 iter      E             dE          RMSdq      gap      omega  full diag
   1   -104.1275372 -0.104128E+03  0.230E-01    1.55       0.0  T
   2   -104.1278338 -0.296555E-03  0.145E-01    1.60       1.0  T
   3   -104.1277639  0.698683E-04  0.594E-02    1.58       1.0  T
   4   -104.1278703 -0.106425E-03  0.244E-02    1.59       1.0  T
   5   -104.1278970 -0.267197E-04  0.655E-03    1.59       2.0  T
   6   -104.1278973 -0.255216E-06  0.405E-03    1.59       3.2  T
   7   -104.1278979 -0.613083E-06  0.117E-03    1.59      11.0  T
   8   -104.1278979 -0.282804E-07  0.552E-04    1.59      23.2  T
   9   -104.1278980 -0.851843E-08  0.257E-04    1.59      49.8  T
     SCC iter.                  ...        0 min,  0.211 sec
     gradient                   ...        0 min,  0.009 sec
 * total energy  :  -102.4549917 Eh     change       -0.2922127E-01 Eh
   gradient norm :     0.0534424 Eh/α   predicted    -0.3132176E-01 (   7.19%)
   displ. norm   :     0.8245452 α      lambda       -0.3077291E-01
   maximum displ.:     0.4808238 α      in ANC's #24, #21, #18, ...

........................................................................
.............................. CYCLE   11 ..............................
........................................................................

 iter      E             dE          RMSdq      gap      omega  full diag
   1   -104.1751519 -0.104175E+03  0.295E-01    1.52       0.0  T
   2   -104.1754866 -0.334695E-03  0.179E-01    1.57       1.0  T
   3   -104.1753397  0.146853E-03  0.721E-02    1.55       1.0  T
   4   -104.1755292 -0.189457E-03  0.263E-02    1.56       1.0  T
   5   -104.1755622 -0.329817E-04  0.800E-03    1.56       1.6  T
   6   -104.1755635 -0.132477E-05  0.413E-03    1.56       3.1  T
   7   -104.1755639 -0.402923E-06  0.124E-03    1.56      10.3  T
   8   -104.1755639 -0.482550E-07  0.557E-04    1.56      23.0  T
   9   -104.1755639 -0.699617E-08  0.235E-04    1.56      54.5  T
     SCC iter.                  ...        0 min,  0.144 sec
     gradient                   ...        0 min,  0.009 sec
 * total energy  :  -102.4746430 Eh     change       -0.1965125E-01 Eh
   gradient norm :     0.0498726 Eh/α   predicted    -0.2584732E-01 (  31.53%)
   displ. norm   :     0.7552326 α      lambda       -0.2171170E-01
   maximum displ.:     0.4138400 α      in ANC's #24, #18, #21, ...

........................................................................
.............................. CYCLE   12 ..............................
........................................................................

 iter      E             dE          RMSdq      gap      omega  full diag
   1   -104.2010952 -0.104201E+03  0.201E-01    1.57       0.0  T
   2   -104.2018412 -0.745983E-03  0.136E-01    1.61       1.0  T
   3   -104.2019519 -0.110738E-03  0.693E-02    1.60       1.0  T
   4   -104.2019587 -0.674069E-05  0.353E-02    1.60       1.0  T
   5   -104.2019970 -0.383931E-04  0.723E-03    1.60       1.8  T
   6   -104.2019983 -0.129637E-05  0.404E-03    1.60       3.2  T
   7   -104.2019987 -0.388315E-06  0.172E-03    1.60       7.5  T
   8   -104.2019988 -0.885615E-07  0.606E-04    1.60      21.1  T
   9   -104.2019988 -0.572268E-08  0.282E-04    1.60      45.4  T
     SCC iter.                  ...        0 min,  0.250 sec
     gradient                   ...        0 min,  0.013 sec
 * total energy  :  -102.4885812 Eh     change       -0.1393821E-01 Eh
   gradient norm :     0.0466364 Eh/α   predicted    -0.1704777E-01 (  22.31%)
   displ. norm   :     0.6672662 α      lambda       -0.1424349E-01
   maximum displ.:     0.2866276 α      in ANC's #24, #18, #21, ...

........................................................................
.............................. CYCLE   13 ..............................
........................................................................

 iter      E             dE          RMSdq      gap      omega  full diag
   1   -104.2227626 -0.104223E+03  0.231E-01    1.55       0.0  T
   2   -104.2230703 -0.307702E-03  0.135E-01    1.56       1.0  T
   3   -104.2229884  0.818542E-04  0.630E-02    1.56       1.0  T
   4   -104.2231189 -0.130427E-03  0.225E-02    1.56       1.0  T
   5   -104.2231424 -0.234990E-04  0.640E-03    1.56       2.0  T
   6   -104.2231435 -0.112490E-05  0.336E-03    1.56       3.8  T
   7   -104.2231438 -0.264788E-06  0.111E-03    1.56      11.5  T
   8   -104.2231438 -0.337522E-07  0.491E-04    1.56      26.1  T
   9   -104.2231438 -0.562190E-08  0.223E-04    1.56      57.5  T
     SCC iter.                  ...        0 min,  0.188 sec
     gradient                   ...        0 min,  0.010 sec
 * total energy  :  -102.4972238 Eh     change       -0.8642564E-02 Eh
   gradient norm :     0.0341263 Eh/α   predicted    -0.1029266E-01 (  19.09%)
   displ. norm   :     0.6893972 α      lambda       -0.9541039E-02
   maximum displ.:     0.2943175 α      in ANC's #6, #18, #24, ...

........................................................................
.............................. CYCLE   14 ..............................
........................................................................

 iter      E             dE          RMSdq      gap      omega  full diag
   1   -104.2291376 -0.104229E+03  0.197E-01    1.55       0.0  T
   2   -104.2293213 -0.183729E-03  0.121E-01    1.56       1.0  T
   3   -104.2292366  0.847050E-04  0.555E-02    1.55       1.0  T
   4   -104.2293634 -0.126751E-03  0.201E-02    1.55       1.0  T
   5   -104.2293838 -0.203913E-04  0.504E-03    1.55       2.5  T
   6   -104.2293842 -0.444413E-06  0.266E-03    1.55       4.8  T
   7   -104.2293844 -0.180615E-06  0.999E-04    1.55      12.8  T
   8   -104.2293844 -0.351902E-07  0.513E-04    1.55      24.9  T
     SCC iter.                  ...        0 min,  0.141 sec
     gradient                   ...        0 min,  0.010 sec
 * total energy  :  -102.5038105 Eh     change       -0.6586689E-02 Eh
   gradient norm :     0.0291067 Eh/α   predicted    -0.7037794E-02 (   6.85%)
   displ. norm   :     0.7098574 α      lambda       -0.7428663E-02
   maximum displ.:     0.3166617 α      in ANC's #6, #18, #12, ...

........................................................................
.............................. CYCLE   15 ..............................
........................................................................

 iter      E             dE          RMSdq      gap      omega  full diag
   1   -104.2442254 -0.104244E+03  0.196E-01    1.52       0.0  T
   2   -104.2443331 -0.107716E-03  0.116E-01    1.54       1.0  T
   3   -104.2442677  0.653727E-04  0.422E-02    1.52       1.0  T
   4   -104.2443463 -0.786008E-04  0.149E-02    1.53       1.0  T
   5   -104.2443572 -0.108526E-04  0.392E-03    1.53       3.3  T
   6   -104.2443574 -0.185602E-06  0.219E-03    1.53       5.9  T
   7   -104.2443575 -0.120824E-06  0.782E-04    1.53      16.4  T
   8   -104.2443575 -0.140033E-07  0.402E-04    1.53      31.9  T
     SCC iter.                  ...        0 min,  0.171 sec
     gradient                   ...        0 min,  0.021 sec
 * total energy  :  -102.5070529 Eh     change       -0.3242492E-02 Eh
   gradient norm :     0.0472985 Eh/α   predicted    -0.5585979E-02 (  72.27%)
   displ. norm   :     0.5103251 α      lambda       -0.6756225E-02
   maximum displ.:     0.2548059 α      in ANC's #6, #4, #18, ...

........................................................................
.............................. CYCLE   16 ..............................
........................................................................

 iter      E             dE          RMSdq      gap      omega  full diag
   1   -104.2551934 -0.104255E+03  0.159E-01    1.55       0.0  T
   2   -104.2554961 -0.302645E-03  0.894E-02    1.53       1.0  T
   3   -104.2555013 -0.520586E-05  0.446E-02    1.54       1.0  T
   4   -104.2555150 -0.137350E-04  0.154E-02    1.54       1.0  T
   5   -104.2555276 -0.125517E-04  0.439E-03    1.54       2.9  T
   6   -104.2555282 -0.612737E-06  0.223E-03    1.54       5.7  T
   7   -104.2555283 -0.145697E-06  0.929E-04    1.54      13.8  T
   8   -104.2555284 -0.310752E-07  0.421E-04    1.54      30.4  T
     SCC iter.                  ...        0 min,  0.132 sec
     gradient                   ...        0 min,  0.010 sec
 * total energy  :  -102.5104362 Eh     change       -0.3383265E-02 Eh
   gradient norm :     0.0217994 Eh/α   predicted    -0.4257881E-02 (  25.85%)
   displ. norm   :     0.4863810 α      lambda       -0.3518239E-02
   maximum displ.:     0.2381646 α      in ANC's #6, #5, #17, ...

........................................................................
.............................. CYCLE   17 ..............................
........................................................................

 iter      E             dE          RMSdq      gap      omega  full diag
   1   -104.2525535 -0.104253E+03  0.176E-01    1.50       0.0  T
   2   -104.2527523 -0.198738E-03  0.107E-01    1.52       1.0  T
   3   -104.2527050  0.472400E-04  0.510E-02    1.52       1.0  T
   4   -104.2527977 -0.926599E-04  0.129E-02    1.52       1.0  T
   5   -104.2528061 -0.839939E-05  0.442E-03    1.52       2.9  T
   6   -104.2528065 -0.400386E-06  0.240E-03    1.52       5.3  T
   7   -104.2528066 -0.674144E-07  0.112E-03    1.52      11.4  T
   8   -104.2528066 -0.328805E-07  0.489E-04    1.52      26.2  T
   9   -104.2528066 -0.348668E-08  0.234E-04    1.52      54.8  T
     SCC iter.                  ...        0 min,  0.186 sec
     gradient                   ...        0 min,  0.022 sec
 * total energy  :  -102.5107739 Eh     change       -0.3377133E-03 Eh
   gradient norm :     0.0433693 Eh/α   predicted    -0.2175277E-02 ( 544.12%)
   displ. norm   :     0.2822865 α      lambda       -0.3733876E-02
   maximum displ.:     0.1309355 α      in ANC's #6, #4, #14, ...

........................................................................
.............................. CYCLE   18 ..............................
........................................................................

 iter      E             dE          RMSdq      gap      omega  full diag
   1   -104.2639697 -0.104264E+03  0.120E-01    1.53       0.0  T
   2   -104.2641392 -0.169520E-03  0.721E-02    1.52       1.0  T
   3   -104.2641470 -0.783762E-05  0.373E-02    1.53       1.0  T
   4   -104.2641599 -0.128866E-04  0.107E-02    1.53       1.2  T
   5   -104.2641658 -0.584177E-05  0.339E-03    1.53       3.8  T
   6   -104.2641660 -0.277974E-06  0.190E-03    1.53       6.8  T
   7   -104.2641661 -0.453069E-07  0.930E-04    1.53      13.8  T
   8   -104.2641661 -0.261698E-07  0.348E-04    1.53      36.8  T
     SCC iter.                  ...        0 min,  0.271 sec
     gradient                   ...        0 min,  0.009 sec
 * total energy  :  -102.5122700 Eh     change       -0.1496052E-02 Eh
   gradient norm :     0.0187542 Eh/α   predicted    -0.2015708E-02 (  34.74%)
   displ. norm   :     0.2995172 α      lambda       -0.2049848E-02
   maximum displ.:     0.1332263 α      in ANC's #6, #12, #35, ...

........................................................................
.............................. CYCLE   19 ..............................
........................................................................

 iter      E             dE          RMSdq      gap      omega  full diag
   1   -104.2700067 -0.104270E+03  0.126E-01    1.53       0.0  T
   2   -104.2700623 -0.556518E-04  0.776E-02    1.53       1.0  T
   3   -104.2700054  0.568782E-04  0.365E-02    1.52       1.0  T
   4   -104.2700775 -0.720364E-04  0.111E-02    1.53       1.1  T
   5   -104.2700845 -0.705213E-05  0.311E-03    1.53       4.1  T
   6   -104.2700849 -0.371760E-06  0.124E-03    1.53      10.3  T
   7   -104.2700849 -0.172735E-07  0.466E-04    1.53      27.5  T
   8   -104.2700849 -0.549386E-08  0.208E-04    1.53      61.6  T
     SCC iter.                  ...        0 min,  0.179 sec
     gradient                   ...        0 min,  0.010 sec
 * total energy  :  -102.5124749 Eh     change       -0.2049479E-03 Eh
   gradient norm :     0.0193046 Eh/α   predicted    -0.1116868E-02 ( 444.95%)
   displ. norm   :     0.2184509 α      lambda       -0.1670060E-02
   maximum displ.:     0.1133111 α      in ANC's #6, #28, #7, ...

........................................................................
.............................. CYCLE   20 ..............................
........................................................................

 iter      E             dE          RMSdq      gap      omega  full diag
   1   -104.2673036 -0.104267E+03  0.942E-02    1.54       0.0  T
   2   -104.2673205 -0.169405E-04  0.557E-02    1.54       1.0  T
   3   -104.2672937  0.268331E-04  0.230E-02    1.54       1.0  T
   4   -104.2673255 -0.318302E-04  0.532E-03    1.54       2.4  T
   5   -104.2673270 -0.144396E-05  0.218E-03    1.54       5.9  T
   6   -104.2673271 -0.151686E-06  0.968E-04    1.54      13.2  T
   7   -104.2673271 -0.145385E-07  0.370E-04    1.54      34.6  T
     SCC iter.                  ...        0 min,  0.176 sec
     gradient                   ...        0 min,  0.011 sec
 * total energy  :  -102.5132413 Eh     change       -0.7663564E-03 Eh
   gradient norm :     0.0135807 Eh/α   predicted    -0.8748781E-03 (  14.16%)
   displ. norm   :     0.2811910 α      lambda       -0.1176168E-02
   maximum displ.:     0.1441292 α      in ANC's #6, #7, #5, ...
 * RMSD in coord.:     1.2202666 α      energy gain  -0.9040795E+00 Eh

generating ANC from model Hessian ...
Using Lindh-Hessian (1995)
 Shifting diagonal of input Hessian by    9.9046616416467535E-003
 Lowest  eigenvalues of input Hessian
    0.000000    0.000000    0.000000    0.000000    0.000000    0.000000
    0.010000    0.010129    0.010281    0.010570    0.010718    0.011051
    0.011116    0.011329    0.011734    0.012738    0.013638    0.014313
 Highest eigenvalues
    2.103517    2.110018    2.122721    2.135496    2.286866    2.506516


........................................................................
.............................. CYCLE   21 ..............................
........................................................................

 iter      E             dE          RMSdq      gap      omega  full diag
   1   -104.2630342 -0.104263E+03  0.101E-01    1.54       0.0  T
   2   -104.2630766 -0.424157E-04  0.599E-02    1.53       1.0  T
   3   -104.2630603  0.163301E-04  0.272E-02    1.54       1.0  T
   4   -104.2630866 -0.263813E-04  0.695E-03    1.54       1.8  T
   5   -104.2630891 -0.242445E-05  0.223E-03    1.54       5.7  T
   6   -104.2630892 -0.115006E-06  0.121E-03    1.54      10.6  T
   7   -104.2630892 -0.256643E-07  0.537E-04    1.54      23.8  T
   8   -104.2630892 -0.126493E-07  0.180E-04    1.54      71.1  T
     SCC iter.                  ...        0 min,  0.196 sec
     gradient                   ...        0 min,  0.010 sec
 * total energy  :  -102.5131648 Eh     change        0.7652414E-04 Eh
   gradient norm :     0.0187637 Eh/α   predicted     0.0000000E+00 (-100.00%)
   displ. norm   :     0.1213381 α      lambda       -0.9136159E-03
   maximum displ.:     0.0495487 α      in ANC's #4, #6, #2, ...

........................................................................
.............................. CYCLE   22 ..............................
........................................................................

 iter      E             dE          RMSdq      gap      omega  full diag
   1   -104.2662255 -0.104266E+03  0.523E-02    1.54       0.0  T
   2   -104.2662306 -0.518101E-05  0.313E-02    1.54       1.0  T
   3   -104.2662241  0.654111E-05  0.120E-02    1.54       1.1  T
   4   -104.2662322 -0.813658E-05  0.252E-03    1.54       5.1  T
   5   -104.2662326 -0.337841E-06  0.986E-04    1.54      13.0  T
   6   -104.2662326 -0.254313E-07  0.496E-04    1.54      25.8  T
     SCC iter.                  ...        0 min,  0.130 sec
     gradient                   ...        0 min,  0.010 sec
 * total energy  :  -102.5137683 Eh     change       -0.6035088E-03 Eh
   gradient norm :     0.0077822 Eh/α   predicted    -0.4635411E-03 ( -23.19%)
   displ. norm   :     0.1646456 α      lambda       -0.3547971E-03
   maximum displ.:     0.0767443 α      in ANC's #4, #6, #9, ...

........................................................................
.............................. CYCLE   23 ..............................
........................................................................

 iter      E             dE          RMSdq      gap      omega  full diag
   1   -104.2679979 -0.104268E+03  0.484E-02    1.54       0.0  T
   2   -104.2680021 -0.424694E-05  0.281E-02    1.54       1.0  T
   3   -104.2679992  0.290189E-05  0.927E-03    1.54       1.4  T
   4   -104.2680028 -0.360018E-05  0.241E-03    1.54       5.3  T
   5   -104.2680031 -0.317992E-06  0.776E-04    1.54      16.5  T
   6   -104.2680031 -0.123996E-07  0.440E-04    1.54      29.1  T
     SCC iter.                  ...        0 min,  0.166 sec
     gradient                   ...        0 min,  0.016 sec
 * total energy  :  -102.5140205 Eh     change       -0.2521939E-03 Eh
   gradient norm :     0.0038311 Eh/α   predicted    -0.1822869E-03 ( -27.72%)
   displ. norm   :     0.2378829 α      lambda       -0.2684236E-03
   maximum displ.:     0.1190234 α      in ANC's #4, #6, #5, ...

........................................................................
.............................. CYCLE   24 ..............................
........................................................................

 iter      E             dE          RMSdq      gap      omega  full diag
   1   -104.2684434 -0.104268E+03  0.622E-02    1.54       0.0  T
   2   -104.2684478 -0.442198E-05  0.362E-02    1.54       1.0  T
   3   -104.2684444  0.341575E-05  0.915E-03    1.54       1.4  T
   4   -104.2684482 -0.379264E-05  0.285E-03    1.54       4.5  T
   5   -104.2684487 -0.492590E-06  0.788E-04    1.54      16.3  T
   6   -104.2684487 -0.141661E-07  0.436E-04    1.54      29.4  T
     SCC iter.                  ...        0 min,  0.161 sec
     gradient                   ...        0 min,  0.020 sec
 * total energy  :  -102.5142269 Eh     change       -0.2064218E-03 Eh
   gradient norm :     0.0059563 Eh/α   predicted    -0.1418068E-03 ( -31.30%)
   displ. norm   :     0.3101822 α      lambda       -0.2687612E-03
   maximum displ.:     0.1491838 α      in ANC's #6, #4, #5, ...

........................................................................
.............................. CYCLE   25 ..............................
........................................................................

 iter      E             dE          RMSdq      gap      omega  full diag
   1   -104.2677808 -0.104268E+03  0.773E-02    1.54       0.0  T
   2   -104.2677845 -0.366725E-05  0.453E-02    1.54       1.0  T
   3   -104.2677805  0.395669E-05  0.875E-03    1.54       1.5  T
   4   -104.2677848 -0.431898E-05  0.282E-03    1.54       4.5  T
   5   -104.2677853 -0.463302E-06  0.853E-04    1.54      15.0  T
   6   -104.2677853 -0.123732E-07  0.469E-04    1.54      27.3  T
     SCC iter.                  ...        0 min,  0.168 sec
     gradient                   ...        0 min,  0.010 sec
 * total energy  :  -102.5144380 Eh     change       -0.2111141E-03 Eh
   gradient norm :     0.0071462 Eh/α   predicted    -0.1473163E-03 ( -30.22%)
   displ. norm   :     0.3444992 α      lambda       -0.2469285E-03
   maximum displ.:     0.1662260 α      in ANC's #4, #6, #5, ...

........................................................................
.............................. CYCLE   26 ..............................
........................................................................

 iter      E             dE          RMSdq      gap      omega  full diag
   1   -104.2669889 -0.104267E+03  0.832E-02    1.54       0.0  T
   2   -104.2669906 -0.173628E-05  0.488E-02    1.54       1.0  T
   3   -104.2669882  0.235919E-05  0.652E-03    1.54       2.0  T
   4   -104.2669911 -0.284359E-05  0.169E-03    1.54       7.6  T
   5   -104.2669912 -0.110360E-06  0.792E-04    1.54      16.2  T
   6   -104.2669912 -0.115892E-07  0.411E-04    1.54      31.2  T
     SCC iter.                  ...        0 min,  0.144 sec
     gradient                   ...        0 min,  0.010 sec
 * total energy  :  -102.5146261 Eh     change       -0.1880967E-03 Eh
   gradient norm :     0.0061445 Eh/α   predicted    -0.1381173E-03 ( -26.57%)
   displ. norm   :     0.3276762 α      lambda       -0.1817322E-03
   maximum displ.:     0.1538630 α      in ANC's #6, #4, #5, ...

........................................................................
.............................. CYCLE   27 ..............................
........................................................................

 iter      E             dE          RMSdq      gap      omega  full diag
   1   -104.2670743 -0.104267E+03  0.770E-02    1.54       0.0  T
   2   -104.2670753 -0.969674E-06  0.451E-02    1.54       1.0  T
   3   -104.2670744  0.878509E-06  0.463E-03    1.54       2.8  T
   4   -104.2670756 -0.119742E-05  0.135E-03    1.54       9.5  T
   5   -104.2670756 -0.482860E-07  0.725E-04    1.54      17.7  T
   6   -104.2670757 -0.134695E-07  0.337E-04    1.54      38.0  T
     SCC iter.                  ...        0 min,  0.111 sec
     gradient                   ...        0 min,  0.009 sec
 * total energy  :  -102.5147562 Eh     change       -0.1300827E-03 Eh
   gradient norm :     0.0039135 Eh/α   predicted    -0.1006236E-03 ( -22.65%)
   displ. norm   :     0.2251705 α      lambda       -0.9208317E-04
   maximum displ.:     0.1107070 α      in ANC's #5, #6, #4, ...

........................................................................
.............................. CYCLE   28 ..............................
........................................................................

 iter      E             dE          RMSdq      gap      omega  full diag
   1   -104.2683447 -0.104268E+03  0.515E-02    1.54       0.0  T
   2   -104.2683455 -0.811008E-06  0.301E-02    1.54       1.0  T
   3   -104.2683445  0.943294E-06  0.435E-03    1.54       2.9  T
   4   -104.2683456 -0.105686E-05  0.138E-03    1.54       9.3  T
   5   -104.2683457 -0.109458E-06  0.503E-04    1.54      25.4  T
   6   -104.2683457 -0.465536E-08  0.251E-04    1.54      51.1  T
     SCC iter.                  ...        0 min,  0.135 sec
     gradient                   ...        0 min,  0.027 sec
 * total energy  :  -102.5148203 Eh     change       -0.6412347E-04 Eh
   gradient norm :     0.0022440 Eh/α   predicted    -0.4842180E-04 ( -24.49%)
   displ. norm   :     0.1289575 α      lambda       -0.3997780E-04
   maximum displ.:     0.0758669 α      in ANC's #5, #3, #2, ...

........................................................................
.............................. CYCLE   29 ..............................
........................................................................

 iter      E             dE          RMSdq      gap      omega  full diag
   1   -104.2695435 -0.104270E+03  0.291E-02    1.54       0.0  T
   2   -104.2695438 -0.297826E-06  0.170E-02    1.54       1.0  T
   3   -104.2695433  0.527176E-06  0.305E-03    1.54       4.2  T
   4   -104.2695439 -0.570913E-06  0.893E-04    1.54      14.3  T
   5   -104.2695439 -0.488607E-07  0.302E-04    1.54      42.5  T
     SCC iter.                  ...        0 min,  0.103 sec
     gradient                   ...        0 min,  0.012 sec
 * total energy  :  -102.5148495 Eh     change       -0.2924342E-04 Eh
   gradient norm :     0.0018406 Eh/α   predicted    -0.2032166E-04 ( -30.51%)
   displ. norm   :     0.1274267 α      lambda       -0.2519443E-04
   maximum displ.:     0.0867224 α      in ANC's #5, #3, #2, ...

........................................................................
.............................. CYCLE   30 ..............................
........................................................................

 iter      E             dE          RMSdq      gap      omega  full diag
   1   -104.2706819 -0.104271E+03  0.299E-02    1.54       0.0  T
   2   -104.2706821 -0.210256E-06  0.175E-02    1.54       1.0  T
   3   -104.2706815  0.614946E-06  0.322E-03    1.54       4.0  T
   4   -104.2706822 -0.692123E-06  0.763E-04    1.54      16.8  T
   5   -104.2706822 -0.228359E-07  0.324E-04    1.54      39.5  T
     SCC iter.                  ...        0 min,  0.107 sec
     gradient                   ...        0 min,  0.010 sec
 * total energy  :  -102.5148759 Eh     change       -0.2636786E-04 Eh
   gradient norm :     0.0018069 Eh/α   predicted    -0.1268999E-04 ( -51.87%)
   displ. norm   :     0.0933751 α      lambda       -0.1835903E-04
   maximum displ.:     0.0620358 α      in ANC's #5, #3, #2, ...

........................................................................
.............................. CYCLE   31 ..............................
........................................................................

 iter      E             dE          RMSdq      gap      omega  full diag
   1   -104.2705043 -0.104271E+03  0.229E-02    1.54       0.0  T
   2   -104.2705044 -0.129236E-06  0.134E-02    1.54       1.0  T
   3   -104.2705043  0.110973E-06  0.153E-03    1.54       8.4  T
   4   -104.2705044 -0.133209E-06  0.522E-04    1.54      24.5  T
   5   -104.2705044 -0.134615E-07  0.210E-04    1.54      60.9  T
     SCC iter.                  ...        0 min,  0.119 sec
     gradient                   ...        0 min,  0.010 sec
 * total energy  :  -102.5148990 Eh     change       -0.2305745E-04 Eh
   gradient norm :     0.0013752 Eh/α   predicted    -0.9219134E-05 ( -60.02%)
   displ. norm   :     0.1550952 α      lambda       -0.2699769E-04
   maximum displ.:     0.0953922 α      in ANC's #5, #3, #6, ...

........................................................................
.............................. CYCLE   32 ..............................
........................................................................

 iter      E             dE          RMSdq      gap      omega  full diag
   1   -104.2700693 -0.104270E+03  0.367E-02    1.54       0.0  T
   2   -104.2700695 -0.267624E-06  0.214E-02    1.54       1.0  T
   3   -104.2700694  0.977564E-07  0.189E-03    1.54       6.8  T
   4   -104.2700696 -0.143861E-06  0.845E-04    1.54      15.2  T
   5   -104.2700696 -0.268150E-07  0.332E-04    1.54      38.5  T
     SCC iter.                  ...        0 min,  0.141 sec
     gradient                   ...        0 min,  0.018 sec
 * total energy  :  -102.5149315 Eh     change       -0.3257031E-04 Eh
   gradient norm :     0.0016325 Eh/α   predicted    -0.1364479E-04 ( -58.11%)
   displ. norm   :     0.2273141 α      lambda       -0.3236469E-04
   maximum displ.:     0.1395465 α      in ANC's #5, #3, #2, ...

........................................................................
.............................. CYCLE   33 ..............................
........................................................................

 iter      E             dE          RMSdq      gap      omega  full diag
   1   -104.2692528 -0.104269E+03  0.503E-02    1.54       0.0  T
   2   -104.2692532 -0.361935E-06  0.295E-02    1.54       1.0  T
   3   -104.2692528  0.399868E-06  0.316E-03    1.54       4.0  T
   4   -104.2692533 -0.530304E-06  0.776E-04    1.54      16.5  T
   5   -104.2692534 -0.125450E-07  0.383E-04    1.54      33.5  T
     SCC iter.                  ...        0 min,  0.088 sec
     gradient                   ...        0 min,  0.012 sec
 * total energy  :  -102.5149702 Eh     change       -0.3869634E-04 Eh
   gradient norm :     0.0021467 Eh/α   predicted    -0.1655721E-04 ( -57.21%)
   displ. norm   :     0.2068039 α      lambda       -0.3871004E-04
   maximum displ.:     0.1275959 α      in ANC's #5, #3, #2, ...

........................................................................
.............................. CYCLE   34 ..............................
........................................................................

 iter      E             dE          RMSdq      gap      omega  full diag
   1   -104.2688505 -0.104269E+03  0.442E-02    1.54       0.0  T
   2   -104.2688508 -0.309896E-06  0.258E-02    1.54       1.0  T
   3   -104.2688505  0.271051E-06  0.276E-03    1.54       4.6  T
   4   -104.2688509 -0.381342E-06  0.828E-04    1.54      15.5  T
   5   -104.2688509 -0.869390E-08  0.403E-04    1.54      31.7  T
     SCC iter.                  ...        0 min,  0.156 sec
     gradient                   ...        0 min,  0.010 sec
 * total energy  :  -102.5150043 Eh     change       -0.3409064E-04 Eh
   gradient norm :     0.0021537 Eh/α   predicted    -0.2018548E-04 ( -40.79%)
   displ. norm   :     0.3605383 α      lambda       -0.6354152E-04
   maximum displ.:     0.2228123 α      in ANC's #5, #3, #2, ...

........................................................................
.............................. CYCLE   35 ..............................
........................................................................

 iter      E             dE          RMSdq      gap      omega  full diag
   1   -104.2682912 -0.104268E+03  0.756E-02    1.54       0.0  T
   2   -104.2682921 -0.922956E-06  0.442E-02    1.54       1.0  T
   3   -104.2682911  0.102355E-05  0.505E-03    1.54       2.5  T
   4   -104.2682925 -0.138643E-05  0.131E-03    1.54       9.8  T
   5   -104.2682925 -0.197857E-07  0.660E-04    1.54      19.4  T
   6   -104.2682925 -0.143158E-07  0.265E-04    1.54      48.4  T
     SCC iter.                  ...        0 min,  0.167 sec
     gradient                   ...        0 min,  0.019 sec
 * total energy  :  -102.5150559 Eh     change       -0.5153540E-04 Eh
   gradient norm :     0.0019987 Eh/α   predicted    -0.3590316E-04 ( -30.33%)
   displ. norm   :     0.6364472 α      lambda       -0.6196979E-04
   maximum displ.:     0.3935428 α      in ANC's #5, #3, #2, ...

........................................................................
.............................. CYCLE   36 ..............................
........................................................................

 iter      E             dE          RMSdq      gap      omega  full diag
   1   -104.2667621 -0.104267E+03  0.132E-01    1.54       0.0  T
   2   -104.2667651 -0.295543E-05  0.773E-02    1.54       1.0  T
   3   -104.2667616  0.350641E-05  0.911E-03    1.54       1.4  T
   4   -104.2667663 -0.470189E-05  0.222E-03    1.54       5.8  T
   5   -104.2667664 -0.589285E-07  0.111E-03    1.54      11.5  T
   6   -104.2667664 -0.348629E-07  0.473E-04    1.54      27.1  T
   7   -104.2667664 -0.615773E-08  0.191E-04    1.54      66.9  T
     SCC iter.                  ...        0 min,  0.130 sec
     gradient                   ...        0 min,  0.010 sec
 * total energy  :  -102.5151076 Eh     change       -0.5177792E-04 Eh
   gradient norm :     0.0028278 Eh/α   predicted    -0.3656771E-04 ( -29.38%)
   displ. norm   :     0.0893422 α      lambda       -0.3367585E-04
   maximum displ.:     0.0488605 α      in ANC's #5, #2, #3, ...

........................................................................
.............................. CYCLE   37 ..............................
........................................................................

 iter      E             dE          RMSdq      gap      omega  full diag
   1   -104.2691590 -0.104269E+03  0.197E-02    1.54       0.0  T
   2   -104.2691591 -0.977933E-07  0.115E-02    1.54       1.1  T
   3   -104.2691589  0.198063E-06  0.183E-03    1.54       7.0  T
   4   -104.2691591 -0.241400E-06  0.436E-04    1.54      29.4  T
   5   -104.2691591 -0.344207E-08  0.242E-04    1.54      52.8  T
     SCC iter.                  ...        0 min,  0.125 sec
     gradient                   ...        0 min,  0.010 sec
 * total energy  :  -102.5151315 Eh     change       -0.2388006E-04 Eh
   gradient norm :     0.0015567 Eh/α   predicted    -0.1697445E-04 ( -28.92%)
   displ. norm   :     0.2883157 α      lambda       -0.2467390E-04
   maximum displ.:     0.1800517 α      in ANC's #5, #2, #3, ...

........................................................................
.............................. CYCLE   38 ..............................
........................................................................

 iter      E             dE          RMSdq      gap      omega  full diag
   1   -104.2707907 -0.104271E+03  0.602E-02    1.54       0.0  T
   2   -104.2707913 -0.568487E-06  0.353E-02    1.54       1.0  T
   3   -104.2707906  0.658264E-06  0.364E-03    1.54       3.5  T
   4   -104.2707915 -0.908572E-06  0.933E-04    1.54      13.7  T
   5   -104.2707915 -0.100375E-07  0.494E-04    1.54      25.9  T
     SCC iter.                  ...        0 min,  0.100 sec
     gradient                   ...        0 min,  0.009 sec
 * total energy  :  -102.5151545 Eh     change       -0.2300729E-04 Eh
   gradient norm :     0.0013507 Eh/α   predicted    -0.1279687E-04 ( -44.38%)
   displ. norm   :     0.1773450 α      lambda       -0.9964926E-05
   maximum displ.:     0.1195826 α      in ANC's #5, #2, #3, ...

........................................................................
.............................. CYCLE   39 ..............................
........................................................................

 iter      E             dE          RMSdq      gap      omega  full diag
   1   -104.2700119 -0.104270E+03  0.376E-02    1.54       0.0  T
   2   -104.2700122 -0.227439E-06  0.220E-02    1.54       1.0  T
   3   -104.2700120  0.164877E-06  0.204E-03    1.54       6.3  T
   4   -104.2700123 -0.248994E-06  0.552E-04    1.54      23.2  T
   5   -104.2700123 -0.540963E-08  0.287E-04    1.54      44.6  T
     SCC iter.                  ...        0 min,  0.104 sec
     gradient                   ...        0 min,  0.011 sec
 * total energy  :  -102.5151648 Eh     change       -0.1025839E-04 Eh
   gradient norm :     0.0009558 Eh/α   predicted    -0.5057102E-05 ( -50.70%)
   displ. norm   :     0.0730061 α      lambda       -0.8199205E-05
   maximum displ.:     0.0444977 α      in ANC's #5, #10, #1, ...

........................................................................
.............................. CYCLE   40 ..............................
........................................................................

 iter      E             dE          RMSdq      gap      omega  full diag
   1   -104.2704797 -0.104270E+03  0.168E-02    1.54       0.0  T
   2   -104.2704798 -0.117119E-06  0.976E-03    1.54       1.3  T
   3   -104.2704797  0.143245E-06  0.168E-03    1.54       7.6  T
   4   -104.2704799 -0.171028E-06  0.555E-04    1.54      23.1  T
   5   -104.2704799 -0.107950E-07  0.239E-04    1.54      53.7  T
     SCC iter.                  ...        0 min,  0.081 sec
     gradient                   ...        0 min,  0.010 sec
 * total energy  :  -102.5151727 Eh     change       -0.7882569E-05 Eh
   gradient norm :     0.0007927 Eh/α   predicted    -0.4110230E-05 ( -47.86%)
   displ. norm   :     0.0450734 α      lambda       -0.3700464E-05
   maximum displ.:     0.0266340 α      in ANC's #5, #1, #10, ...

........................................................................
.............................. CYCLE   41 ..............................
........................................................................

 iter      E             dE          RMSdq      gap      omega  full diag
   1   -104.2703844 -0.104270E+03  0.996E-03    1.54       0.0  T
   2   -104.2703844 -0.490036E-07  0.580E-03    1.54       2.2  T
   3   -104.2703844  0.511611E-07  0.998E-04    1.54      12.8  T
   4   -104.2703844 -0.626977E-07  0.299E-04    1.54      42.8  T
     SCC iter.                  ...        0 min,  0.065 sec
     gradient                   ...        0 min,  0.010 sec
 * total energy  :  -102.5151765 Eh     change       -0.3879746E-05 Eh
   gradient norm :     0.0007248 Eh/α   predicted    -0.1853275E-05 ( -52.23%)
   displ. norm   :     0.0494684 α      lambda       -0.3779234E-05
   maximum displ.:     0.0254982 α      in ANC's #1, #5, #8, ...

   *** GEOMETRY OPTIMIZATION CONVERGED AFTER 41 ITERATIONS ***

------------------------------------------------------------------------
 total energy gain   :        -0.9060147 Eh     -568.5328 kcal/mol
 total RMSD          :         1.3709674 a0        0.7255 Å
 total power (kW/mol):       -58.0180824 (step) -307.3575 (real)
------------------------------------------------------------------------

 ANCopt (total)                0 d,  0 h,  0 min,  7.739 sec
 optimizer setup                ...        0 min,  0.000 sec (  0.004%)
 model hessian                  ...        0 min,  0.012 sec (  0.160%)
 ANC generation                 ...        0 min,  0.016 sec (  0.201%)
 coordinate transformation      ...        0 min,  0.001 sec (  0.008%)
 single point calculation       ...        0 min,  7.694 sec ( 99.414%)
 optimization log               ...        0 min,  0.005 sec (  0.064%)
 hessian update                 ...        0 min,  0.002 sec (  0.029%)
 rational function              ...        0 min,  0.008 sec (  0.101%)

================
 final structure:
================
 xtb: 6.6.1 (8d0f1dd)
          11142413463D

 61 68  0     0  0            999 V2000
    3.1192    2.3194    0.4306 C   0  0  0  0  0  0  0  0  0  0  0  0
    3.0001    0.9001    0.2742 C   0  0  0  0  0  0  0  0  0  0  0  0
    2.1048    3.2599    0.0447 C   0  0  0  0  0  0  0  0  0  0  0  0
    4.3123    2.8284    0.9741 C   0  0  0  0  0  0  0  0  0  0  0  0
    4.1812    0.1145    0.2681 C   0  0  0  0  0  0  0  0  0  0  0  0
    2.1531    4.5770    0.5634 C   0  0  0  0  0  0  0  0  0  0  0  0
    5.4592    2.0009    1.0509 C   0  0  0  0  0  0  0  0  0  0  0  0
    4.3585    4.1708    1.4364 C   0  0  0  0  0  0  0  0  0  0  0  0
    5.4159    0.7161    0.6139 C   0  0  0  0  0  0  0  0  0  0  0  0
    3.2828    4.9871    1.3201 C   0  0  0  0  0  0  0  0  0  0  0  0
    1.7793    0.1860    0.2540 C   0  0  0  0  0  0  0  0  0  0  0  0
    1.1399    2.9767   -0.9383 C   0  0  0  0  0  0  0  0  0  0  0  0
    4.1219   -1.2735   -0.0022 C   0  0  0  0  0  0  0  0  0  0  0  0
    1.1270    5.4830    0.2434 C   0  0  0  0  0  0  0  0  0  0  0  0
    1.7372   -1.2044    0.0581 C   0  0  0  0  0  0  0  0  0  0  0  0
    0.1744    3.8927   -1.2688 C   0  0  0  0  0  0  0  0  0  0  0  0
    2.9331   -1.9216   -0.1411 C   0  0  0  0  0  0  0  0  0  0  0  0
    0.1351    5.1383   -0.6363 C   0  0  0  0  0  0  0  0  0  0  0  0
    6.3775    2.4278    1.4272 H   0  0  0  0  0  0  0  0  0  0  0  0
    5.2670    4.5143    1.9103 H   0  0  0  0  0  0  0  0  0  0  0  0
    6.3072    0.1059    0.5959 H   0  0  0  0  0  0  0  0  0  0  0  0
    3.2961    5.9873    1.7288 H   0  0  0  0  0  0  0  0  0  0  0  0
    1.1947    2.0434   -1.4770 H   0  0  0  0  0  0  0  0  0  0  0  0
    5.0526   -1.8184   -0.0647 H   0  0  0  0  0  0  0  0  0  0  0  0
    1.1557    6.4718    0.6793 H   0  0  0  0  0  0  0  0  0  0  0  0
   -0.5537    3.6573   -2.0306 H   0  0  0  0  0  0  0  0  0  0  0  0
    2.8868   -2.9816   -0.3385 H   0  0  0  0  0  0  0  0  0  0  0  0
   -0.6488    5.8401   -0.8805 H   0  0  0  0  0  0  0  0  0  0  0  0
   -1.9127   -0.9201    0.7121 C   0  0  0  0  0  0  0  0  0  0  0  0
   -2.5628    0.2131    0.8927 N   0  0  0  0  0  0  0  0  0  0  0  0
   -3.8839    0.1452    1.1573 N   0  0  0  0  0  0  0  0  0  0  0  0
   -4.5452   -1.0712    1.3038 C   0  0  0  0  0  0  0  0  0  0  0  0
   -3.7830   -2.1784    0.9428 N   0  0  0  0  0  0  0  0  0  0  0  0
   -2.4552   -2.1232    0.6895 N   0  0  0  0  0  0  0  0  0  0  0  0
   -5.6746   -1.1703    1.7245 O   0  0  0  0  0  0  0  0  0  0  0  0
    0.1971    0.7997    0.6496 S   0  0  0  0  0  0  0  0  0  0  0  0
   -0.4920   -0.7879    0.4935 C   0  0  0  0  0  0  0  0  0  0  0  0
    0.4272   -1.7356    0.1692 C   0  0  0  0  0  0  0  0  0  0  0  0
   -4.3313   -3.4754    0.9219 C   0  0  0  0  0  0  0  0  0  0  0  0
   -5.6639   -3.7067    0.5924 C   0  0  0  0  0  0  0  0  0  0  0  0
   -6.1424   -5.0034    0.5645 C   0  0  0  0  0  0  0  0  0  0  0  0
   -5.3084   -6.0715    0.8491 C   0  0  0  0  0  0  0  0  0  0  0  0
   -3.9777   -5.8394    1.1595 C   0  0  0  0  0  0  0  0  0  0  0  0
   -3.4868   -4.5502    1.1962 C   0  0  0  0  0  0  0  0  0  0  0  0
   -4.5044    1.3958    1.3336 C   0  0  0  0  0  0  0  0  0  0  0  0
   -3.6797    2.5077    1.5231 C   0  0  0  0  0  0  0  0  0  0  0  0
   -4.2330    3.7628    1.6676 C   0  0  0  0  0  0  0  0  0  0  0  0
   -5.6083    3.9312    1.6274 C   0  0  0  0  0  0  0  0  0  0  0  0
   -6.4248    2.8296    1.4336 C   0  0  0  0  0  0  0  0  0  0  0  0
   -5.8866    1.5651    1.2816 C   0  0  0  0  0  0  0  0  0  0  0  0
   -2.6112    2.3682    1.5504 H   0  0  0  0  0  0  0  0  0  0  0  0
   -3.5847    4.6134    1.8156 H   0  0  0  0  0  0  0  0  0  0  0  0
   -6.0403    4.9134    1.7451 H   0  0  0  0  0  0  0  0  0  0  0  0
   -7.4968    2.9518    1.3948 H   0  0  0  0  0  0  0  0  0  0  0  0
   -6.5389    0.7228    1.1301 H   0  0  0  0  0  0  0  0  0  0  0  0
   -6.3220   -2.8865    0.3605 H   0  0  0  0  0  0  0  0  0  0  0  0
   -7.1771   -5.1783    0.3104 H   0  0  0  0  0  0  0  0  0  0  0  0
   -5.6924   -7.0801    0.8265 H   0  0  0  0  0  0  0  0  0  0  0  0
   -3.3200   -6.6669    1.3805 H   0  0  0  0  0  0  0  0  0  0  0  0
   -2.4548   -4.3516    1.4375 H   0  0  0  0  0  0  0  0  0  0  0  0
    0.1803   -2.7721    0.0311 H   0  0  0  0  0  0  0  0  0  0  0  0
  1  2  1  0  0  0  0
  1  3  1  0  0  0  0
  1  4  2  0  0  0  0
  2  5  1  0  0  0  0
  2 11  2  0  0  0  0
  3  6  1  0  0  0  0
  3 12  2  0  0  0  0
  4  7  1  0  0  0  0
  4  8  1  0  0  0  0
  5  9  1  0  0  0  0
  5 13  2  0  0  0  0
  6 10  1  0  0  0  0
  6 14  2  0  0  0  0
  7  9  2  0  0  0  0
  7 19  1  0  0  0  0
  8 10  2  0  0  0  0
  8 20  1  0  0  0  0
  9 21  1  0  0  0  0
 10 22  1  0  0  0  0
 11 15  1  0  0  0  0
 11 36  1  0  0  0  0
 12 16  1  0  0  0  0
 12 23  1  0  0  0  0
 13 17  1  0  0  0  0
 13 24  1  0  0  0  0
 14 18  1  0  0  0  0
 14 25  1  0  0  0  0
 15 17  2  0  0  0  0
 16 18  2  0  0  0  0
 16 26  1  0  0  0  0
 17 27  1  0  0  0  0
 18 28  1  0  0  0  0
 29 30  2  0  0  0  0
 29 37  1  0  0  0  0
 30 31  1  0  0  0  0
 31 45  1  0  0  0  0
 31 32  1  0  0  0  0
 32 33  1  0  0  0  0
 32 35  2  0  0  0  0
 33 39  1  0  0  0  0
 33 34  1  0  0  0  0
 34 29  1  0  0  0  0
 36 37  1  0  0  0  0
 37 38  2  0  0  0  0
 38 15  1  0  0  0  0
 38 61  1  0  0  0  0
 39 40  2  0  0  0  0
 39 44  1  0  0  0  0
 40 41  1  0  0  0  0
 40 56  1  0  0  0  0
 41 42  2  0  0  0  0
 41 57  1  0  0  0  0
 42 43  1  0  0  0  0
 42 58  1  0  0  0  0
 43 44  2  0  0  0  0
 43 59  1  0  0  0  0
 44 60  1  0  0  0  0
 45 46  2  0  0  0  0
 45 50  1  0  0  0  0
 46 47  1  0  0  0  0
 46 51  1  0  0  0  0
 47 48  2  0  0  0  0
 47 52  1  0  0  0  0
 48 49  1  0  0  0  0
 48 53  1  0  0  0  0
 49 50  2  0  0  0  0
 49 54  1  0  0  0  0
 50 55  1  0  0  0  0
M  END

 Bond Distances (Angstroems)
 ---------------------------
C1-C2=1.4329         C1-C3=1.4361         C1-C4=1.4064         C2-C1=1.4329         C2-C5=1.4186         C2-C11=1.4145        
C3-C1=1.4361         C3-C6=1.4164         C3-C12=1.4063        C4-C1=1.4064         C4-C7=1.4164         C4-C8=1.4205         
C5-C2=1.4186         C5-C9=1.4163         C5-C13=1.4153        C6-C3=1.4164         C6-C10=1.4203        C6-C14=1.4057        
C7-C4=1.4164         C7-C9=1.3577         C7-H19=1.0804        C8-C4=1.4205         C8-C10=1.3553        C8-H20=1.0807        
C9-C5=1.4163         C9-C7=1.3577         C9-H21=1.0803        C10-C6=1.4203        C10-C8=1.3553        C10-H22=1.0806       
C11-C2=1.4145        C11-C15=1.4048       C11-S36=1.7425       C12-C3=1.4063        C12-C16=1.3712       C12-H23=1.0790       
C13-C5=1.4153        C13-C17=1.3610       C13-H24=1.0803       C14-C6=1.4057        C14-C18=1.3699       C14-H25=1.0810       
C15-C11=1.4048       C15-C17=1.4087       C15-C38=1.4180       C16-C12=1.3712       C16-C18=1.3976       C16-H26=1.0798       
C17-C13=1.3610       C17-C15=1.4087       C17-H27=1.0793       C18-C14=1.3699       C18-C16=1.3976       C18-H28=1.0801       
H19-C7=1.0804        H20-C8=1.0807        H21-C9=1.0803        H22-C10=1.0806       H23-C12=1.0790       H24-C13=1.0803       
H25-C14=1.0810       H26-C16=1.0798       H27-C17=1.0793       H28-C18=1.0801       C29-N30=1.3189       C29-N34=1.3199       
C29-C37=1.4435       N30-C29=1.3189       N30-N31=1.3491       N31-N30=1.3491       N31-C32=1.3923       N31-C45=1.4071       
C32-N31=1.3923       C32-N33=1.3918       C32-O35=1.2093       N33-C32=1.3918       N33-N34=1.3529       N33-C39=1.4082       
N34-C29=1.3199       N34-N33=1.3529       O35-C32=1.2093       S36-C11=1.7425       S36-C37=1.7377       C37-C29=1.4435       
C37-S36=1.7377       C37-C38=1.3595       C38-C15=1.4180       C38-C37=1.3595       C38-H61=1.0745       C39-N33=1.4082       
C39-C40=1.3921       C39-C44=1.3941       C40-C39=1.3921       C40-C41=1.3825       C40-H56=1.0769       C41-C40=1.3825       
C41-C42=1.3848       C41-H57=1.0797       C42-C41=1.3848       C42-C43=1.3860       C42-H58=1.0795       C43-C42=1.3860       
C43-C44=1.3800       C43-H59=1.0799       C44-C39=1.3941       C44-C43=1.3800       C44-H60=1.0783       C45-N31=1.4071       
C45-C46=1.3973       C45-C50=1.3936       C46-C45=1.3973       C46-C47=1.3792       C46-H51=1.0779       C47-C46=1.3792       
C47-C48=1.3862       C47-H52=1.0797       C48-C47=1.3862       C48-C49=1.3848       C48-H53=1.0795       C49-C48=1.3848       
C49-C50=1.3826       C49-H54=1.0797       C50-C45=1.3936       C50-C49=1.3826       C50-H55=1.0761       H51-C46=1.0779       
H52-C47=1.0797       H53-C48=1.0795       H54-C49=1.0797       H55-C50=1.0761       H56-C40=1.0769       H57-C41=1.0797       
H58-C42=1.0795       H59-C43=1.0799       H60-C44=1.0783       H61-C38=1.0745       
 C  H  Rav=1.0792 sigma=0.0016  Rmin=1.0745  Rmax=1.0810    21
 C  C  Rav=1.3977 sigma=0.0225  Rmin=1.3553  Rmax=1.4435    36
 N  C  Rav=1.3730 sigma=0.0384  Rmin=1.3189  Rmax=1.4082     6
 N  N  Rav=1.3510 sigma=0.0019  Rmin=1.3491  Rmax=1.3529     2
 O  C  Rav=1.2093 sigma=0.0000  Rmin=1.2093  Rmax=1.2093     1
 S  C  Rav=1.7401 sigma=0.0024  Rmin=1.7377  Rmax=1.7425     2

 selected bond angles (degree)
 --------------------
C3-C1-C2=124.10                C4-C1-C2=118.11                C4-C1-C3=117.78                C5-C2-C1=118.68                
C11-C2-C1=124.99               C11-C2-C5=116.04               C6-C3-C1=119.11                C12-C3-C1=122.73               
C12-C3-C6=117.81               C7-C4-C1=119.76                C8-C4-C1=119.70                C8-C4-C7=120.54                
C9-C5-C2=119.31                C13-C5-C2=120.60               C13-C5-C9=119.98               C10-C6-C3=119.39               
C14-C6-C3=119.41               C14-C6-C10=121.05              C9-C7-C4=120.64                H19-C7-C4=118.45               
H19-C7-C9=120.87               C10-C8-C4=121.02               H20-C8-C4=118.06               H20-C8-C10=120.89              
C7-C9-C5=120.55                H21-C9-C5=118.38               H21-C9-C7=120.90               C8-C10-C6=120.21               
H22-C10-C6=118.59              H22-C10-C8=121.02              

 selected dihedral angles (degree)
 ---------------------------------
C5-C2-C1-C3=159.53            C5-C2-C1-C4=340.69            C11-C2-C1-C3=332.98           C11-C2-C1-C4=154.14           
C6-C3-C1-C2=162.81            C6-C3-C1-C4=341.66            C12-C3-C1-C2=335.89           C12-C3-C1-C4=154.74           
C7-C4-C1-C2= 15.04            C7-C4-C1-C3=196.12            C8-C4-C1-C2=194.78            C8-C4-C1-C3= 15.86            
C9-C5-C2-C1=  9.40            C9-C5-C2-C11=195.37           C13-C5-C2-C1=185.66           C13-C5-C2-C11= 11.64          
C10-C6-C3-C1=  7.52           C10-C6-C3-C12=194.11          C14-C6-C3-C1=183.16           C14-C6-C3-C12=  9.74          
C9-C7-C4-C1=359.50            C9-C7-C4-C8=179.77            H19-C7-C4-C1=177.04           H19-C7-C4-C8=357.31           
C10-C8-C4-C1=357.68           C10-C8-C4-C7=177.41           H20-C8-C4-C1=175.91           H20-C8-C4-C7=355.65           
C7-C9-C5-C2=  5.28            C7-C9-C5-C13=188.99           H21-C9-C5-C2=180.53           H21-C9-C5-C13=  4.24          
C5-C9-C7-C4=350.13            C5-C9-C7-H19=172.65           H21-C9-C7-C4=175.00           H21-C9-C7-H19=357.52          
C8-C10-C6-C3=  6.27           C8-C10-C6-C14=190.70          H22-C10-C6-C3=181.38          H22-C10-C6-C14=  5.81         
C6-C10-C8-C4=351.00           C6-C10-C8-H20=172.82          H22-C10-C8-C4=176.01          H22-C10-C8-H20=357.82         
           -------------------------------------------------
          |                Final Singlepoint                |
           -------------------------------------------------

          ...................................................
          :                      SETUP                      :
          :.................................................:
          :  # basis functions                 187          :
          :  # atomic orbitals                 186          :
          :  # shells                          102          :
          :  # electrons                       189          :
          :  max. iterations                   250          :
          :  Hamiltonian                  GFN2-xTB          :
          :  restarted?                      false          :
          :  GBSA solvation                  false          :
          :  PC potential                    false          :
          :  electronic temp.          300.0000000     K    :
          :  accuracy                    1.0000000          :
          :  -> integral cutoff          0.2500000E+02      :
          :  -> integral neglect         0.1000000E-07      :
          :  -> SCF convergence          0.1000000E-05 Eh   :
          :  -> wf. convergence          0.1000000E-03 e    :
          :  Broyden damping             0.4000000          :
          ...................................................

 iter      E             dE          RMSdq      gap      omega  full diag
   1   -104.2703844 -0.104270E+03  0.136E-04    1.54       0.0  T
   2   -104.2703844 -0.142336E-09  0.980E-05    1.54     130.6  T
   3   -104.2703844 -0.479830E-09  0.441E-05    1.54     290.4  T

   *** convergence criteria satisfied after 3 iterations ***

         #    Occupation            Energy/Eh            Energy/eV
      -------------------------------------------------------------
         1        2.0000           -0.7314999             -19.9051
       ...           ...                  ...                  ...
        89        2.0000           -0.4042131             -10.9992
        90        2.0000           -0.3927808             -10.6881
        91        2.0000           -0.3832543             -10.4289
        92        2.0000           -0.3789996             -10.3131
        93        2.0000           -0.3725179             -10.1367
        94        2.0000           -0.3707566             -10.0888
        95        1.0000           -0.3369230              -9.1681 (HOMO)
        96                         -0.2802657              -7.6264 (LUMO)
        97                         -0.2679762              -7.2920
        98                         -0.2532890              -6.8923
        99                         -0.2446887              -6.6583
       100                         -0.2317721              -6.3068
       ...                                ...                  ...
       186                          0.7185074              19.5516
      -------------------------------------------------------------
                  HL-Gap            0.0566573 Eh            1.5417 eV
             Fermi-level           -0.3311825 Eh           -9.0119 eV

 transition dipole moment (au) for excitation:          94          95
     X       Y       Z   
   0.0848  -0.6928  -0.0745  total (au/Debye):    0.702   1.784
 dE (eV)             :    0.921
 oscillator strength :  0.15718E-01

 SCC (total)                   0 d,  0 h,  0 min,  0.095 sec
 SCC setup                      ...        0 min,  0.000 sec (  0.159%)
 Dispersion                     ...        0 min,  0.000 sec (  0.439%)
 classical contributions        ...        0 min,  0.000 sec (  0.099%)
 integral evaluation            ...        0 min,  0.002 sec (  2.325%)
 iterations                     ...        0 min,  0.073 sec ( 76.661%)
 molecular gradient             ...        0 min,  0.010 sec ( 10.068%)
 printout                       ...        0 min,  0.010 sec ( 10.239%)

         :::::::::::::::::::::::::::::::::::::::::::::::::::::
         ::                     SUMMARY                     ::
         :::::::::::::::::::::::::::::::::::::::::::::::::::::
         :: total energy            -102.515176552285 Eh    ::
         :: gradient norm              0.000725034071 Eh/a0 ::
         :: HOMO-LUMO gap              1.541723998423 eV    ::
         ::.................................................::
         :: SCC energy              -104.270384422934 Eh    ::
         :: -> isotropic ES            0.051596861564 Eh    ::
         :: -> anisotropic ES          0.004618901694 Eh    ::
         :: -> anisotropic XC          0.059766536444 Eh    ::
         :: -> dispersion             -0.088135177678 Eh    ::
         :: repulsion energy           1.755467811794 Eh    ::
         :: add. restraining           0.000000000000 Eh    ::
         :: total charge               0.000000000005 e     ::
         :::::::::::::::::::::::::::::::::::::::::::::::::::::

           -------------------------------------------------
          |                Property Printout                |
           -------------------------------------------------

    * Orbital Energies and Occupations

         #    Occupation            Energy/Eh            Energy/eV
      -------------------------------------------------------------
         1        2.0000           -0.7314999             -19.9051
       ...           ...                  ...                  ...
        83        2.0000           -0.4196890             -11.4203
        84        2.0000           -0.4144825             -11.2786
        85        2.0000           -0.4139804             -11.2650
        86        2.0000           -0.4138531             -11.2615
        87        2.0000           -0.4111837             -11.1889
        88        2.0000           -0.4106716             -11.1749
        89        2.0000           -0.4042131             -10.9992
        90        2.0000           -0.3927808             -10.6881
        91        2.0000           -0.3832543             -10.4289
        92        2.0000           -0.3789996             -10.3131
        93        2.0000           -0.3725179             -10.1367
        94        2.0000           -0.3707566             -10.0888
        95        1.0000           -0.3369230              -9.1681 (HOMO)
        96                         -0.2802657              -7.6264 (LUMO)
        97                         -0.2679762              -7.2920
        98                         -0.2532890              -6.8923
        99                         -0.2446887              -6.6583
       100                         -0.2317721              -6.3068
       101                         -0.2288009              -6.2260
       102                         -0.2266626              -6.1678
       103                         -0.2225012              -6.0546
       104                         -0.2141715              -5.8279
       105                         -0.2000356              -5.4432
       106                         -0.1931412              -5.2556
       ...                                ...                  ...
       186                          0.7185074              19.5516
      -------------------------------------------------------------
                  HL-Gap            0.0566573 Eh            1.5417 eV
             Fermi-level           -0.3311825 Eh           -9.0119 eV

     #   Z          covCN         q      C6AA      α(0)
     1   6 C        2.980     0.003    27.952     8.672
     2   6 C        2.992     0.001    27.989     8.678
     3   6 C        2.984     0.009    27.807     8.650
     4   6 C        2.988     0.012    27.746     8.641
     5   6 C        2.991     0.010    27.788     8.647
     6   6 C        2.989     0.013    27.721     8.637
     7   6 C        2.917    -0.036    28.907     8.817
     8   6 C        2.917    -0.037    28.924     8.819
     9   6 C        2.917    -0.036    28.907     8.817
    10   6 C        2.915    -0.036    28.884     8.813
    11   6 C        2.998     0.023    27.473     8.598
    12   6 C        2.933    -0.030    28.760     8.795
    13   6 C        2.921    -0.041    29.007     8.832
    14   6 C        2.922    -0.035    28.873     8.812
    15   6 C        3.157     0.000    27.717     8.608
    16   6 C        2.918    -0.029    28.713     8.787
    17   6 C        2.911    -0.035    28.877     8.812
    18   6 C        2.916    -0.029    28.729     8.789
    19   1 H        0.926     0.034     2.527     2.486
    20   1 H        0.926     0.033     2.547     2.496
    21   1 H        0.926     0.034     2.526     2.485
    22   1 H        0.926     0.033     2.548     2.496
    23   1 H        0.926     0.037     2.487     2.466
    24   1 H        0.926     0.036     2.500     2.473
    25   1 H        0.926     0.032     2.563     2.504
    26   1 H        0.926     0.033     2.551     2.497
    27   1 H        0.926     0.038     2.477     2.461
    28   1 H        0.926     0.031     2.576     2.510
    29   6 C        2.920     0.165    24.448     8.108
    30   7 N        1.945    -0.243    27.176     7.730
    31   7 N        2.844     0.036    20.618     6.744
    32   6 C        2.701     0.304    21.834     7.648
    33   7 N        2.852     0.033    20.661     6.751
    34   7 N        1.926    -0.250    27.350     7.754
    35   8 O        0.858    -0.433    22.344     6.338
    36  16 S        2.323    -0.026   142.144    20.066
    37   6 C        3.012     0.014    27.673     8.629
    38   6 C        3.068    -0.049    29.142     8.852
    39   6 C        2.930     0.067    26.502     8.443
    40   6 C        2.919    -0.034    28.857     8.809
    41   6 C        2.921    -0.026    28.640     8.776
    42   6 C        2.919    -0.029    28.728     8.789
    43   6 C        2.920    -0.026    28.655     8.778
    44   6 C        2.923    -0.035    28.863     8.810
    45   6 C        2.928     0.065    26.541     8.449
    46   6 C        2.924    -0.037    28.914     8.818
    47   6 C        2.920    -0.026    28.650     8.778
    48   6 C        2.918    -0.030    28.739     8.791
    49   6 C        2.921    -0.027    28.667     8.780
    50   6 C        2.918    -0.040    29.004     8.832
    51   1 H        0.926     0.067     2.118     2.276
    52   1 H        0.926     0.041     2.433     2.439
    53   1 H        0.926     0.039     2.466     2.456
    54   1 H        0.926     0.042     2.425     2.435
    55   1 H        0.926     0.069     2.092     2.262
    56   1 H        0.926     0.062     2.179     2.308
    57   1 H        0.926     0.043     2.405     2.425
    58   1 H        0.926     0.040     2.448     2.447
    59   1 H        0.926     0.042     2.428     2.437
    60   1 H        0.926     0.060     2.199     2.319
    61   1 H        0.926     0.054     2.270     2.356

 Mol. C6AA /au·bohr⁶  :      61850.696652
 Mol. C8AA /au·bohr⁸  :    1631768.117522
 Mol. α(0) /au        :        401.729591


Wiberg/Mayer (AO) data.
largest (>0.10) Wiberg bond orders for each atom

 ---------------------------------------------------------------------------
     #   Z sym  total        # sym  WBO       # sym  WBO       # sym  WBO
 ---------------------------------------------------------------------------
     1   6 C    3.986 --     4 C    1.329     2 C    1.207     3 C    1.185
     2   6 C    3.986 --     5 C    1.278    11 C    1.265     1 C    1.207
     3   6 C    3.989 --    12 C    1.310     6 C    1.274     1 C    1.185
     4   6 C    3.989 --     1 C    1.329     7 C    1.241     8 C    1.225
     5   6 C    3.980 --     2 C    1.278    13 C    1.259     9 C    1.244
     6   6 C    3.986 --    14 C    1.305     3 C    1.274    10 C    1.223
     7   6 C    3.969 --     9 C    1.600     4 C    1.241    19 H    0.967
     8   6 C    3.987 --    10 C    1.623     4 C    1.225    20 H    0.967
     9   6 C    3.981 --     7 C    1.600     5 C    1.244    21 H    0.967
    10   6 C    3.983 --     8 C    1.623     6 C    1.223    22 H    0.967
    11   6 C    3.948 --    15 C    1.320     2 C    1.265    36 S    1.130
    12   6 C    3.992 --    16 C    1.518     3 C    1.310    23 H    0.965
                            14 C    0.111
    13   6 C    3.985 --    17 C    1.584     5 C    1.259    24 H    0.967
    14   6 C    3.985 --    18 C    1.526     6 C    1.305    25 H    0.968
                            12 C    0.111
    15   6 C    3.982 --    11 C    1.320    17 C    1.252    38 C    1.226
    16   6 C    3.988 --    12 C    1.518    18 C    1.349    26 H    0.971
    17   6 C    3.974 --    13 C    1.584    15 C    1.252    27 H    0.967
    18   6 C    3.982 --    14 C    1.526    16 C    1.349    28 H    0.971
    19   1 H    0.998 --     7 C    0.967
    20   1 H    0.998 --     8 C    0.967
    21   1 H    0.997 --     9 C    0.967
    22   1 H    0.997 --    10 C    0.967
    23   1 H    0.998 --    12 C    0.965
    24   1 H    0.997 --    13 C    0.967
    25   1 H    0.998 --    14 C    0.968
    26   1 H    0.998 --    16 C    0.971
    27   1 H    0.998 --    17 C    0.967
    28   1 H    0.998 --    18 C    0.971
    29   6 C    3.971 --    30 N    1.375    34 N    1.372    37 C    1.080
    30   7 N    2.922 --    29 C    1.375    31 N    1.160    34 N    0.125
    31   7 N    3.626 --    30 N    1.160    32 C    1.088    45 C    1.049
                            35 O    0.121
    32   6 C    3.959 --    35 O    1.642    33 N    1.091    31 N    1.088
    33   7 N    3.617 --    34 N    1.157    32 C    1.091    39 C    1.039
                            35 O    0.125
    34   7 N    2.899 --    29 C    1.372    33 N    1.157    30 N    0.125
    35   8 O    2.005 --    32 C    1.642    33 N    0.125    31 N    0.121
    36  16 S    2.603 --    11 C    1.130    37 C    1.116
    37   6 C    3.944 --    38 C    1.567    36 S    1.116    29 C    1.080
    38   6 C    3.975 --    37 C    1.567    15 C    1.226    61 H    0.961
    39   6 C    3.952 --    40 C    1.371    44 C    1.363    33 N    1.039
    40   6 C    3.984 --    41 C    1.452    39 C    1.371    56 H    0.965
                            43 C    0.105
    41   6 C    3.990 --    40 C    1.452    42 C    1.433    57 H    0.970
                            44 C    0.106
    42   6 C    3.975 --    41 C    1.433    43 C    1.425    58 H    0.971
    43   6 C    3.991 --    44 C    1.461    42 C    1.425    59 H    0.970
                            40 C    0.105
    44   6 C    3.984 --    43 C    1.461    39 C    1.363    60 H    0.964
                            41 C    0.106
    45   6 C    3.950 --    50 C    1.365    46 C    1.353    31 N    1.049
    46   6 C    3.983 --    47 C    1.466    45 C    1.353    51 H    0.962
                            49 C    0.105
    47   6 C    3.990 --    46 C    1.466    48 C    1.422    52 H    0.970
                            50 C    0.103
    48   6 C    3.972 --    49 C    1.432    47 C    1.422    53 H    0.971
    49   6 C    3.990 --    50 C    1.453    48 C    1.432    54 H    0.970
                            46 C    0.105
    50   6 C    3.982 --    49 C    1.453    45 C    1.365    55 H    0.961
                            47 C    0.103
    51   1 H    0.995 --    46 C    0.962
    52   1 H    0.998 --    47 C    0.970
    53   1 H    0.998 --    48 C    0.971
    54   1 H    0.998 --    49 C    0.970
    55   1 H    0.995 --    50 C    0.961
    56   1 H    0.996 --    40 C    0.965
    57   1 H    0.997 --    41 C    0.970
    58   1 H    0.998 --    42 C    0.971
    59   1 H    0.998 --    43 C    0.970
    60   1 H    0.996 --    44 C    0.964
    61   1 H    0.996 --    38 C    0.961
 ---------------------------------------------------------------------------

Topologies differ in bond orders
Writing corrected topology to xtbtopo.mol

molecular dipole:
                 x           y           z       tot (Debye)
 q only:        0.663       0.185      -0.368
   full:        0.552      -0.046      -0.344       1.656
molecular quadrupole (traceless):
                xx          xy          yy          xz          yz          zz
 q only:       -4.605      -1.324      17.960       8.928       3.758     -13.355
  q+dip:        1.564      -2.782      21.619      15.085       6.500     -23.183
   full:       -3.009      -1.604      15.367      11.687       3.548     -12.358

           -------------------------------------------------
          |                Geometry Summary                 |
           -------------------------------------------------

      molecular mass/u    :      533.6227815
   center of mass at/Å    :       -0.8733083       0.4285674       0.6940569
  moments of inertia/u·Å² :        0.3718321E+04   0.9067651E+04   0.1238532E+05
rotational constants/cm⁻¹ :        0.4533667E-02   0.1859096E-02   0.1361097E-02

 * 66 selected distances

     #   Z          #   Z                                           value/Å
     1   6 C        2   6 C                                       1.4328524
     1   6 C        4   6 C                                       1.4063997
     2   6 C        5   6 C                                       1.4185771
     3   6 C        6   6 C                                       1.4163666
     4   6 C        7   6 C                                       1.4164181
     4   6 C        8   6 C                                       1.4205269
     5   6 C        9   6 C                                       1.4163377
     7   6 C        9   6 C                                       1.3577393
     6   6 C       10   6 C                                       1.4202524
     8   6 C       10   6 C                                       1.3553178
     2   6 C       11   6 C                                       1.4144527
     3   6 C       12   6 C                                       1.4063135
     5   6 C       13   6 C                                       1.4153263
     6   6 C       14   6 C                                       1.4057307
    11   6 C       15   6 C                                       1.4047675
    12   6 C       16   6 C                                       1.3712323
    13   6 C       17   6 C                                       1.3610121
    15   6 C       17   6 C                                       1.4086798
    14   6 C       18   6 C                                       1.3698627
    16   6 C       18   6 C                                       1.3975862
     7   6 C       19   1 H                                       1.0803609
     8   6 C       20   1 H                                       1.0806827
     9   6 C       21   1 H                                       1.0803267
    10   6 C       22   1 H                                       1.0805982
    12   6 C       23   1 H                                       1.0790219
    13   6 C       24   1 H                                       1.0803041
    14   6 C       25   1 H                                       1.0809575
    16   6 C       26   1 H                                       1.0797502
    17   6 C       27   1 H                                       1.0792944
    18   6 C       28   1 H                                       1.0801039
    29   6 C       30   7 N                                       1.3189270
    30   7 N       31   7 N                                       1.3490986
    31   7 N       32   6 C                                       1.3922661
    32   6 C       33   7 N                                       1.3918475
    29   6 C       34   7 N                                       1.3199282
    33   7 N       34   7 N                                       1.3529452
    32   6 C       35   8 O                                       1.2092925
    11   6 C       36  16 S                                       1.7425333 (max)
    36  16 S       37   6 C                                       1.7377093
    15   6 C       38   6 C                                       1.4179592
    37   6 C       38   6 C                                       1.3594978
    33   7 N       39   6 C                                       1.4082175
    39   6 C       40   6 C                                       1.3920808
    40   6 C       41   6 C                                       1.3824513
    41   6 C       42   6 C                                       1.3847679
    42   6 C       43   6 C                                       1.3860149
    39   6 C       44   6 C                                       1.3940895
    43   6 C       44   6 C                                       1.3799853
    31   7 N       45   6 C                                       1.4070959
    45   6 C       46   6 C                                       1.3973151
    46   6 C       47   6 C                                       1.3792064
    47   6 C       48   6 C                                       1.3861682
    48   6 C       49   6 C                                       1.3848153
    45   6 C       50   6 C                                       1.3935718
    49   6 C       50   6 C                                       1.3825732
    46   6 C       51   1 H                                       1.0778978
    47   6 C       52   1 H                                       1.0796812
    48   6 C       53   1 H                                       1.0795155
    49   6 C       54   1 H                                       1.0797034
    50   6 C       55   1 H                                       1.0761188
    40   6 C       56   1 H                                       1.0768828
    41   6 C       57   1 H                                       1.0796755
    42   6 C       58   1 H                                       1.0794952
    43   6 C       59   1 H                                       1.0799246
    44   6 C       60   1 H                                       1.0783004
    38   6 C       61   1 H                                       1.0744725 (min)

 * 6 distinct bonds (by element types)

   Z      Z             #   av. dist./Å        max./Å        min./Å
   1 H    6 C          21     1.0791937     1.0809575     1.0744725
   6 C    6 C          34     1.3951838     1.4328524     1.3553178
   6 C    7 N           6     1.3730470     1.4082175     1.3189270
   7 N    7 N           2     1.3510219     1.3529452     1.3490986
   6 C    8 O           1     1.2092925     1.2092925     1.2092925
   6 C   16 S           2     1.7401213     1.7425333     1.7377093


optimized geometry written to: xtbopt.mol


           -------------------------------------------------
          | TOTAL ENERGY             -102.515176552285 Eh   |
          | GRADIENT NORM               0.000725034071 Eh/α |
          | HOMO-LUMO GAP               1.541723998423 eV   |
           -------------------------------------------------
########################################################################
[WARNING] Runtime exception occurred
-3- restart_readRestart: Dimension missmatch in restart file.
Note: The following floating-point exceptions are signalling: IEEE_UNDERFLOW_FLAG
normal termination of xtb
-2- restart_readRestart: Multiplicity missmatch in restart file.
-1- restart_readRestart: Number of electron missmatch in restart file.
########################################################################

------------------------------------------------------------------------
 * finished run on 2024/11/14 at 13:46:05.800     
------------------------------------------------------------------------
 total:
 * wall-time:     0 d,  0 h,  0 min,  8.277 sec
 *  cpu-time:     0 d,  0 h,  0 min, 26.475 sec
 * ratio c/w:     3.199 speedup
 SCF:
 * wall-time:     0 d,  0 h,  0 min,  0.416 sec
 *  cpu-time:     0 d,  0 h,  0 min,  1.495 sec
 * ratio c/w:     3.599 speedup
 ANC optimizer:
 * wall-time:     0 d,  0 h,  0 min,  7.838 sec
 *  cpu-time:     0 d,  0 h,  0 min, 24.962 sec
 * ratio c/w:     3.185 speedup

