122
 energy: -204.192295828792 gnorm: 0.085412939968 xtb: 6.6.1 (8d0f1dd)
C            3.11920000000000        2.31940000000000        0.43060000000000
C            3.00010000000000        0.90010000000000        0.27420000000000
C            2.10480000000000        3.25990000000000        0.04470000000000
C            4.31230000000000        2.82840000000000        0.97410000000000
C            4.18120000000000        0.11450000000000        0.26810000000000
C            2.15310000000000        4.57700000000000        0.56340000000000
C            5.45920000000000        2.00090000000000        1.05090000000000
C            4.35850000000000        4.17080000000000        1.43640000000000
C            5.41590000000000        0.71610000000000        0.61390000000000
C            3.28280000000000        4.98710000000000        1.32010000000000
C            1.77930000000000        0.18600000000000        0.25400000000000
C            1.13990000000000        2.97670000000000       -0.93830000000000
C            4.12190000000000       -1.27350000000000       -0.00220000000000
C            1.12700000000000        5.48300000000000        0.24340000000000
C            1.73720000000000       -1.20440000000000        0.05810000000000
C            0.17440000000000        3.89270000000000       -1.26880000000000
C            2.93310000000000       -1.92160000000000       -0.14110000000000
C            0.13510000000000        5.13830000000000       -0.63630000000000
H            6.37750000000000        2.42780000000000        1.42720000000000
H            5.26700000000000        4.51430000000000        1.91030000000000
H            6.30720000000000        0.10590000000000        0.59590000000000
H            3.29610000000000        5.98730000000000        1.72880000000000
H            1.19470000000000        2.04340000000000       -1.47700000000000
H            5.05260000000000       -1.81840000000000       -0.06470000000000
H            1.15570000000000        6.47180000000000        0.67930000000000
H           -0.55370000000000        3.65730000000000       -2.03060000000000
H            2.88680000000000       -2.98160000000000       -0.33850000000000
H           -0.64880000000000        5.84010000000000       -0.88050000000000
C           -1.91270000000000       -0.92010000000000        0.71210000000000
N           -2.56280000000000        0.21310000000000        0.89270000000000
N           -3.88390000000000        0.14520000000000        1.15730000000000
C           -4.54520000000000       -1.07120000000000        1.30380000000000
N           -3.78300000000000       -2.17840000000000        0.94280000000000
N           -2.45520000000000       -2.12320000000000        0.68950000000000
O           -5.67460000000000       -1.17030000000000        1.72450000000000
S            0.19710000000000        0.79970000000000        0.64960000000000
C           -0.49200000000000       -0.78790000000000        0.49350000000000
C            0.42720000000000       -1.73560000000000        0.16920000000000
C           -4.33130000000000       -3.47540000000000        0.92190000000000
C           -5.66390000000000       -3.70670000000000        0.59240000000000
C           -6.14240000000000       -5.00340000000000        0.56450000000000
C           -5.30840000000000       -6.07150000000000        0.84910000000000
C           -3.97770000000000       -5.83940000000000        1.15950000000000
C           -3.48680000000000       -4.55020000000000        1.19620000000000
C           -4.50440000000000        1.39580000000000        1.33360000000000
C           -3.67970000000000        2.50770000000000        1.52310000000000
C           -4.23300000000000        3.76280000000000        1.66760000000000
C           -5.60830000000000        3.93120000000000        1.62740000000000
C           -6.42480000000000        2.82960000000000        1.43360000000000
C           -5.88660000000000        1.56510000000000        1.28160000000000
H           -2.61120000000000        2.36820000000000        1.55040000000000
H           -3.58470000000000        4.61340000000000        1.81560000000000
H           -6.04030000000000        4.91340000000000        1.74510000000000
H           -7.49680000000000        2.95180000000000        1.39480000000000
H           -6.53890000000000        0.72280000000000        1.13010000000000
H           -6.32200000000000       -2.88650000000000        0.36050000000000
H           -7.17710000000000       -5.17830000000000        0.31040000000000
H           -5.69240000000000       -7.08010000000000        0.82650000000000
H           -3.32000000000000       -6.66690000000000        1.38050000000000
H           -2.45480000000000       -4.35160000000000        1.43750000000000
H            0.18030000000000       -2.77210000000000        0.03110000000000
C            3.11920000000000        2.31940000000000        4.43060000000000
C            3.00010000000000        0.90010000000000        4.27420000000000
C            2.10480000000000        3.25990000000000        4.04470000000000
C            4.31230000000000        2.82840000000000        4.97410000000000
C            4.18120000000000        0.11450000000000        4.26810000000000
C            2.15310000000000        4.57700000000000        4.56340000000000
C            5.45920000000000        2.00090000000000        5.05090000000000
C            4.35850000000000        4.17080000000000        5.43640000000000
C            5.41590000000000        0.71610000000000        4.61390000000000
C            3.28280000000000        4.98710000000000        5.32010000000000
C            1.77930000000000        0.18600000000000        4.25400000000000
C            1.13990000000000        2.97670000000000        3.06170000000000
C            4.12190000000000       -1.27350000000000        3.99780000000000
C            1.12700000000000        5.48300000000000        4.24340000000000
C            1.73720000000000       -1.20440000000000        4.05810000000000
C            0.17440000000000        3.89270000000000        2.73120000000000
C            2.93310000000000       -1.92160000000000        3.85890000000000
C            0.13510000000000        5.13830000000000        3.36370000000000
H            6.37750000000000        2.42780000000000        5.42720000000000
H            5.26700000000000        4.51430000000000        5.91030000000000
H            6.30720000000000        0.10590000000000        4.59590000000000
H            3.29610000000000        5.98730000000000        5.72880000000000
H            1.19470000000000        2.04340000000000        2.52300000000000
H            5.05260000000000       -1.81840000000000        3.93530000000000
H            1.15570000000000        6.47180000000000        4.67930000000000
H           -0.55370000000000        3.65730000000000        1.96940000000000
H            2.88680000000000       -2.98160000000000        3.66150000000000
H           -0.64880000000000        5.84010000000000        3.11950000000000
C           -1.91270000000000       -0.92010000000000        4.71210000000000
N           -2.56280000000000        0.21310000000000        4.89270000000000
N           -3.88390000000000        0.14520000000000        5.15730000000000
C           -4.54520000000000       -1.07120000000000        5.30380000000000
N           -3.78300000000000       -2.17840000000000        4.94280000000000
N           -2.45520000000000       -2.12320000000000        4.68950000000000
O           -5.67460000000000       -1.17030000000000        5.72450000000000
S            0.19710000000000        0.79970000000000        4.64960000000000
C           -0.49200000000000       -0.78790000000000        4.49350000000000
C            0.42720000000000       -1.73560000000000        4.16920000000000
C           -4.33130000000000       -3.47540000000000        4.92190000000000
C           -5.66390000000000       -3.70670000000000        4.59240000000000
C           -6.14240000000000       -5.00340000000000        4.56450000000000
C           -5.30840000000000       -6.07150000000000        4.84910000000000
C           -3.97770000000000       -5.83940000000000        5.15950000000000
C           -3.48680000000000       -4.55020000000000        5.19620000000000
C           -4.50440000000000        1.39580000000000        5.33360000000000
C           -3.67970000000000        2.50770000000000        5.52310000000000
C           -4.23300000000000        3.76280000000000        5.66760000000000
C           -5.60830000000000        3.93120000000000        5.62740000000000
C           -6.42480000000000        2.82960000000000        5.43360000000000
C           -5.88660000000000        1.56510000000000        5.28160000000000
H           -2.61120000000000        2.36820000000000        5.55040000000000
H           -3.58470000000000        4.61340000000000        5.81560000000000
H           -6.04030000000000        4.91340000000000        5.74510000000000
H           -7.49680000000000        2.95180000000000        5.39480000000000
H           -6.53890000000000        0.72280000000000        5.13010000000000
H           -6.32200000000000       -2.88650000000000        4.36050000000000
H           -7.17710000000000       -5.17830000000000        4.31040000000000
H           -5.69240000000000       -7.08010000000000        4.82650000000000
H           -3.32000000000000       -6.66690000000000        5.38050000000000
H           -2.45480000000000       -4.35160000000000        5.43750000000000
H            0.18030000000000       -2.77210000000000        4.03110000000000
122
 energy: -204.196765200438 gnorm: 0.047754603182 xtb: 6.6.1 (8d0f1dd)
C            3.11646081092812        2.31742729738617        0.43926356135309
C            2.99487149357463        0.89750410320512        0.29033317359926
C            2.10763965149806        3.26070427129569        0.04377919502874
C            4.31289115733882        2.82634645817510        0.98682027477748
C            4.17765128779836        0.11104356110450        0.28370467772632
C            2.15767157083267        4.57958315387052        0.56157299460065
C            5.45968181807753        1.99904258329789        1.06226553990325
C            4.35877974953864        4.16637263204078        1.44954998420496
C            5.41443042864499        0.71294556228384        0.62558608967000
C            3.28331359951545        4.98758284574450        1.32386816220849
C            1.77454991400552        0.18146804376225        0.26265427770726
C            1.14381657548311        2.97802847221838       -0.94056786189270
C            4.12016992496766       -1.27523761945790        0.00741620494263
C            1.13326991261675        5.48758742693102        0.23892955580675
C            1.73399077976844       -1.21122856948956        0.06677290702856
C            0.17437629504186        3.89533364585373       -1.27037011661772
C            2.93090706752561       -1.92628228955165       -0.13258691656849
C            0.13784074185808        5.14198494146845       -0.64145680272596
H            6.38013223581493        2.42796633071363        1.42820085811266
H            5.26815556168644        4.51162195042741        1.91809266575230
H            6.30623915008360        0.10544736165227        0.59792930971884
H            3.30087669710744        5.99123208333955        1.72164575330756
H            1.20447010128250        2.04937161977837       -1.48684234991399
H            5.05105234577638       -1.81656450501249       -0.06811231843942
H            1.16189671443169        6.47504474254111        0.67542573279052
H           -0.55171386182961        3.66071652529531       -2.03370540856116
H            2.88666039671796       -2.98385026737332       -0.33950823916736
H           -0.64325402253275        5.84473071604439       -0.88843597029752
C           -1.91578614003186       -0.92523902779205        0.71504116045291
N           -2.57028516907111        0.20814856390055        0.89832052944314
N           -3.87601090222582        0.14538629981498        1.17006407226458
C           -4.53876753903407       -1.07323649907408        1.32086878995281
N           -3.77684767314822       -2.18416369291084        0.95637327395023
N           -2.46749389237605       -2.12632523037738        0.69514912160407
O           -5.65404391194949       -1.17263357651447        1.76982754793114
S            0.18632314446017        0.79404291217720        0.63245374465405
C           -0.49753179177291       -0.79742584248004        0.49648807180397
C            0.42584047427574       -1.74566688850897        0.17577326459194
C           -4.33088705319523       -3.47824072254171        0.93340465335235
C           -5.66829577152194       -3.70491436526092        0.60647901881939
C           -6.14548977975146       -5.00109599260607        0.57256589339868
C           -5.30916624560611       -6.07037816619926        0.85620515161841
C           -3.97602630190560       -5.84137898786261        1.16863002917956
C           -3.48331520743190       -4.55446173193778        1.20514837598771
C           -4.50129236801192        1.39491630897782        1.34570264914142
C           -3.67537647645545        2.50839432774298        1.53548982976937
C           -4.23036982556865        3.76169408800345        1.67858997598333
C           -5.60795735698764        3.92736648840127        1.63580671996768
C           -6.42575495523175        2.82494718871443        1.44212865534160
C           -5.88701247399610        1.56065601389899        1.29427936180488
H           -2.60694568491234        2.36893192402631        1.56643026592718
H           -3.58420545897158        4.61374059733500        1.82183420327531
H           -6.04034313412787        4.90975018793034        1.74438311018688
H           -7.49628789087641        2.94827845382396        1.39069950795586
H           -6.54017724090184        0.72136117309353        1.12779027271480
H           -6.32320407471753       -2.88652655580375        0.35830706838985
H           -7.17620119090579       -5.17610661910955        0.30606463655929
H           -5.69172567471510       -7.07858260233136        0.82512500572483
H           -3.31886491895803       -6.66937466218344        1.38405494501892
H           -2.45167719497761       -4.35731742697209        1.44967126448784
H            0.18236319295016       -2.78195374387828        0.03183351947576
C            3.12041528904179        2.32275992583158        4.42337647744124
C            2.99778817491491        0.90454650868832        4.26334479226670
C            2.10538836718553        3.26556857508093        4.04699850301281
C            4.31790036943139        2.83179772165199        4.96669609935084
C            4.18009259865507        0.11736579556629        4.25643793150322
C            2.15627548084347        4.58389677519236        4.56315156145985
C            5.46375167942540        2.00272716412935        5.04130708826227
C            4.36364051820007        4.17081840719850        5.43539826737572
C            5.41696787234611        0.71695254278363        4.60352549228578
C            3.28693861235545        4.99182045566107        5.31844643165797
C            1.77561444955483        0.19062840244399        4.23811657130270
C            1.13330225382651        2.97891069681189        3.07707078031510
C            4.12008065336891       -1.27005433384210        3.98566197046180
C            1.12798703463823        5.48906122756237        4.24503005195713
C            1.73348379969710       -1.20215262715982        4.04219463366875
C            0.16355828152679        3.89262975363888        2.74544380820130
C            2.93015938943581       -1.91972913773333        3.84691051803542
C            0.12999136744147        5.14150473657761        3.36946329186124
H            6.38041068198144        2.42489482072105        5.42452437997911
H            5.26971734612024        4.51133649108029        5.91366585688845
H            6.30511984305852        0.10349196222012        4.59427831838907
H            3.30158910607538        5.99023517328245        5.72900705420062
H            1.19061245028491        2.04598649000004        2.54232366336138
H            5.04949982203233       -1.81635127985461        3.93081114810977
H            1.15515677068243        6.47601158802873        4.68267179907311
H           -0.55927532483673        3.65451522252700        1.97969372575694
H            2.88546436313193       -2.98110341241686        3.65971047712950
H           -0.65126687401746        5.84420140695735        3.12312101305432
C           -1.91693104467392       -0.91749704218505        4.69487872002941
N           -2.57656241852774        0.21402129362568        4.87205079791056
N           -3.87951665341570        0.14985567268297        5.14663290458967
C           -4.54351772453995       -1.07121412024115        5.30252389676437
N           -3.77766918626625       -2.18119043315267        4.93219873060842
N           -2.46948459204201       -2.11920197656877        4.66558282585648
O           -5.66607590735132       -1.16952169405522        5.71884055529666
S            0.19304402218028        0.80574077088826        4.62534091068408
C           -0.49746095471061       -0.78407328754996        4.47431328622046
C            0.42494608042232       -1.73469608108976        4.15388083640786
C           -4.32841132303188       -3.47606527411701        4.90721997395220
C           -5.66703116744991       -3.70310957080608        4.58414096063528
C           -6.14342664178548       -4.99963043240570        4.55442962964765
C           -5.30669484139772       -6.06861721729760        4.83979866317352
C           -3.97258862488699       -5.83933761329068        5.14899571454951
C           -3.47954058709709       -4.55239982836976        5.17982065297045
C           -4.50361969458413        1.39830448708920        5.31939443893875
C           -3.67645474243796        2.51262125326046        5.50813744042644
C           -4.23164313209254        3.76465555135883        5.65682400184546
C           -5.61009085901872        3.92877634662116        5.61886164115669
C           -6.42834999097050        2.82594065130932        5.42454238604414
C           -5.89018113688190        1.56223226266248        5.27247755555928
H           -2.60812893938880        2.37368130785971        5.55456813383789
H           -3.58613026905998        4.61368948047703        5.82073768786759
H           -6.04323219210960        4.90830264672888        5.74979130598933
H           -7.49987187362822        2.94657461045144        5.39443295280943
H           -6.54326809264300        0.71981462423825        5.12308299476182
H           -6.32486279460188       -2.88388205163699        4.34725248983165
H           -7.17883683797844       -5.17411857788160        4.30741275932444
H           -5.69371185759221       -7.07576530337323        4.83052535333786
H           -3.32026106823281       -6.66558037989363        5.38633191753844
H           -2.45238339783641       -4.35450239610072        5.44378055176223
H            0.18317245732912       -2.77399400290576        4.02640699852474
122
 energy: -204.199482066781 gnorm: 0.012054806568 xtb: 6.6.1 (8d0f1dd)
C            3.11259101683490        2.31438312653998        0.45258341211791
C            2.98889512200441        0.89476556749957        0.30896246924717
C            2.11104176668324        3.26076624773967        0.04617827262042
C            4.31186357063183        2.82274178105004        1.00631938178269
C            4.17276083373231        0.10681636537981        0.30513825909762
C            2.16382277342950        4.58202681673164        0.56141421455379
C            5.45846686727080        1.99536967249861        1.07904767979836
C            4.35911954921099        4.16113050095304        1.46508747917679
C            5.41146770012978        0.70873661615355        0.64289942551086
C            3.28626390767404        4.98859788343164        1.32651474801188
C            1.76979392093998        0.17719888619235        0.27328999308230
C            1.15147274870561        2.98001430151573       -0.94173937469492
C            4.11772319102406       -1.27696520004796        0.02143730578313
C            1.14346223650344        5.49268094435766        0.23336095087463
C            1.73142215392818       -1.21863480119493        0.08212314731925
C            0.18111613508323        3.90000046894626       -1.27419109659482
C            2.92885434692543       -1.93130259176244       -0.11937360060231
C            0.14615583010673        5.14656773417219       -0.64868848802492
H            6.38052268608428        2.42512260084259        1.43782537554131
H            5.26626477931391        4.50666764435594        1.93585704930431
H            6.30330204804137        0.10295183038545        0.60853377247866
H            3.30824080388301        5.99466930975737        1.71613562566072
H            1.21521829790905        2.05441884282483       -1.49298635904118
H            5.04863619517694       -1.81546968361071       -0.06391116646688
H            1.17451931524669        6.48105591801659        0.66556778715868
H           -0.54485914069209        3.66385351275396       -2.03670012402595
H            2.88746336494740       -2.98689504839855       -0.33430262149603
H           -0.63157242229167        5.85105239366693       -0.89896767812025
C           -1.91420551498122       -0.93055449622466        0.72450429488446
N           -2.57762344620101        0.20094684181972        0.91220644842172
N           -3.86381726901265        0.14314875878072        1.19569628593125
C           -4.52849313647625       -1.07794370508522        1.36289152992654
N           -3.76666064432075       -2.19113349060230        0.98199356004968
N           -2.48105480185562       -2.12806652743232        0.70628727041255
O           -5.62626639871681       -1.17867385004886        1.85202904466221
S            0.17916588536485        0.78762022353653        0.62845087396676
C           -0.50171085835541       -0.80666262875039        0.50218641157959
C            0.42607243559008       -1.75627206293147        0.18890058307423
C           -4.33019285808366       -3.48135283820230        0.95356669632385
C           -5.66936324192323       -3.70098213369077        0.62392884332423
C           -6.14683159719535       -4.99669044585302        0.58194612125223
C           -5.31105921319163       -6.06822068974458        0.86468749469449
C           -3.97695303916704       -5.84451868148752        1.18178910245965
C           -3.48212620463387       -4.55953051098790        1.22346977734276
C           -4.49733365558411        1.39108717976684        1.36675641296682
C           -3.67150158179457        2.50545838408795        1.55918167892866
C           -4.22867365146894        3.75767931577071        1.69650361893681
C           -5.60754371095158        3.91972812397133        1.64647906025428
C           -6.42471701154390        2.81623566444413        1.45064018885015
C           -5.88435727694587        1.55194876730972        1.30817568026506
H           -2.60321524597288        2.36499707138889        1.59476792429252
H           -3.58626334681634        4.61217007500996        1.83767054117311
H           -6.04136796349954        4.90170369753232        1.74831229789424
H           -7.49416647631884        2.93974522674033        1.39229733503493
H           -6.53737956993047        0.71400673987089        1.13311261950961
H           -6.32155092969208       -2.88199247602424        0.37022597159431
H           -7.17541681706761       -5.17087845378887        0.30965409279038
H           -5.69412545603697       -7.07543758694154        0.82644910855005
H           -3.32227400875803       -6.67481649084753        1.39197779950578
H           -2.45049471827121       -4.36431867688796        1.46956016601561
H            0.18773822872531       -2.79358604298830        0.04407985138387
C            3.12065151048564        2.32784100079321        4.40908130469938
C            2.99336320542447        0.91146559871990        4.24291575148016
C            2.10650025208149        3.27500777402259        4.04361387232661
C            4.32230397289768        2.83528625632337        4.95415931585279
C            4.17628062800393        0.12218607941117        4.23652080575543
C            2.16028214016386        4.59305062268115        4.56212593145126
C            5.46602742886051        2.00350970889853        5.02729176392229
C            4.36856579192996        4.17002411937470        5.43016942432287
C            5.41462797949611        0.71788635575127        4.58791970221576
C            3.29285732994997        4.99675991165391        5.31514676439097
C            1.77018427388844        0.19698054101170        4.21329644767363
C            1.12877747731632        2.98974773019364        3.08243425244222
C            4.11627711525588       -1.26471620523248        3.96764119584869
C            1.12924940208315        5.49716185856188        4.24948598408822
C            1.72889748248019       -1.19851845117598        4.01971023791178
C            0.15243390010406        3.90083650327813        2.75687549633968
C            2.92624370261452       -1.91605015060982        3.82923015844509
C            0.12384049049268        5.14873305650150        3.37932647359678
H            6.38303032632207        2.42054285701141        5.41375747819735
H            5.27244562050008        4.50706493273223        5.91345451157890
H            6.30001684707465        0.10150463379672        4.58362943171723
H            3.31203051759531        5.99287285978148        5.72941936419091
H            1.18668602454681        2.05881444754089        2.54618737470346
H            5.04447312981442       -1.81230003283162        3.91707373121332
H            1.15771398536468        6.48354440752717        4.68640624133350
H           -0.57359111005343        3.65570708889349        1.99684222541983
H            2.88395526581098       -2.97822139301857        3.64891827486516
H           -0.65649744401652        5.85280229915503        3.13666856987406
C           -1.91951737233322       -0.91502054203207        4.66220687735329
N           -2.59391221379380        0.21258037691641        4.83761181029593
N           -3.87427083465533        0.15432715655564        5.12454516879024
C           -4.54756935455867       -1.07132061856977        5.29010408774592
N           -3.77168989800372       -2.18332530376359        4.90936210798343
N           -2.48858083514654       -2.11304437477039        4.62540715432353
O           -5.66165206667177       -1.17000683691016        5.71213111178052
S            0.18758533377358        0.80899970886903        4.59817066878090
C           -0.50438908462732       -0.78170797916267        4.44318574773185
C            0.42270801186336       -1.73356118532704        4.12923447361344
C           -4.32676294526833       -3.47570027457793        4.88352077936138
C           -5.66828108018132       -3.69931083574646        4.56301773333056
C           -6.14408163410324       -4.99566884160408        4.53971718359912
C           -5.30658987511155       -6.06410928148340        4.83063742904353
C           -3.97077251728006       -5.83693748155319        5.14027675436490
C           -3.47610173265192       -4.55139924587805        5.16403290240955
C           -4.50413124349980        1.39994779631132        5.29717439847848
C           -3.67586182626892        2.51495035376525        5.49286960994528
C           -4.23320463023344        3.76425746825482        5.64788481792425
C           -5.61367420039542        3.92414781347320        5.61070129069474
C           -6.43210244991788        2.82102857495903        5.41253950134308
C           -5.89319556357613        1.55882466665018        5.25374806571736
H           -2.60759964848277        2.37726239413064        5.54760317392174
H           -3.59130778028779        4.61385580165986        5.81894961654258
H           -6.04802492463425        4.90147367476874        5.75047087133514
H           -7.50314816852207        2.94097977699193        5.38915857151358
H           -6.54652500443088        0.71671407775263        5.10431540667872
H           -6.32554106237963       -2.88091419333212        4.32220604245985
H           -7.17995141601511       -5.17118500665621        4.29891204003188
H           -5.69497835620506       -7.07024346206382        4.82961807809279
H           -3.32176969741523       -6.66304195469861        5.38378328110923
H           -2.45113143580249       -4.35360353923924        5.43696672215467
H            0.18773175698334       -2.77533901668851        4.00963990938389
122
 energy: -204.200782198656 gnorm: 0.017722723653 xtb: 6.6.1 (8d0f1dd)
C            3.11187877943833        2.31174432587649        0.46387112549733
C            2.98787832770955        0.89231916679832        0.32168391586795
C            2.11409352415137        3.25954681067004        0.05178144344896
C            4.31070032419759        2.81944615891536        1.02141327857925
C            4.17157278592429        0.10353576021989        0.32065327799173
C            2.16926409745085        4.58300939650113        0.56291707933225
C            5.45654551445288        1.99116439492926        1.09593336606943
C            4.35899185055456        4.15785411491366        1.47747989217717
C            5.40991197928014        0.70486243237565        0.65970722113189
C            3.28944901572068        4.98862687424225        1.33069039906071
C            1.76957897230928        0.17424392495344        0.28207037037562
C            1.15707283925883        2.97915345343736       -0.93792051142642
C            4.11767831073705       -1.27946302685770        0.03474916313526
C            1.15347823638854        5.49599303098769        0.22820183460036