156
 energy: -260.470532703011 gnorm: 0.295038568851 xtb: 6.7.1 (edcfbbe)
C            0.11670000000000        2.97160000000000       -1.23750000000000
C            1.24370000000000       -3.40690000000000        2.37400000000000
C           -4.43870000000000        1.37080000000000        0.32540000000000
C           -3.55660000000000        0.41110000000000        0.80950000000000
C           -2.14880000000000        0.70740000000000        0.78080000000000
C           -1.68750000000000        1.77950000000000       -0.03100000000000
C           -2.62410000000000        2.70310000000000       -0.49360000000000
C           -3.96810000000000        2.52210000000000       -0.27980000000000
C           -1.17980000000000       -0.09520000000000        1.47590000000000
C            0.13560000000000       -0.13250000000000        0.94130000000000
C            0.56220000000000        0.85220000000000        0.00730000000000
N           -0.33550000000000        1.85000000000000       -0.39150000000000
C           -1.42060000000000       -0.76730000000000        2.72790000000000
C           -0.50550000000000       -1.77640000000000        3.13280000000000
N            0.58800000000000       -2.08680000000000        2.30480000000000
C            1.02750000000000       -1.15890000000000        1.35220000000000
C            2.31000000000000       -1.19860000000000        0.81530000000000
C            2.73160000000000       -0.21240000000000       -0.05070000000000
C            1.87840000000000        0.79790000000000       -0.44130000000000
C           -2.43740000000000       -0.34200000000000        3.65100000000000
C           -2.53980000000000       -0.99300000000000        4.87580000000000
C           -1.61960000000000       -1.94660000000000        5.25890000000000
C           -0.63030000000000       -2.35050000000000        4.39750000000000
O           -3.21270000000000        0.78280000000000        3.36610000000000
O           -3.95300000000000       -0.84070000000000        1.27000000000000
S           -5.12150000000000        3.80800000000000       -0.80800000000000
S           -1.64150000000000       -2.59680000000000        6.94220000000000
S            4.43030000000000       -0.23380000000000       -0.66560000000000
O            4.40940000000000        1.11160000000000       -1.44550000000000
O            4.19740000000000       -1.34660000000000       -1.90700000000000
C            3.42840000000000       -0.83620000000000       -2.94510000000000
O           -4.09070000000000        4.80990000000000       -1.40620000000000
O           -5.37920000000000        4.46300000000000        0.72330000000000
C           -4.33080000000000        5.27820000000000        1.13260000000000
O           -3.17290000000000       -2.59350000000000        7.20800000000000
O           -1.36290000000000       -4.20510000000000        6.54800000000000
C           -2.44670000000000       -4.76910000000000        5.88680000000000
H           -5.50000000000000        1.23170000000000        0.41370000000000
H           -2.31850000000000        3.59620000000000       -1.00570000000000
H           -3.27750000000000       -0.69090000000000        5.59500000000000
H            0.10480000000000       -3.04690000000000        4.75530000000000
H            3.00070000000000       -1.96790000000000        1.11200000000000
H            2.27500000000000        1.54820000000000       -1.09760000000000
C            1.11900000000000       -4.17140000000000        1.06080000000000
C            1.98880000000000       -5.41500000000000        1.01600000000000
C            0.45520000000000        4.19710000000000       -0.40330000000000
C            0.86420000000000        5.39260000000000       -1.24550000000000
C           -4.44820000000000        0.84470000000000        4.04220000000000
C           -5.32620000000000       -1.11610000000000        1.13910000000000
H           -4.53510000000000        5.65120000000000        2.14010000000000
H           -4.24400000000000        6.11430000000000        0.43230000000000
H           -3.39800000000000        4.70930000000000        1.13210000000000
H           -2.25140000000000       -5.83130000000000        5.71700000000000
H           -2.60100000000000       -4.26600000000000        4.92840000000000
H           -3.33800000000000       -4.65150000000000        6.51080000000000
H            3.42400000000000       -1.55360000000000       -3.77010000000000
H            3.86930000000000        0.10780000000000       -3.27950000000000
H            2.40470000000000       -0.66910000000000       -2.60140000000000
H            0.81480000000000       -3.99920000000000        3.18400000000000
H            2.29140000000000       -3.25170000000000        2.63500000000000
H            1.38030000000000       -3.50640000000000        0.22850000000000
H            0.06520000000000       -4.42720000000000        0.89190000000000
H            3.04230000000000       -5.15240000000000        1.12690000000000
H            1.88270000000000       -5.95680000000000        0.07440000000000
H            1.73590000000000       -6.10300000000000        1.82380000000000
H           -5.07920000000000        1.57880000000000        3.54000000000000
H           -4.29850000000000        1.15600000000000        5.07420000000000
H           -4.93530000000000       -0.13040000000000        4.00820000000000
H           -5.50750000000000       -2.13360000000000        1.48700000000000
H           -5.62070000000000       -1.04030000000000        0.09170000000000
H           -5.90610000000000       -0.42480000000000        1.75090000000000
H            1.10420000000000        6.26230000000000       -0.63090000000000
H            0.06450000000000        5.68350000000000       -1.92830000000000
H            1.74150000000000        5.16490000000000       -1.85270000000000
H            1.24860000000000        3.93710000000000        0.30750000000000
H           -0.40530000000000        4.45170000000000        0.22870000000000
H           -0.65910000000000        3.20050000000000       -1.97210000000000
H            0.97040000000000        2.66780000000000       -1.84500000000000
C            2.72640000000000        1.38620000000000        2.90590000000000
C            2.25130000000000       -3.78200000000000        8.26310000000000
C           -1.61360000000000        2.30580000000000        5.41410000000000
C           -0.95170000000000        1.37860000000000        6.21020000000000
C            0.36650000000000        0.95420000000000        5.82080000000000
C            0.87360000000000        1.34770000000000        4.55430000000000
C            0.13080000000000        2.23490000000000        3.77570000000000
C           -1.09250000000000        2.69200000000000        4.19560000000000
C            1.12030000000000        0.00560000000000        6.59380000000000
C            2.06190000000000       -0.81010000000000        5.91870000000000
C            2.55000000000000       -0.41530000000000        4.64170000000000
N            2.04820000000000        0.75940000000000        4.05980000000000
C            0.88480000000000       -0.26230000000000        7.98700000000000
C            1.12940000000000       -1.57550000000000        8.47740000000000
N            1.94810000000000       -2.43720000000000        7.73630000000000
C            2.49810000000000       -2.02760000000000        6.51470000000000
C            3.42350000000000       -2.80050000000000        5.82390000000000
C            3.91520000000000       -2.40340000000000        4.60050000000000
C            3.48970000000000       -1.22950000000000        4.01590000000000
C            0.42240000000000        0.74880000000000        8.90050000000000
C           -0.11630000000000        0.32840000000000       10.11010000000000
C           -0.11060000000000       -1.00820000000000       10.46160000000000
C            0.55070000000000       -1.94030000000000        9.69510000000000
O            0.55700000000000        2.08370000000000        8.53530000000000
O           -1.58030000000000        0.75080000000000        7.28480000000000
S           -2.08410000000000        3.70760000000000        3.08370000000000
S           -1.02070000000000       -1.55530000000000       11.92010000000000
S            5.12210000000000       -3.43160000000000        3.73310000000000
O            4.29400000000000       -3.71310000000000        2.44330000000000
O            4.87050000000000       -4.82430000000000        4.64930000000000
C            3.81040000000000       -5.59370000000000        4.18740000000000
O           -0.94270000000000        4.40840000000000        2.29930000000000
O           -2.50920000000000        4.89420000000000        4.19080000000000
C           -1.41450000000000        5.64870000000000        4.59450000000000
O           -2.07540000000000       -0.41470000000000       11.98130000000000
O           -1.88890000000000       -2.77120000000000       11.14650000000000
C           -2.82480000000000       -2.26360000000000       10.25200000000000
H           -2.59070000000000        2.65870000000000        5.68530000000000
H            0.46150000000000        2.52180000000000        2.79520000000000
H           -0.60190000000000        1.02460000000000       10.76860000000000
H            0.54370000000000       -2.96500000000000       10.01800000000000
H            3.76380000000000       -3.73810000000000        6.21870000000000
H            3.86820000000000       -0.99350000000000        3.04070000000000
C            1.31010000000000       -4.83170000000000        7.69310000000000
C            1.62510000000000       -6.23810000000000        8.17060000000000
C            3.30220000000000        2.75490000000000        3.23400000000000
C            4.03950000000000        3.36980000000000        2.05540000000000
C            0.18400000000000        3.00830000000000        9.52760000000000
C           -2.71380000000000        1.40780000000000        7.80260000000000
H           -1.75820000000000        6.45180000000000        5.25220000000000
H           -0.93530000000000        6.07570000000000        3.70820000000000
H           -0.70270000000000        5.01500000000000        5.13020000000000
H           -3.35750000000000       -3.09440000000000        9.77960000000000
H           -2.32370000000000       -1.67300000000000        9.48030000000000
H           -3.52690000000000       -1.62900000000000       10.80160000000000
H            3.69860000000000       -6.47390000000000        4.82570000000000
H            4.02790000000000       -5.90740000000000        3.16350000000000
H            2.88960000000000       -5.00670000000000        4.20710000000000
H            2.20400000000000       -3.76790000000000        9.35410000000000
H            3.29230000000000       -4.03180000000000        8.04840000000000
H            1.34170000000000       -4.78430000000000        6.59720000000000
H            0.27730000000000       -4.56490000000000        7.95090000000000
H            2.63560000000000       -6.53410000000000        7.88490000000000
H            0.93520000000000       -6.97430000000000        7.75370000000000
H            1.56260000000000       -6.30780000000000        9.25750000000000
H            0.38590000000000        4.01330000000000        9.15550000000000
H            0.77110000000000        2.83860000000000       10.43110000000000
H           -0.88130000000000        2.91680000000000        9.74100000000000
H           -2.94790000000000        0.96830000000000        8.77320000000000
H           -3.56530000000000        1.26710000000000        7.13880000000000
H           -2.50100000000000        2.46910000000000        7.93450000000000
H            4.43980000000000        4.35740000000000        2.29160000000000
H            3.38250000000000        3.47810000000000        1.19190000000000
H            4.87460000000000        2.74200000000000        1.74100000000000
H            3.97210000000000        2.66080000000000        4.09810000000000
H            2.49860000000000        3.42080000000000        3.57200000000000
H            2.01860000000000        1.45180000000000        2.07790000000000
H            3.52830000000000        0.74400000000000        2.54390000000000
156
 energy: -260.524114976858 gnorm: 0.190085866847 xtb: 6.7.1 (edcfbbe)
C            0.11165694063617        2.96335305364564       -1.23086697223518
C            1.23917138572488       -3.39559644443411        2.36778596608543
C           -4.43777501618202        1.36389107912478        0.32237471299205
C           -3.55004951565762        0.41885783532310        0.81154836088870
C           -2.14889515491614        0.69835177808599        0.77357219514244
C           -1.68208713710149        1.76684884477276       -0.03753769216708
C           -2.61035326997132        2.69907593640349       -0.49604753910942
C           -3.95549410524076        2.51597336909666       -0.27665071648447
C           -1.18694406163830       -0.09539573421442        1.47616358790704
C            0.13028006646363       -0.13206296432943        0.94514269722767
C            0.55299279765209        0.85439621291388        0.01122469820415
N           -0.33681668219090        1.84779265751534       -0.38737833726515
C           -1.41636152752261       -0.75632792545473        2.72880594103820
C           -0.49488886904108       -1.76108408902010        3.13110406461165
N            0.57782497271440       -2.08744561514309        2.29875808158537
C            1.01914591376771       -1.15985704555310        1.35827187857533
C            2.30587882861940       -1.20348609419699        0.82773205350732
C            2.71706280369706       -0.21175121363011       -0.04489151609668
C            1.86821629221068        0.80372349547146       -0.43970411020736
C           -2.42626968825071       -0.34314631331275        3.64981002561223
C           -2.53251850783614       -0.98092213975129        4.87543876649818
C           -1.61780599036608       -1.94301121215011        5.24958937263607
C           -0.60966980790766       -2.33557004009910        4.39535517904108
O           -3.20740298054342        0.76078481384252        3.35502294085532
O           -3.94549998186368       -0.81976527434726        1.27188756514404
S           -5.09132317284781        3.81836101050776       -0.80426424271691
S           -1.67295145778484       -2.59331790441014        6.93181369783197
S            4.41013143280744       -0.21469319777864       -0.68283437848627
O            4.45255317456425        1.11253786679983       -1.41422030056609
O            4.19206338953553       -1.34761301176538       -1.90334311635190
C            3.42547364688044       -0.84255320268637       -2.95407645593686
O           -4.13595729237756        4.80464801119335       -1.44605672591491
O           -5.37828262564780        4.46027824820789        0.72502986372333
C           -4.32954387494989        5.28545237025739        1.14021974197246
O           -3.15736865333832       -2.56387076370455        7.22829904699933
O           -1.36971691517112       -4.19741478761189        6.54019464368265
C           -2.45298291686964       -4.77914392307122        5.88024740722592
H           -5.50321348738010        1.23018716884540        0.40769037247977
H           -2.31483455897119        3.59599111562547       -1.01068529405469
H           -3.28231523344962       -0.69869788576442        5.59383288683059
H            0.11279296581390       -3.05084152784789        4.75089189112136
H            2.99869522750481       -1.97826062565458        1.10997342716739
H            2.27680326419240        1.55109556423917       -1.09685079088929
C            1.10989464495676       -4.16685197863499        1.05298712759938
C            1.98578978020911       -5.41163021991317        1.02012852627390
C            0.45425523403340        4.19523592808446       -0.39668379067634
C            0.86383735229775        5.38633139682508       -1.25031062992098
C           -4.44176216733701        0.84011855305792        4.03706891177775
C           -5.31824175257803       -1.11077652775634        1.14014874231684
H           -4.54661514951985        5.64757542311567        2.14369601596196
H           -4.23400676961354        6.12499058082241        0.44629417220584
H           -3.39040719930130        4.72484385725517        1.14517451086651
H           -2.24208016961282       -5.83601303920956        5.72231822160761
H           -2.61223540813830       -4.28110816935890        4.91922028333389
H           -3.34824145230920       -4.66168752687763        6.49737407409329
H            3.43314809662265       -1.56437604477031       -3.76904232692182
H            3.85744549499322        0.10542069360215       -3.29057481665694
H            2.39718344918723       -0.67228600286040       -2.61932630258797
H            0.79903678157100       -3.98715412938335        3.17164464564554
H            2.29339774484619       -3.25250579063246        2.61626866404608
H            1.38765764541937       -3.50879373188854        0.22530227122667
H            0.05960797848795       -4.43432579477388        0.89615327744656
H            3.03469683149952       -5.14053950951846        1.12864919864853
H            1.87508426331352       -5.94532185163892        0.07693056586268
H            1.72853042782109       -6.09881746183228        1.82589065555547
H           -5.05999901953906        1.58034909989115        3.52704795605235
H           -4.30419148849137        1.15782816060115        5.07298751248723
H           -4.94530571427899       -0.12884909015427        4.01757119920706
H           -5.48191552031831       -2.13046844524877        1.49008967455399
H           -5.62670386031688       -1.04211297668628        0.09284629935587
H           -5.91840023438654       -0.42977913491025        1.74899556485339
H            1.10030959688457        6.24797843260272       -0.62732189338764
H            0.06021323679009        5.67727208762774       -1.92579527212843
H            1.74307183374027        5.15801120750915       -1.85256392117181
H            1.25778683080025        3.93895544075720        0.30042094935323
H           -0.40457340960012        4.45769992720824        0.22619657545599
H           -0.66921332978227        3.19674191322605       -1.95955447558217
H            0.97225749985771        2.65748030584377       -1.82879246557642
C            2.71957011914457        1.38531401330893        2.91805727090750
C            2.25035587139367       -3.77000727431196        8.25854672360973
C           -1.61714866237185        2.29159830228491        5.41133307769595
C           -0.94672711784901        1.37328435345567        6.20238617791283
C            0.36095189793726        0.94209334042667        5.81925745648799
C            0.87059607002534        1.32841514995975        4.55143390762422
C            0.13534385666230        2.21593148237327        3.76724352997157
C           -1.08107890946434        2.68819749855036        4.20063999321108
C            1.11522324764950        0.00595734639585        6.59827450643438
C            2.05439887843615       -0.81029347752672        5.91940449877941
C            2.54402515971655       -0.41110018646321        4.64444074761389
N            2.05311906033339        0.76027015561119        4.06929099146445
C            0.89186572804205       -0.25836935830951        7.98843201752666
C            1.13752584365824       -1.57048146039044        8.47492869991828
N            1.94210150353884       -2.43463974221541        7.73415890625162
C            2.48716212771180       -2.02577882680963        6.51788095576940
C            3.41952574207709       -2.79833816535071        5.83759015704513
C            3.91110458648034       -2.39278396662834        4.61277120306327
C            3.48766982282410       -1.21933890007284        4.01717919254642
C            0.42019149043081        0.73825763827705        8.89592070777032
C           -0.10884408067565        0.33201549839510       10.10956648023928
C           -0.10492322491024       -1.00567474008134       10.45356758958567
C            0.56030011449596       -1.94395024114285        9.68898216534945
O            0.54854773877099        2.06066760364121        8.53383699517367
O           -1.55716705811143        0.76705511578312        7.28261419170114
S           -2.06090112574118        3.71364387766772        3.08661799313379
S           -1.04258632188956       -1.53617967879439       11.90563175274615
S            5.10037052414546       -3.43280933148095        3.72926533205882
O            4.34253303618411       -3.68744042712812        2.43697957773827
O            4.88277124950064       -4.83014604310638        4.63886982930476
C            3.81097692054352       -5.60446976083876        4.18677910748682
O           -0.97403823248335        4.38269467794334        2.27192381251287
O           -2.50835042780252        4.88633900512945        4.19717703204978
C           -1.41478317449984        5.65601111712109        4.60156853799823
O           -2.04930811120018       -0.41038007604942       12.02449141160953
O           -1.88403989789298       -2.77150197809621       11.14504267473733
C           -2.83180048513405       -2.26795605837622       10.24887322548117
H           -2.59022483661672        2.66212112231447        5.68677794789564
H            0.46783027163978        2.52525884684279        2.79275136290506
H           -0.59844644222107        1.02259445210862       10.77464528271727
H            0.55126850481103       -2.96839852685046       10.01847483789771
H            3.76653075177791       -3.73535924396302        6.23267722442398
H            3.87299074891801       -0.98819106055632        3.04076402731638
C            1.30781273297788       -4.82807461347757        7.69070955137225
C            1.63127709179298       -6.23434169237269        8.17320341480537
C            3.30007333256191        2.75881931261221        3.24643040809731
C            4.03677692829230        3.36224265838511        2.05655893297377
C            0.18367716508855        2.99917886480530        9.52197987711262
C           -2.70400580688983        1.40694328951050        7.80077737007688
H           -1.77024490365221        6.45358752197745        5.25252838427930
H           -0.92821194474107        6.08161805489432        3.71881639388711
H           -0.69549359566316        5.02925366560762        5.13845186264778
H           -3.35444487052831       -3.10179626236666        9.78516069766306
H           -2.34013212869260       -1.67670872894795        9.47082367718021
H           -3.53805810961883       -1.63173089450223       10.78974924652836
H            3.71258815269192       -6.47519622124544        4.83391048774547
H            4.00812778995280       -5.92337200409013        3.16168530120942
H            2.88496787607175       -5.02325199137462        4.20878177978221
H            2.19398761791404       -3.75408683191037        9.34896683149291
H            3.29012055965052       -4.02169735907376        8.03459199610577
H            1.34934964003980       -4.79085788871892        6.59768526194664
H            0.28081767326517       -4.57035583758641        7.96028780523166
H            2.63927759598899       -6.52953287302211        7.88312995150860
H            0.93649846715615       -6.96012879377461        7.75230343798260
H            1.56242213641018       -6.30143451886265        9.25814797408522
H            0.39323605351232        3.99700138434782        9.13483805517027
H            0.76765274204923        2.84356658468955       10.43353225908967
H           -0.88250950312854        2.92539996426972        9.74991041267738
H           -2.92926194685402        0.95526381866835        8.76745954860801
H           -3.56718127310889        1.26617658493871        7.14495054758325
H           -2.51341232227743        2.47396074030634        7.93795953026489
H            4.43185459851204        4.34772075739166        2.29982155820706
H            3.37683710209157        3.47319516832758        1.19793766998069
H            4.87175371744281        2.73544649194193        1.74553293499667
H            3.98074974344943        2.65966968189570        4.09809200844376
H            2.49644485476887        3.42759267683227        3.56642595194734
H            2.01359211624351        1.45888723888770        2.08761398848977
H            3.52654526326998        0.74640290006740        2.56388319787835
156
 energy: -260.552991170129 gnorm: 0.033726896834 xtb: 6.7.1 (edcfbbe)
C            0.10655335386073        2.95210908211611       -1.22415512419568
C            1.23176543053798       -3.38110809293350        2.36213592404026
C           -4.44096230421145        1.36300712562488        0.31668268866585
C           -3.54609215057374        0.42753302491912        0.80619079985492
C           -2.15059115705548        0.69075456577728        0.76479837991295
C           -1.67708947259508        1.75711960417830       -0.04396975549337
C           -2.59893747746602        2.69979623393410       -0.49539217610048
C           -3.94665441637495        2.51778570779333       -0.27049109548070
C           -1.19430190017900       -0.09459711903055        1.47599857046135
C            0.12794185437201       -0.13026492044258        0.94768108345259
C            0.54515647105002        0.85783028724824        0.01460922962018
N           -0.33806772023823        1.84658452248617       -0.38196336796360
C           -1.41041432130079       -0.74251324310335        2.73179652516713
C           -0.48057755709759       -1.74370039445329        3.13254992237533
N            0.56617703874767       -2.08796696052442        2.28893277710304
C            1.01384771173814       -1.15851293831794        1.36239768111390
C            2.30507250757703       -1.20853032662834        0.83497268592797
C            2.70500579207668       -0.21455902593878       -0.04444808502212
C            1.86054813780797        0.80706995080939       -0.44028925560533
C           -2.41555367250884       -0.34272498189036        3.65013685402257
C           -2.52774857753817       -0.97422405288782        4.87485206233000
C           -1.61754442688673       -1.94501662930017        5.24062722555913
C           -0.58755051941875       -2.32010359279053        4.39574352984158
O           -3.20385215976579        0.73605272612186        3.34398302556900
O           -3.94018584137016       -0.79568758722508        1.27004501347838
S           -5.06403857533516        3.83887998535598       -0.81625318632219
S           -1.71209145977809       -2.58708868235812        6.92915374310202
S            4.40342851687166       -0.18547492396988       -0.69863438783909
O            4.46218705914344        1.09365912850569       -1.37627598711751
O            4.18437378351735       -1.34300464842112       -1.88968095673608
C            3.42052717228759       -0.84838092011895       -2.95938844051156
O           -4.16946714646489        4.77377275035899       -1.45953786022164
O           -5.37542382194060        4.45342157679311        0.71786151563790
C           -4.32672137435630        5.28962688287419        1.14702598032177
O           -3.12802797979162       -2.53489438024719        7.22901947811846
O           -1.37689379679986       -4.18521988481504        6.53217481016081
C           -2.46008883136558       -4.78779122900852        5.87237942340507
H           -5.50822237581295        1.23661259287301        0.39799855274707
H           -2.31863281958633        3.60013300631059       -1.01358823963130
H           -3.28565749968103       -0.71167584435020        5.59425097458654
H            0.12090459540979       -3.05045591635034        4.75273773221018
H            3.00217715922572       -1.98391529472206        1.10289418864811
H            2.28654782699493        1.54958167090399       -1.09498837251235
C            1.09984242635317       -4.16082382108412        1.04406929102043
C            1.98262356601531       -5.40778732222905        1.02367315767480
C            0.45492532437278        4.19197762471868       -0.39122643557553
C            0.86344898677400        5.38069716401368       -1.25567124947121
C           -4.43519499045276        0.83716002103978        4.03049668058147
C           -5.31012795782098       -1.10717749376114        1.14219430357770
H           -4.55996185812872        5.64191694210809        2.14651002849022
H           -4.22571930855985        6.13368943404100        0.45945610633517
H           -3.38195223884885        4.73716614458217        1.16096336946528
H           -2.23238068667915       -5.83961332276496        5.72916332833600
H           -2.62328823305234       -4.29827218218088        4.90658088599290
H           -3.35979682169021       -4.67259788082734        6.48309619531061
H            3.44334590771032       -1.57575429667366       -3.76439303616071
H            3.84486164949180        0.10222317831150       -3.30131888309862
H            2.38614558721872       -0.67796249560904       -2.63771480491175
H            0.78243941421149       -3.97441363207168        3.15818777594200
H            2.29065241199926       -3.25054184789324        2.59900333507448
H            1.39146299370273       -3.51228957106593        0.21977951548556
H            0.05465599935364       -4.43948827777377        0.89881324254021
H            3.02653332658783       -5.12784144712344        1.13104407115423
H            1.86787164596665       -5.93468816873040        0.07946952881803
H            1.71939852385287       -6.09240464631664        1.82772243942940
H           -5.03581103894520        1.58418459382141        3.50988730784491
H           -4.30641841903508        1.16127729056968        5.06934830267908
H           -4.95632263918593       -0.12510246841939        4.02613322882794
H           -5.44935070851598       -2.12918557116633        1.49504957934984