116
 energy: -22.928061455056 gnorm: 0.329736929581 xtb: 6.6.1 (8d0f1dd)
C           -3.31122850772930        0.79849766164622       -0.92477639677520
C           -2.44380812530352       -0.12270372891954       -0.27661132624697
C           -1.41337090092821        0.39579727573559        0.56335275196199
C           -0.89266158675590        1.65801491088749        0.27377586709581
C           -1.72665675402493        2.51431363229076       -0.49448366572522
C           -2.95444148494349        2.13954154133227       -1.01494489940871
C           -0.74098268209890       -0.43411532818871        1.49825021926784
C            0.56872586496315        0.03782116815119        1.86248088067890
C            1.03782416582094        1.29402317993033        1.50887470833621
N            0.31238977034758        2.07067427098208        0.65193736800696
C           -1.29695700510141       -1.39996043042223        2.41574187746061
C           -0.38243517664656       -2.18060797534842        3.13232615520648
N            0.91308504082021       -1.90366887689689        3.30325166013478
C            1.37712470144904       -0.74872102533751        2.81811050966982
C            2.52149331701875       -0.17739833758153        3.39379298866852
C            2.95849061756259        1.02681208890480        2.95105897606587
C            2.24288949469137        1.78498308775960        2.03503020483770
C           -2.74860936222260       -1.74497937691422        2.38401158947411
C           -3.09416315450955       -2.91614440870436        3.00571134491758
C           -2.16786021984049       -3.77788778654213        3.63251872101904
C           -0.85708937311598       -3.40495313382985        3.68547234358092
O           -3.71994433332149       -0.94984598373544        1.67726658385724
O           -2.55702603277562       -1.47241711578389       -0.57241635275616
C           -3.84297843593025        3.13357444054366       -1.60938954875544
C           -2.68769581069131       -5.03867041417370        4.30484659386931
H           -1.39666850744143        3.51251503834900       -0.76806311868865
H           -4.27662633836220        0.55105838579656       -1.33106614114542
H            2.66329581305412        2.73912661909249        1.72562431984580
H            3.05775395548473       -0.69369546277216        4.16536137542516
H           -0.24710966264510       -4.12034095424229        4.22946223699121
H           -4.11477991332403       -3.04712728052358        3.03244694615357
O           -4.21824883374556        4.03433712717988       -0.87713382485991
O           -4.44510595673734        2.90643496899600       -2.81853501752979
C           -5.44216520282800        3.83300025693726       -3.02488532025093
C            4.23586651889298        1.50004220933226        3.59165660008449
O            5.05927614697201        0.66079890002952        3.91714215179376
O            4.47001334453535        2.86385149488593        3.72605651435371
C            5.79457498613219        3.08584475587818        4.15829123132174
O           -3.82227255313510       -5.27347675879771        4.16636005494405
O           -1.85023202017753       -5.79767454267276        5.06656077253571
C           -2.55119635829503       -6.86252441382958        5.62930343183426
C           -5.07197156564436       -1.42399175670916        1.58830531863830
C           -1.33089900128490       -2.23622472573986       -0.99264499351172
H           -2.54510546830388       -7.76426885143998        4.99136022291012
H           -3.57194749219491       -6.44405511486021        5.74196173723541
H           -2.09133598235598       -7.02043774843818        6.64022264233588
H            5.72707967266424        3.46798026205549        5.10135971236643
H            6.34060091246885        3.78468702308830        3.50069950143490
H            6.17933064298187        2.03010500085905        4.19342358084693
H           -0.91862729772622       -2.57650129080332       -0.01361370304871
H           -0.49769766914251       -1.60651221708571       -1.34094446550576
H           -1.52632419730509       -2.94569707152159       -1.75361447637286
H           -5.11788846557077       -2.41810833635233        1.17520213188926
H           -5.67929807973498       -0.69619639428435        1.04301666067831
H           -5.57598832326623       -1.42383358739762        2.57928294206544
H           -6.13050215934830        3.76035386975488       -2.23272855695873
H           -5.86615610071888        3.45938329385866       -4.02668959924245
H           -5.13479557532099        4.87790991548477       -2.98314551356402
C           -1.38192942069774        3.73616555005018        2.91232598411686
C           -1.84821468128685        2.59982427735607        3.49755545445181
C           -1.05946531454833        2.05730632010638        4.60922730982276
C            0.19893954712228        2.69376791964407        4.86302140881997
C            0.50425395911860        3.94630308659851        4.28768785650746
C           -0.26031777722226        4.46998310053134        3.25072669343212
C           -1.20488993561782        0.74454293276906        5.14851520323437
C           -0.06287609782692        0.02744069315890        5.60930570802864
C            1.19208754369866        0.71421540266195        5.78882868583885
N            1.19428660993148        2.06344359410476        5.62744624321596
C           -2.41361422770794        0.07928500213936        5.25249410304426
C           -2.45851584031083       -1.32662100968547        5.60237876023992
N           -1.29466212405906       -1.98318595734370        5.89916817085159
C           -0.14475655767527       -1.32117560077092        5.98824682881008
C            0.97209270935794       -1.98958449505532        6.53157704134458
C            2.21982707914082       -1.36973967291181        6.68703967237737
C            2.30561929262884       -0.09745313075593        6.26436900324455
C           -3.73018485967715        0.71367583494582        5.25810242262992
C           -4.89964478833448       -0.06184623426677        5.21204641615509
C           -4.82617965800088       -1.39228978090841        5.46901303780036
C           -3.67144193418464       -1.98914944386360        5.67265433266067
O           -3.75568638935321        2.07705011038914        5.52067969627343
O           -2.94192434743730        1.91263938797883        3.01658762327703
C            0.21273512614467        5.50086066357994        2.34765104514621
C           -6.06660304520411       -2.17604633098929        5.80641622556876
H            1.41756699010566        4.38133362238595        4.66974005703471
H           -1.82880610647429        4.11982501512100        2.06992133318584
H            3.26888037378556        0.32655662585251        6.31721410015598
H            0.87146188387207       -3.08471526305024        6.57830423410869
H           -3.67716811065157       -3.05999292755990        5.83019634570050
H           -5.77379677507622        0.43595144608221        4.71017130754348
O            1.34459852619901        5.82615848916894        2.44941456579099
O           -0.74718748219123        6.07961784856304        1.59848183464284
C           -0.21473095568964        7.24015934882472        1.05753806029483
C            3.53228080814219       -2.00967610361154        7.02506769044485
O            3.64093082622715       -3.14437803815732        7.50071391725347
O            4.56565258381079       -1.22937033368332        6.69086985080897
C            5.72579357310716       -1.80692399125161        7.22246151275881
O           -7.04801223588612       -1.95726935745904        5.14194115322235
O           -6.01514389321278       -2.93743591896022        6.94765316328794
C           -7.21292732384718       -3.62681918543340        7.15115816329978
C           -4.95459780685163        2.65960679932188        5.86868674392943
C           -3.68284113682406        2.59129188358641        2.05479246020704
H           -7.43119628931628       -4.22607794725959        6.20622607140901
H           -8.06548455146707       -2.91765848248592        7.29781126410398
H           -7.07314693247270       -4.33087306029711        7.91223421050944
H            6.57332189837178       -1.29353136199234        6.78341268688262
H            5.74663761932316       -2.84282155125561        6.88089468184451
H            5.69426191474290       -1.72781984964892        8.29460302186842
H           -4.10481209541493        3.44288266176275        2.60483747673152
H           -4.49244774344916        1.87419893016926        1.82433103764650
H           -3.18901540870812        2.85154642679373        1.06781919454921
H           -5.55414326821421        2.76698137191684        4.93950725322359
H           -4.78658370641210        3.62090640967288        6.25983200635257
H           -5.43485580473958        1.97242995129449        6.65265772412460
H            0.89164886030839        7.38838561720231        1.13776105146914
H           -0.62894889903848        8.04195665205089        1.64837664327952
H           -0.59282546386754        7.45699159724320        0.03719083132488
116
 energy: -22.722599722954 gnorm: 0.464148435973 xtb: 6.6.1 (8d0f1dd)
C           -3.11475953911945        0.93801066126304       -0.83957206877763
C           -2.30351736273262        0.04885229780496       -0.17576446830492
C           -1.26677466980746        0.58643911144761        0.60186447975025
C           -0.78526981888490        1.81657986304504        0.27475717127024
C           -1.46844488416688        2.73088578715206       -0.58525710381467
C           -2.68576460402840        2.25950374671199       -0.97031770090407
C           -0.68972679080211       -0.02745421561636        1.71747330825202
C            0.62984634816897        0.28618241344110        2.02355931179677
C            1.17483602015244        1.40884549911232        1.40822085929884
N            0.54233149061509        2.17215290352425        0.57593054390212
C           -1.22842429193517       -1.17560250727126        2.43079858965339
C           -0.21854801835924       -1.95342021802078        3.20616349370362
N            0.92478663721309       -1.47331536512839        3.54476194870004
C            1.33861557940712       -0.38707679062103        2.98101235427852
C            2.57736495967926        0.09940445538876        3.46663846143315
C            3.12793404537068        1.12952671763644        2.72841023783286
C            2.43320860217922        1.80477944362494        1.73241121796153
C           -2.43069864244669       -1.87356816165299        2.22781675846402
C           -2.58583866085535       -3.20434006490845        2.69970377444432
C           -1.55583673598075       -3.88112462121273        3.46878124485264
C           -0.42545404089826       -3.22486249181112        3.78639011233081
O           -3.58261798468542       -1.21892462458319        1.71556338780537
O           -2.35174583646730       -1.30223752810255       -0.35642107774248
C           -3.36231639857610        3.21144637965337       -1.88093714617763
C           -1.73802857428685       -5.26992164709493        4.05058944940149
H           -1.12256718187437        3.66742794701239       -1.02095887421690
H           -3.87237105431695        0.36013187018383       -1.32818880866608
H            2.96614694866408        2.66168637201156        1.36665896118153
H            3.10675131550115       -0.10478569966720        4.41356883587046
H            0.39014661146855       -3.54320943831633        4.36225505030405
H           -3.50394722988234       -3.74249269660503        2.62243768484287
O           -2.77525719715835        4.25705138917707       -2.02110387100970
O           -4.46547651249106        2.75176044753003       -2.50493906408451
C           -5.04590444531817        3.91035647521730       -3.23064834453868
C            4.53134418708626        1.41409106621944        3.03703307460687
O            5.15243578430306        1.21942826997543        4.09853369062238
O            5.30752664921386        1.69921334190938        1.90798148032137
C            6.57142502655297        2.09852399616632        1.97838740215208
O           -1.97499534730934       -6.15770151715134        3.23671073433316
O           -1.63442653730936       -5.55266178624274        5.40564070493051
C           -2.67641963371651       -6.38949322721462        6.03743061479764
C           -4.79188426803439       -1.81594189660927        2.10030938141297
C           -1.15391725638732       -1.94014418247348       -0.84825645822638
H           -2.20495614054108       -7.18077988392838        6.60810568980438
H           -3.02344744544805       -6.93516610596267        5.14144878626369
H           -3.19712903889221       -5.69921418493458        6.74205016037350
H            6.80403974996559        2.40472594582171        3.07093422999734
H            6.84984792537804        2.71489266928437        1.13228481426756
H            7.25005825349010        1.20171652767541        1.93698266902092
H           -0.56331938541232       -1.29256647300544       -1.57786953101761
H           -1.40948980350833       -2.93896273347658       -1.21075194980638
H           -0.60951948493259       -2.26127361956101        0.16164113157471
H           -5.54706360827432       -1.15227755072100        1.77297298379200
H           -4.79367103617539       -1.57475948452537        3.07876045313321
H           -4.95669299595328       -2.78669146503807        1.71505377099190
H           -5.02044795656448        4.68153135278511       -2.43866127130655
H           -6.12501328501407        3.83549681936342       -3.64957720731703
H           -4.35271233134488        4.14558783686197       -4.04783335096921
C           -1.88079280700719        3.30541229360027        2.92899902572498
C           -2.23600923194583        2.18216481214757        3.62851931160576
C           -1.35998245153979        1.94559965364623        4.71824139102017
C           -0.15912925959652        2.60614368348138        4.89384276158588
C            0.16025329828853        3.74684544003124        4.23271755800921
C           -0.64151877258613        4.10246881856447        3.13866174681394
C           -1.49866130286656        0.87741815037140        5.59486892165432
C           -0.36740973557053        0.22291434612803        6.24367556246500
C            0.80457483637830        0.92115044483734        6.33338876017113
N            0.87876128721092        2.23334443230046        5.84367346302857
C           -2.80265808436050        0.20026034042048        5.87938716176773
C           -2.76068133802727       -1.23079856291819        6.07434095210692
N           -1.63333928659199       -1.84026256336689        6.58717889001312
C           -0.48502899319567       -1.08304814299140        6.81128900361318
C            0.74862917749009       -1.61149944116548        7.29903738005238
C            2.02915539759402       -1.07130937990744        7.15972233813431
C            1.93720336443111        0.31579540905248        6.85421760747943
C           -3.94922719706830        0.91047748885418        6.34021978321338
C           -5.08743909761169        0.18471461039780        6.17635608952617
C           -5.14920029582923       -1.17819078918110        5.60301958280277
C           -3.93608918357504       -1.92454676646194        5.61447888628193
O           -3.82738887716531        2.33328095900777        6.51016327887687
O           -3.16230780625848        1.32287020402285        2.95100822631030
C           -0.40305586739392        5.33755776089350        2.38919621531647
C           -6.47522175542013       -1.79865509941229        5.27158189083600
H            0.98847286164598        4.37785805059269        4.43050747108515
H           -2.27175456526412        3.46860463522535        1.94098482358573
H            3.00297160662381        0.68709130465666        6.94352032843160
H            0.79397957574471       -2.64925091993165        7.63642589946467
H           -3.94544141725836       -2.91454068847641        5.43095444269388
H           -6.05997997962618        0.69591376328552        6.44622596741345
O            0.16062729806585        6.27398365775251        2.97036642394393
O           -0.81975229112005        5.28012152426613        1.04145385891166
C           -0.70968291101374        6.61160766174623        0.46017616112427
C            3.35968177286461       -1.75821155724843        7.26990417615933
O            3.45123607891820       -2.64945760720717        8.07928030007938
O            4.43814809387373       -1.33885889516347        6.44575074891781
C            5.56630005015043       -2.07128827603710        6.83193658465130
O           -7.37455249412425       -1.02160964871931        5.03740889355142
O           -6.64955425803335       -3.19790118695839        5.34455826271190
C           -7.92559621380990       -3.75293547224813        5.15384774349390
C           -4.64194695830536        2.79263622922615        7.50658793268011
C           -4.49345708919001        1.88356377318110        2.64051428407396
H           -8.23556728975682       -3.15702881269462        4.26663817895725
H           -8.58392372977157       -3.76498742475324        6.13622640820394
H           -7.87351075757706       -4.78710236236940        4.79103809109637
H            5.90634676239626       -1.98188362671302        7.94538632023605
H            6.24469446702577       -1.86673512289022        5.97478454040720
H            5.44012877094854       -3.18713994848406        6.72734188888575
H           -4.39851738978620        2.66392893810504        1.97559079546652
H           -4.94391647239643        2.30573642031923        3.68234492191130
H           -5.21344667079104        1.10267051520452        2.39987626178420
H           -5.50072758692947        3.18877649665726        7.01146253178908
H           -4.19752471538589        3.49375675174899        8.28268315202109
H           -5.03305830693199        1.98639209322446        8.11443439398753
H           -1.54016945352623        6.91111674042708       -0.08707092162881
H            0.31054087862782        6.94801145617450        0.02097748707997
H           -0.68567941585222        7.22291218700788        1.27648337947465
116
 energy: -22.730430009003 gnorm: 0.550025908771 xtb: 6.6.1 (8d0f1dd)
C           -2.89660046328858        0.52628730029648       -0.78468115721339
C           -2.08827256205845       -0.45995051279037       -0.29307951849546
C           -0.87758038217560       -0.05513183671545        0.35281051806525
C           -0.40024564967787        1.27649948330610        0.13994600111096
C           -1.20373096051607        2.29868059698673       -0.45555266225254
C           -2.55983195595150        1.96963141115525       -0.77337986529549
C           -0.25379305789039       -0.74080489941319        1.47612287390312
C            1.03751441981296       -0.43935622759041        1.62122451323595
C            1.48638382607200        0.89488293133658        1.14859339288977
N            0.75360163320998        1.74670440288956        0.58719551020660
C           -0.83375904677512       -1.67110577068047        2.36935986404354
C            0.15456935401447       -2.58124414298712        3.04220647784322
N            1.52688764286143       -2.27543354357004        3.01296926456618
C            1.95994130633247       -1.21524424988542        2.30499560111693
C            3.25929656974664       -0.86529127950001        2.43744650094069
C            3.69983223268442        0.43077595002148        2.16566891595650
C            2.68016107129932        1.37502430735826        1.72963166301382
C           -2.28109059645848       -2.02720655286583        2.46096339035191
C           -2.59930190335246       -3.26508639309899        3.10900119061628
C           -1.65071799953237       -3.89983429660856        3.92256597916771
C           -0.29417200980168       -3.69441758583378        3.84490028458259
O           -3.13113318755901       -1.12685576673458        2.13443597903009
O           -2.65315031545039       -1.77386414960930       -0.28748104662755
C           -3.60760284455035        2.90366742465678       -1.30140799196020
C           -2.01282631542737       -5.16691897106997        4.63871295069248
H           -0.88191606709052        3.29735518892593       -0.48180890181974
H           -3.80077842584595        0.23694918218967       -1.26607379954882
H            2.78458924571701        2.43546662555575        1.71275819979256
H            3.84867938007742       -1.55089910926847        3.04326263869644
H            0.40621047778794       -4.23253997981319        4.31463853324151
H           -3.52711613140114       -3.65553908732218        2.86828199953755
O           -3.70681458086730        4.07630347373392       -1.03244258744613
O           -4.49049936972203        2.29280945531709       -2.23804547295013
C           -5.28018739337732        3.12664500523071       -2.80184818137898
C            4.91798559547392        1.13062738849246        2.77219030932171
O            5.89539157390813        0.51129987464805        3.13314897271901
O            4.88205029683484        2.50720409565364        2.98296054838429
C            6.03915776657920        2.97720327058450        3.68258094750640
O           -3.13148677924405       -5.51337712662584        4.67082136451808
O           -0.99285856158557       -6.03435059269082        5.07235691664648
C           -1.39635054699572       -7.26642853824026        5.27882884138419
C           -4.53801741961570       -1.43422028609179        2.61779764412371
C           -1.91835932358644       -2.90583134008094       -0.60003971576737
H           -2.05436263300117       -7.44371341196853        4.41178000252950
H           -2.06642010589933       -7.23965419817731        6.21156311581466
H           -0.49899639083175       -7.90740612638338        5.09955722259628
H            5.79496769734104        4.10710080145126        3.78840811054848
H            6.85079326778911        2.39747884189160        3.16262073050471
H            5.85233629999988        2.48706356588960        4.69508085316750
H           -0.81582121563397       -2.74105958775487       -0.64681365369522
H           -2.30825421325188       -3.33620423048618       -1.66504206948276
H           -2.15110828541894       -3.60710396900244        0.15151819181931
H           -5.11271070411765       -0.69737396569846        2.04823363729473
H           -4.64979963946255       -1.44882169089726        3.63225047655972
H           -4.66482269075717       -2.37490638755245        2.17127216850448
H           -5.65657358603099        3.77664716769290       -1.92534686428241
H           -6.12471270187593        2.78779833716621       -3.31826758552034
H           -4.67595074368640        3.61335076474293       -3.66613605591551
C           -1.93860063794510        4.33975516704514        2.90575435094142
C           -2.31887514420812        3.11273137195121        3.53363765043214
C           -1.35686873366076        2.40316833481688        4.35967354621861
C            0.01826569844111        2.93472234872702        4.35426744382969
C            0.26120141179789        4.14478759698358        3.57363799949213
C           -0.77723100499500        4.98312235057674        3.13483218464764
C           -1.53963052378887        1.10839933151782        5.08566088796961
C           -0.24579677108325        0.42507032003981        5.32669331725303
C            0.96136817581788        1.19643275563058        5.53162570987564
N            1.10418000457369        2.47254043606485        5.09579764007746
C           -2.71421423339995        0.37931370196224        5.53993213723220
C           -2.76540962117355       -1.02530675708019        5.73201591205406
N           -1.51172122260407       -1.61367053350252        5.59737286326152
C           -0.33603774573862       -0.93098606488659        5.73609686410956
C            0.83717600364961       -1.59688961625432        6.21821975978748
C            1.93796065154632       -0.84010623112498        6.38572957771032
C            2.07311181153649        0.39665764162468        6.09472995574994
C           -3.86303242876450        1.13755339643906        5.93227093995347
C           -5.03103515027624        0.32330911384088        6.06894003117396
C           -5.10976892150476       -0.97005828306909        6.00757326643693
C           -3.96430307860130       -1.71074676284325        5.86880828176797
O           -3.74350719346176        2.46168455696803        6.13135587954670
O           -3.54172336103166        2.41777213592830        3.28928088245691
C           -0.50076209693216        6.32533053439825        2.49101922404701
C           -6.42421543097306       -1.77579323829015        6.02149209627892
H            1.26973624607568        4.43054248078167        3.46706747839975
H           -2.63256288813169        4.92424830066380        2.26276674216950
H            2.98097708077479        0.86777193480085        6.16990658685160
H            0.87482898189256       -2.60835879524213        6.65363879583772
H           -3.94814381683956       -2.72180817202801        5.90917648652295
H           -6.06214981981785        0.77429948032313        6.13382111692951
O            0.63446736301418        6.51037244632133        2.18950034947476
O           -1.55778377692454        7.17316459566388        2.25472951932026
C           -1.15125185379022        8.24464397154692        1.37364275557624
C            3.13773372294331       -1.75549831916933        6.81605673395777
O            3.82790071217653       -2.43345182486986        5.98315210572904
O            3.17207792460551       -1.82829746233185        8.20493735927663
C            3.87825277613150       -3.01059037264314        8.57140663216091
O           -7.53072460314763       -1.26691188426277        6.21695092889785
O           -6.36840456825907       -3.16464404800464        5.88159283043343
C           -7.61165472658779       -3.72167202109901        5.41918547016012
C           -4.93189003483405        3.23365795167890        6.46688788062483
C           -4.57660729464523        2.83303604248689        2.27156188494291
H           -7.95419591568517       -3.17841338415851        4.57016947876279
H           -8.29621945430922       -3.80348159729754        6.15045793860540
H           -7.39268922975176       -4.75938549531500        5.18593009582006
H            4.13178307783412       -3.13208342548628        9.60593672781631
H            4.82057889681369       -3.11791837673909        8.12711971367698
H            3.17898031060920       -3.86494256677438        8.40055252344390
H           -4.02354732727364        3.08310802394328        1.36572748064595
H           -4.99399966281481        3.69686892936119        2.61372871215017
H           -5.33627578853738        1.95332085939751        2.13057082346668
H           -5.39506101940810        3.03915237511258        5.48795439899716
H           -4.75871168389434        4.31751036054943        6.56797107079068
H           -5.30901185932010        2.67875487070153        7.32129624448799
H           -1.62744934335300        9.13271686017496        1.71439878131646
H           -1.38404664098226        7.88501982637636        0.33643314639259
H           -0.15522576261505        8.51750096268786        1.35013543009769
116
 energy: -22.755623204926 gnorm: 0.459014358624 xtb: 6.6.1 (8d0f1dd)
C           -2.55322910766355        0.03203885865685       -1.08639162099252
C           -1.74769308839929       -0.73898891595548       -0.39983352215466
C           -0.82046374644259       -0.14790607376060        0.49697999308610
C           -0.46710561740414        1.19051447641851        0.43390810507521
C           -1.34700906667048        1.98634881659995       -0.25913648306086
C           -2.40485823581259        1.39500087206211       -0.93240842079611
C           -0.06350256567523       -0.95115504542876        1.38218510676913
C            1.16185438190367       -0.44477265917560        1.83280826134402
C            1.60064326729460        0.92284873553791        1.63809825884976
N            0.58528468168969        1.74333250758591        1.17528562358025
C           -0.81003669951847       -2.05428892542855        2.11659775997430
C            0.08096483896857       -2.89092540864578        2.78394959614723
N            1.34565838849419       -2.47029806926750        3.12407165769059
C            1.92694762019686       -1.33118176722415        2.65793026901669
C            3.05673228885154       -0.87474238079781        3.26592710391947
C            3.57255700911021        0.39528378355060        2.91037379276902
C            2.87598746553277        1.34806123146762        2.16180210728159
C           -2.23148302236123       -2.18210038502550        2.28385848247061
C           -2.72847443900404       -3.27667429630109        2.85300873377664
C           -1.79746500381373       -4.35987405240411        3.19269355387877
C           -0.44289277059307       -4.08677338556910        3.26321577224349
O           -3.03847297592957       -1.16111892613014        1.97944420462324
O           -1.73329562328003       -2.14290090194897       -0.57074998550288
C           -3.51339177753535        2.32983328845644       -1.46951508368636
C           -2.17577079533963       -5.56818896863074        3.89937687499007
H           -1.29787666906629        3.05317014815772       -0.12703973068678
H           -3.48344939109020       -0.39960873392198       -1.51418965882218
H            2.96069909964143        2.40267563507445        2.32956979137474
H            3.63396839880601       -1.52260258221788        3.90656457408083
H            0.17787868938278       -4.92662637208115        3.36134235043520
H           -3.63173317679358       -3.34547619938575        3.26995026380133
O           -3.45890997640600        3.49217647854087       -1.01793378068587