116
 energy: -22.928061455056 gnorm: 0.329736929581 xtb: 6.6.1 (8d0f1dd)
C           -3.31122850772930        0.79849766164622       -0.92477639677520
C           -2.44380812530352       -0.12270372891954       -0.27661132624697
C           -1.41337090092821        0.39579727573559        0.56335275196199
C           -0.89266158675590        1.65801491088749        0.27377586709581
C           -1.72665675402493        2.51431363229076       -0.49448366572522
C           -2.95444148494349        2.13954154133227       -1.01494489940871
C           -0.74098268209890       -0.43411532818871        1.49825021926784
C            0.56872586496315        0.03782116815119        1.86248088067890
C            1.03782416582094        1.29402317993033        1.50887470833621
N            0.31238977034758        2.07067427098208        0.65193736800696
C           -1.29695700510141       -1.39996043042223        2.41574187746061
C           -0.38243517664656       -2.18060797534842        3.13232615520648
N            0.91308504082021       -1.90366887689689        3.30325166013478
C            1.37712470144904       -0.74872102533751        2.81811050966982
C            2.52149331701875       -0.17739833758153        3.39379298866852
C            2.95849061756259        1.02681208890480        2.95105897606587
C            2.24288949469137        1.78498308775960        2.03503020483770
C           -2.74860936222260       -1.74497937691422        2.38401158947411
C           -3.09416315450955       -2.91614440870436        3.00571134491758
C           -2.16786021984049       -3.77788778654213        3.63251872101904
C           -0.85708937311598       -3.40495313382985        3.68547234358092
O           -3.71994433332149       -0.94984598373544        1.67726658385724
O           -2.55702603277562       -1.47241711578389       -0.57241635275616
C           -3.84297843593025        3.13357444054366       -1.60938954875544
C           -2.68769581069131       -5.03867041417370        4.30484659386931
H           -1.39666850744143        3.51251503834900       -0.76806311868865
H           -4.27662633836220        0.55105838579656       -1.33106614114542
H            2.66329581305412        2.73912661909249        1.72562431984580
H            3.05775395548473       -0.69369546277216        4.16536137542516
H           -0.24710966264510       -4.12034095424229        4.22946223699121
H           -4.11477991332403       -3.04712728052358        3.03244694615357
O           -4.21824883374556        4.03433712717988       -0.87713382485991
O           -4.44510595673734        2.90643496899600       -2.81853501752979
C           -5.44216520282800        3.83300025693726       -3.02488532025093
C            4.23586651889298        1.50004220933226        3.59165660008449
O            5.05927614697201        0.66079890002952        3.91714215179376
O            4.47001334453535        2.86385149488593        3.72605651435371
C            5.79457498613219        3.08584475587818        4.15829123132174
O           -3.82227255313510       -5.27347675879771        4.16636005494405
O           -1.85023202017753       -5.79767454267276        5.06656077253571
C           -2.55119635829503       -6.86252441382958        5.62930343183426
C           -5.07197156564436       -1.42399175670916        1.58830531863830
C           -1.33089900128490       -2.23622472573986       -0.99264499351172
H           -2.54510546830388       -7.76426885143998        4.99136022291012
H           -3.57194749219491       -6.44405511486021        5.74196173723541
H           -2.09133598235598       -7.02043774843818        6.64022264233588
H            5.72707967266424        3.46798026205549        5.10135971236643
H            6.34060091246885        3.78468702308830        3.50069950143490
H            6.17933064298187        2.03010500085905        4.19342358084693
H           -0.91862729772622       -2.57650129080332       -0.01361370304871
H           -0.49769766914251       -1.60651221708571       -1.34094446550576
H           -1.52632419730509       -2.94569707152159       -1.75361447637286
H           -5.11788846557077       -2.41810833635233        1.17520213188926
H           -5.67929807973498       -0.69619639428435        1.04301666067831
H           -5.57598832326623       -1.42383358739762        2.57928294206544
H           -6.13050215934830        3.76035386975488       -2.23272855695873
H           -5.86615610071888        3.45938329385866       -4.02668959924245
H           -5.13479557532099        4.87790991548477       -2.98314551356402
C           -1.38192942069774        3.73616555005018        2.91232598411686
C           -1.84821468128685        2.59982427735607        3.49755545445181
C           -1.05946531454833        2.05730632010638        4.60922730982276
C            0.19893954712228        2.69376791964407        4.86302140881997
C            0.50425395911860        3.94630308659851        4.28768785650746
C           -0.26031777722226        4.46998310053134        3.25072669343212
C           -1.20488993561782        0.74454293276906        5.14851520323437
C           -0.06287609782692        0.02744069315890        5.60930570802864
C            1.19208754369866        0.71421540266195        5.78882868583885
N            1.19428660993148        2.06344359410476        5.62744624321596
C           -2.41361422770794        0.07928500213936        5.25249410304426
C           -2.45851584031083       -1.32662100968547        5.60237876023992
N           -1.29466212405906       -1.98318595734370        5.89916817085159
C           -0.14475655767527       -1.32117560077092        5.98824682881008
C            0.97209270935794       -1.98958449505532        6.53157704134458
C            2.21982707914082       -1.36973967291181        6.68703967237737
C            2.30561929262884       -0.09745313075593        6.26436900324455
C           -3.73018485967715        0.71367583494582        5.25810242262992
C           -4.89964478833448       -0.06184623426677        5.21204641615509
C           -4.82617965800088       -1.39228978090841        5.46901303780036
C           -3.67144193418464       -1.98914944386360        5.67265433266067
O           -3.75568638935321        2.07705011038914        5.52067969627343
O           -2.94192434743730        1.91263938797883        3.01658762327703
C            0.21273512614467        5.50086066357994        2.34765104514621
C           -6.06660304520411       -2.17604633098929        5.80641622556876
H            1.41756699010566        4.38133362238595        4.66974005703471
H           -1.82880610647429        4.11982501512100        2.06992133318584
H            3.26888037378556        0.32655662585251        6.31721410015598
H            0.87146188387207       -3.08471526305024        6.57830423410869
H           -3.67716811065157       -3.05999292755990        5.83019634570050
H           -5.77379677507622        0.43595144608221        4.71017130754348
O            1.34459852619901        5.82615848916894        2.44941456579099
O           -0.74718748219123        6.07961784856304        1.59848183464284
C           -0.21473095568964        7.24015934882472        1.05753806029483
C            3.53228080814219       -2.00967610361154        7.02506769044485
O            3.64093082622715       -3.14437803815732        7.50071391725347
O            4.56565258381079       -1.22937033368332        6.69086985080897
C            5.72579357310716       -1.80692399125161        7.22246151275881
O           -7.04801223588612       -1.95726935745904        5.14194115322235
O           -6.01514389321278       -2.93743591896022        6.94765316328794
C           -7.21292732384718       -3.62681918543340        7.15115816329978
C           -4.95459780685163        2.65960679932188        5.86868674392943
C           -3.68284113682406        2.59129188358641        2.05479246020704
H           -7.43119628931628       -4.22607794725959        6.20622607140901
H           -8.06548455146707       -2.91765848248592        7.29781126410398
H           -7.07314693247270       -4.33087306029711        7.91223421050944
H            6.57332189837178       -1.29353136199234        6.78341268688262
H            5.74663761932316       -2.84282155125561        6.88089468184451
H            5.69426191474290       -1.72781984964892        8.29460302186842
H           -4.10481209541493        3.44288266176275        2.60483747673152
H           -4.49244774344916        1.87419893016926        1.82433103764650
H           -3.18901540870812        2.85154642679373        1.06781919454921
H           -5.55414326821421        2.76698137191684        4.93950725322359
H           -4.78658370641210        3.62090640967288        6.25983200635257
H           -5.43485580473958        1.97242995129449        6.65265772412460
H            0.89164886030839        7.38838561720231        1.13776105146914
H           -0.62894889903848        8.04195665205089        1.64837664327952
H           -0.59282546386754        7.45699159724320        0.03719083132488
116
 energy: -22.610382858621 gnorm: 0.532259362211 xtb: 6.6.1 (8d0f1dd)
C           -3.04784131758764        0.55329721073914       -1.53640886213513
C           -2.22193409233310       -0.50253476080340       -0.90825922406020
C           -1.28408544584204        0.05712499390965       -0.09759755197699
C           -0.70104232364366        1.35617199706102       -0.28943631733261
C           -1.34584212779145        2.36272022037164       -1.06686872578433
C           -2.64882148616849        1.95849172018705       -1.55414255251776
C           -0.89334490204139       -0.50526405052615        1.13736688594078
C            0.45269816742524       -0.30429744307355        1.55967985172672
C            1.04645074657637        0.90166884451308        1.27499793158049
N            0.29302996284533        1.81571075017673        0.56127667461184
C           -1.47620270429348       -1.61372985058137        1.73580196004773
C           -0.67556427691342       -2.47920912739281        2.60435093590455
N            0.58939995035600       -2.23166542888089        3.01149759685662
C            1.14496227735753       -1.16185270781996        2.54574741981624
C            2.53592770153805       -1.10023181646556        2.69581607288416
C            3.20735661932103        0.11534977008668        2.29901978054768
C            2.43976280848388        1.10770309399746        1.68312502750543
C           -2.81991793786000       -1.91516068975722        1.66884592853693
C           -3.25377743992475       -3.05596970457065        2.22861009896420
C           -2.53337985697855       -3.77543652800001        3.07545446980699
C           -1.18367026235796       -3.56196403287696        3.16943007270141
O           -3.91080884631559       -1.12974556033635        1.14166175194962
O           -2.27237712199949       -1.82588315049374       -1.26159411116281
C           -3.74107350890472        2.97462899714487       -1.79369179732149
C           -3.10661629804411       -4.81209031853798        4.03682148895105
H           -1.00439900347078        3.32807993756376       -1.50665611534534
H           -4.06450218355285        0.29150698897159       -1.84356523251220
H            2.76209550312997        2.15788783729829        1.38007916965714
H            2.97287763161977       -1.96031876591653        3.30075149545528
H           -0.69633132447122       -4.09723261644391        3.99778285891804
H           -4.32250941984618       -3.46145277853654        1.85407187385228
O           -3.49608795393006        4.16425602395488       -1.81054993626233
O           -5.00748713118640        2.49458356438890       -1.96081538906534
C           -6.03972504573699        3.48617755341840       -2.14409356393608
C            4.33176899777165        0.69188774951728        3.05631146906513
O            4.75779643518147        0.09733948853137        4.10498514403043
O            5.22497731663933        1.62527231920509        2.58406267172097
C            6.21100349579373        1.88320110933856        3.45362688315909
O           -4.31174937569754       -5.20478699014981        4.12656792561183
O           -2.04703362754939       -5.41733282566639        4.72116095041958
C           -2.22170578189727       -6.33805248272793        5.82685835653324
C           -4.93202112337623       -1.67109723778711        0.40774580175963
C           -0.94697078651844       -2.36733755639825       -1.26564306428326
H           -3.23467586409502       -6.84909800291415        5.70214761812298
H           -2.23495082045191       -5.67897698543017        6.76047393756413
H           -1.37242039760742       -6.98145877629701        5.74386256596006
H            6.76569641549172        2.74867195530571        2.84644274792203
H            6.84777340114399        0.94289487193688        3.72635590708787
H            5.72902929073411        2.56770995721529        4.30501171691872
H           -1.02559139478889       -2.75905434739941       -0.30602807482577
H           -0.16235190045548       -1.65285182195452       -1.40842538243290
H           -0.86384000256268       -3.18856984045549       -2.07557940756752
H           -5.81459393408402       -1.14993760439194        0.57378260781492
H           -4.72496532175721       -2.78106967658500        0.40177058280284
H           -4.80951546274494       -1.14571807355839       -0.68370572432805
H           -6.49115004360910        3.49699071360624       -1.16296107101167
H           -6.74923643483636        3.27081774585425       -2.89654360173463
H           -5.77593136034570        4.39091082764462       -2.66735803223420
C           -1.74181532119008        3.93286689413084        3.58854721589514
C           -1.81678062040943        2.65419722849403        4.04168427811883
C           -1.06212695228102        2.34694783199464        5.20897980817969
C            0.24583022271635        3.01297006050824        5.29311400386583
C            0.29829692315803        4.31427591351577        4.80370481736282
C           -0.73453953268332        4.77403430459739        3.99671107630011
C           -1.21757969602124        1.27379314787414        6.16999246073900
C            0.01670094407986        0.54394144799551        6.35607167910734
C            1.27827716659310        1.23564390086331        6.13709083249254
N            1.41991015356126        2.56852861508357        5.88021570582861
C           -2.50561787260469        0.49833219861840        6.42256577821977
C           -2.35060945450672       -0.87280138974129        6.39168732921210
N           -1.25097430665368       -1.54266350964414        6.61336510024324
C           -0.09444328895370       -0.79956463893623        6.68143980874909
C            1.05420194949892       -1.47716720539924        7.12969032823620
C            2.30464832932634       -0.82916152874911        6.93083435270413
C            2.43568741878850        0.54750826700574        6.46415561279729
C           -3.67350157403942        1.30298272210695        6.44976820658083
C           -4.85218452699796        0.57528452396695        6.03011026671003
C           -4.68472991956772       -0.76298981554652        5.54771412626523
C           -3.52909029446495       -1.49364867561605        5.95179041159786
O           -3.80760847261167        2.64938124678292        6.93388388477001
O           -2.68072575669264        1.62694103113493        3.59681053525005
C           -0.63633245085172        6.01164826654915        3.13098517653666
C           -5.83862672816660       -1.59949433064296        5.20956773023456
H            1.26134100032468        4.84078832330893        4.89874651190587
H           -2.19187022140117        4.17452224669886        2.68568292538108
H            3.39615890064854        1.05324521942474        6.33519309097420
H            1.17646557977634       -2.25107005481140        7.71427721438692
H           -3.28877901075978       -2.51568401240528        5.84275076942793
H           -5.65915598198430        1.20124807988898        5.65532355589321
O           -0.08305782409627        7.04521614959039        3.39985094941517
O           -1.28485608481690        5.69312668829309        1.99927826125937
C           -1.09763987364893        6.70539436341032        1.02283520430785
C            3.51602874768900       -1.44516056139808        7.57866924025987
O            3.20227387304507       -2.16259346200547        8.52320664348890
O            4.75783171302861       -0.87120397556788        7.20940643231474
C            5.91803437941011       -1.62091810291889        7.37672813470160
O           -6.90405376747415       -0.97893875100189        4.91221829551288
O           -5.72793293663841       -2.91498051403723        4.96540117079122
C           -6.89244744579119       -3.55887115698560        5.16667849282410
C           -4.70278327029673        2.72612618567251        8.03412693045320
C           -2.94182252558470        1.50744385959431        2.23271478799636
H           -6.98298226952669       -4.11992649958233        4.26402303054110
H           -7.68276427959578       -2.89953518585540        5.00867532451794
H           -6.98306937212141       -4.47417700553025        5.97887452368700
H            6.77517967119459       -1.06492243617524        7.45888954550437
H            6.04762810860708       -2.18572834380520        6.42311724904174
H            5.67286720044067       -2.33353699978359        8.24885543454727
H           -3.01637051665689        0.37740059891452        2.05548928910290
H           -2.25714007033944        2.03025808957966        1.50882825498856
H           -3.93205936424967        2.01739085214882        2.24226345225132
H           -5.55337809950588        2.11238798552330        7.87727568605073
H           -4.99309105119641        3.74015855482073        7.92825874081325
H           -4.12613805688554        2.39028108854218        8.87514509623557
H           -0.62606402002412        6.61975740386659        0.00702549410294
H           -0.87549892599588        7.74256211336814        1.31784625482858
H           -2.10232581775749        7.00987659359987        0.69961337148732
116
 energy: -22.660799555517 gnorm: 0.522574825215 xtb: 6.6.1 (8d0f1dd)
C           -2.99764637746677        0.60814091096019       -0.86130529631015
C           -2.36704796692964       -0.32539098337790        0.03991525295480
C           -1.49574354637688        0.26329838634207        1.20140695569877
C           -0.96620575910972        1.59302124604381        0.96375586807919
C           -1.32153381377351        2.11406073061267       -0.26055082420404
C           -2.38898779783335        1.83084857154494       -1.12343022227892
C           -0.66277945952366       -0.54174567961460        2.04555167910543
C            0.66059982041068       -0.14109480864475        2.13705452125177
C            1.10899889275015        1.17036095593292        1.99019121634711
N            0.15860417084915        2.08728478918266        1.56879547582026
C           -1.16780968638674       -1.77388363842742        2.56889525054757
C           -0.17780006960109       -2.71343405954848        2.87148209521276
N            1.09542651138642       -2.32176605656325        3.09628537703233
C            1.53137228618826       -1.12577814984586        2.75385814193317
C            2.81497803370846       -0.80733268948929        3.08862044860439
C            3.24874414198939        0.53811568955438        2.81756820658967
C            2.46380638536139        1.60485285517487        2.39838814512727
C           -2.52235117813317       -2.04097923337493        2.66327292247862
C           -2.85370445439744       -3.41111032592266        2.83816080031579
C           -1.88046505504457       -4.30918330533728        3.33364652347858
C           -0.54473215893803       -4.06144334984035        3.34571568102735
O           -3.55026790919228       -1.07051166308512        2.61258619901637
O           -2.47200273351491       -1.73336197941773        0.15414734621666
C           -2.99321883342880        2.71226205879019       -2.17833271467844
C           -2.26824098391596       -5.62175700439891        3.70432896805924
H           -0.78182168129407        3.02083605077465       -0.44781878166845
H           -3.81296629445637        0.45214039351203       -1.51554791356522
H            2.98984896203386        2.52464405938980        2.26680887058639
H            3.38684755378259       -1.57333685820361        3.56864805802998
H            0.26025837602696       -4.70303840643049        3.77743605364093
H           -3.80411084535097       -3.67803294841418        2.74571588877666
O           -2.64015295749806        3.90307162425034       -2.22602211515317
O           -3.95491404115804        2.16187517884615       -3.05566325059262
C           -3.87233393511521        2.77240659659299       -4.44511715608784
C            4.69077345059426        0.89056412952699        2.78450969803986
O            5.49200243475772        0.45622877855564        3.52077379832176
O            4.86830103098339        2.19934178549211        2.01030999973067
C            6.14081522877718        2.68677542813220        2.25775486517455
O           -3.44560996516374       -5.99877677739663        3.74877675527822
O           -1.15040927342729       -6.58229912276707        3.96000285383987
C           -1.58919345617420       -7.83928195338034        4.03054118745183
C           -4.91151455397176       -1.36026226649083        2.25838538706630
C           -3.67903455220951       -2.35699717778370       -0.50647299923967
H           -2.49052702913705       -7.90446291191676        3.48757781178430
H           -1.73976641482422       -8.17187467884634        5.08349942070728
H           -0.77779809819626       -8.50791593524345        3.63435655997542
H            6.64313972554270        3.66104777439766        1.87032349124443
H            6.97014919608731        1.88042630730530        2.12086376516793
H            6.12523219204879        3.09872753354068        3.37869046625889
H           -3.53792978958122       -3.38178232637674       -0.35422351138959
H           -3.34990834372015       -2.24557269286223       -1.58204629631301
H           -4.56332211731218       -1.91846578538691       -0.24403699859234
H           -5.43742992862839       -0.57619625992455        1.56124856973825
H           -5.18236615025560       -1.11196860057722        3.26368612708908
H           -5.15090817698159       -2.51731386471412        2.10328886716822
H           -3.18082899693417        3.57630036313149       -4.39595382544696
H           -4.73820486233293        3.28061883173442       -4.74254845377838
H           -3.51984024626800        2.02640879134637       -5.08215742589763
C           -1.93319132512771        4.20231216469877        2.92551759409469
C           -2.29007043781530        3.07880663648944        3.65637984541453
C           -1.33984592290284        2.42002211225870        4.47184272094040
C            0.00984036356219        2.94494111348618        4.59969070103801
C            0.27107166332355        4.20777988462631        3.91162580484183
C           -0.72556863219864        4.84403474865483        3.06298406011387
C           -1.59949239726736        1.15912677126652        5.20258358349496
C           -0.36116159851603        0.48543127637119        5.59444071243154
C            0.85185855544161        1.10024818807412        5.61159844448494
N            1.09111373646820        2.25955151237692        4.97156051123980
C           -2.79299363389571        0.52098137305719        5.72630587454789
C           -2.56631222779084       -0.89367802406610        5.97829636803764
N           -1.44376818249722       -1.42682019736185        6.35166602522250
C           -0.31243592806541       -0.73444085667761        6.24108575413348
C            0.85945860507309       -1.45603456920059        6.65851542221278
C            1.97370266448522       -0.65843885152568        6.74400660227810
C            1.96986931281113        0.59593766147110        6.26792257886191
C           -4.09513792388210        1.04173995086964        5.90509081742031
C           -5.16116894180182        0.11623488632057        5.78226712458993
C           -4.89790601613162       -1.25308362728200        5.84191967803289
C           -3.65414745512217       -1.78371946832632        5.86956943629394
O           -4.41482117794756        2.15598699218930        6.73603289877710
O           -3.64049160221333        2.49495234467520        3.57440490910517
C           -0.25725394546557        6.15436485314732        2.44871559847316
C           -6.23029778841040       -2.07837708224979        5.86788694616326
H            1.33702113386399        4.37512077424897        3.92658463632986
H           -2.78011772404825        4.65366862629596        2.43066261905004
H            2.89223369996741        1.18625715960644        6.26088455167105
H            0.78656010605991       -2.38058854983917        7.06349339565978
H           -3.71501729796751       -2.88634273816158        6.00244623908928
H           -6.13597746796852        0.27557422608648        5.40253634865965
O            0.89802907635759        6.19189838173927        1.97691248759810
O           -1.13877968624176        7.25361222408408        2.46029587112238
C           -0.47678899549018        8.32467298169805        2.15532301920462
C            3.22717053444307       -1.39215674549814        7.18106077517103
O            3.96690652969831       -2.21476369137945        6.65348499701295
O            3.53855636359558       -0.95089450111252        8.48194073282301
C            4.62040408878717       -1.61622443027297        8.97246552394400
O           -6.34145696341328       -3.17306699278629        6.42612874293130
O           -7.34118755754113       -1.60365802832579        5.26855488798738
C           -8.46131186351958       -2.42336151562704        5.37704632430091
C           -3.24970796624122        2.79127150239431        7.29383819769876
C           -4.17609213005501        2.08818805651313        2.38050538763800
H           -8.06144995102641       -3.46082584060769        5.55812485239294
H           -9.09376273840851       -2.51446160258185        4.38869007457653
H           -9.32806734156513       -2.01399042890479        5.93020210023512
H            5.18880869551606       -2.26283696410719        8.20627913388195
H            4.38069373280326       -2.33080675884127        9.84406756886050
H            5.47171835492152       -0.94761233315045        9.26178960209527
H           -5.08564759151851        1.54113783646037        2.53295819164611
H           -3.46552591510857        1.30232256212792        2.11261485690296
H           -4.24230651219254        2.83531496949636        1.55422560930363
H           -3.52778314083181        3.16909982775899        8.22726177654780
H           -3.04638204734434        3.47274052178753        6.48632424092604
H           -2.31285912632622        2.45722117521728        7.21894198239944
H            0.67660282795529        8.21250475255718        2.06973302791454
H           -0.68503833951845        9.07989048253451        2.88451144777669
H           -0.93245967713345        8.54278159684041        1.12432763215014
116
 energy: -22.676489902021 gnorm: 0.500174226277 xtb: 6.6.1 (8d0f1dd)
C           -2.96402278879152        0.01228331791611       -1.15427039236033
C           -2.27992746542610       -0.72431631289786       -0.31649180052338
C           -1.25183494874222       -0.17151327432233        0.61667911533571
C           -0.73739511304055        1.15300624756842        0.32224505665069
C           -1.46026307032163        1.92913559016622       -0.50303996931160
C           -2.50745997414254        1.32243028253241       -1.28118674139707
C           -0.51118001695634       -1.03533541638443        1.56237422209761
C            0.66082890798893       -0.41127085646418        2.05546618002893
C            0.95593469038546        0.90892554002434        1.83013309957288
N            0.22038212706269        1.74991731631888        1.11377752003663
C           -0.82525296593431       -2.26943497190414        1.99985713188033
C            0.20598575908239       -3.07408986721245        2.66421329129806
N            1.33392763057553       -2.51856983179277        3.11951195947514
C            1.56898967046505       -1.23583890254970        2.80549048949413
C            2.74557569008959       -0.56668247042706        3.28028560041813
C            3.11935300469296        0.78739169881747        3.06332127424825
C            2.11567555476638        1.43847958386068        2.41350144522863
C           -2.19272382387563       -2.52177507444723        2.23511881354392
C           -2.47791849969938       -3.73347896498277        2.94679937066035
C           -1.49000496751544       -4.68352530183305        3.21195059464304
C           -0.15766079778430       -4.35065729019426        3.19162848789057
O           -3.17053597539699       -1.45700688101311        1.97279181258812
O           -2.44801507442832       -2.17735695254110       -0.43945935029759
C           -2.87508554171516        2.41064899776935       -2.51949666862831
C           -1.86201874783355       -6.08787361041051        3.65998449944043
H           -1.09985486891358        2.82957845680911       -0.97150284111586
H           -3.44819167283626       -0.45399465011415       -1.99477590677537
H            2.33652887284883        2.51829412966317        2.30516229506071
H            3.52695953492748       -1.11270536852594        3.69417219867864
H            0.56159905031350       -5.02939457398951        3.54672264770717
H           -3.45829286309628       -4.11670166269933        3.26137072126297
O           -3.40140988999639        1.92148683980968       -3.47548292056441