190
 energy: -557.497872855092 gnorm: 0.301729349661 xtb: 6.7.1 (edcfbbe)
C            0.84190000000000        3.57110000000000        1.94250000000000
C            1.02500000000000        2.23640000000000        1.54800000000000
C            2.12840000000000        1.88430000000000        0.71210000000000
C            2.75060000000000        3.00200000000000        0.02610000000000
C            2.45960000000000        4.35230000000000        0.36900000000000
C            1.57610000000000        4.58880000000000        1.37070000000000
C            2.75520000000000        0.59170000000000        0.55550000000000
C            3.85530000000000        0.56260000000000       -0.34080000000000
C            4.15550000000000        1.67510000000000       -1.18280000000000
N            3.63490000000000        2.86600000000000       -0.94680000000000
C            2.55850000000000       -0.63350000000000        1.31680000000000
C            3.73750000000000       -1.47650000000000        1.43550000000000
N            4.75580000000000       -1.43750000000000        0.59590000000000
C            4.75760000000000       -0.54050000000000       -0.37980000000000
C            5.74350000000000       -0.62770000000000       -1.38870000000000
C            5.85270000000000        0.39450000000000       -2.29940000000000
C            5.11750000000000        1.54780000000000       -2.21600000000000
C            1.38850000000000       -1.18820000000000        1.91330000000000
C            1.51460000000000       -2.23470000000000        2.84760000000000
C            2.72340000000000       -2.83970000000000        3.10780000000000
C            3.83780000000000       -2.51610000000000        2.40530000000000
O            0.11280000000000        1.39640000000000        1.98410000000000
O            0.13660000000000       -0.93650000000000        1.60150000000000
C           -2.40200000000000       -1.86160000000000        2.31070000000000
C           -2.45610000000000       -0.90170000000000        1.29480000000000
C           -3.08230000000000       -1.20880000000000        0.06220000000000
C           -3.71620000000000       -2.50170000000000       -0.04830000000000
C           -3.53760000000000       -3.48950000000000        0.96030000000000
C           -2.89620000000000       -3.13320000000000        2.10200000000000
C           -3.24090000000000       -0.29680000000000       -1.04230000000000
C           -4.27150000000000       -0.62900000000000       -1.95260000000000
C           -4.88230000000000       -1.91890000000000       -1.92330000000000
N           -4.53170000000000       -2.84050000000000       -1.03600000000000
C           -2.52790000000000        0.92830000000000       -1.31280000000000
C           -3.18610000000000        1.85990000000000       -2.20390000000000
N           -4.24980000000000        1.55970000000000       -2.93470000000000
C           -4.73380000000000        0.32650000000000       -2.90420000000000
C           -5.77340000000000       -0.01720000000000       -3.80310000000000
C           -6.29270000000000       -1.28560000000000       -3.76350000000000
C           -5.88220000000000       -2.24410000000000       -2.87160000000000
C           -1.21520000000000        1.28030000000000       -0.88220000000000
C           -0.72280000000000        2.55220000000000       -1.17630000000000
C           -1.47400000000000        3.47580000000000       -1.87270000000000
C           -2.68070000000000        3.17540000000000       -2.40690000000000
O           -1.89630000000000        0.28050000000000        1.52800000000000
O           -0.37940000000000        0.44690000000000       -0.26560000000000
B           -0.46480000000000        0.31610000000000        1.21310000000000
S            1.32160000000000        6.31580000000000        1.97380000000000
F           -0.31520000000000        6.18640000000000        2.03010000000000
F            1.38260000000000        5.78940000000000        3.54870000000000
F            1.15840000000000        7.80770000000000        2.55870000000000
F            2.96340000000000        6.55540000000000        2.02520000000000
F            1.30160000000000        6.96710000000000        0.47130000000000
S            2.74950000000000       -4.19920000000000        4.36100000000000
F            3.82570000000000       -5.08360000000000        3.46410000000000
F            4.02720000000000       -3.49510000000000        5.14910000000000
F            2.79880000000000       -5.37300000000000        5.45560000000000
F            1.70660000000000       -3.39730000000000        5.34990000000000
F            1.50990000000000       -4.98870000000000        3.62760000000000
S            7.09600000000000        0.23300000000000       -3.66390000000000
F            6.00900000000000        0.78170000000000       -4.77980000000000
F            6.62390000000000       -1.32190000000000       -3.96780000000000
F            8.16260000000000        0.08400000000000       -4.85210000000000
F            8.25150000000000       -0.32880000000000       -2.62750000000000
F            7.63840000000000        1.77430000000000       -3.43980000000000
S           -2.64230000000000       -4.38470000000000        3.44430000000000
F           -2.01270000000000       -5.47010000000000        2.36950000000000
F           -4.14660000000000       -5.03860000000000        3.21510000000000
F           -2.41500000000000       -5.46820000000000        4.60360000000000
F           -3.25990000000000       -3.36450000000000        4.59060000000000
F           -1.12540000000000       -3.80350000000000        3.76570000000000
S           -0.74990000000000        5.16800000000000       -2.02510000000000
F           -1.02630000000000        5.22410000000000       -3.65700000000000
F           -2.20850000000000        5.88480000000000       -1.75170000000000
F           -0.10630000000000        6.62690000000000       -2.13220000000000
F           -0.40880000000000        5.16960000000000       -0.39650000000000
F            0.77640000000000        4.55660000000000       -2.30050000000000
S           -7.63050000000000       -1.72410000000000       -4.96990000000000
F           -6.81140000000000       -1.01410000000000       -6.21690000000000
F           -8.42490000000000       -0.30330000000000       -4.69110000000000
F           -8.78590000000000       -2.10410000000000       -6.01560000000000
F           -8.52730000000000       -2.45970000000000       -3.79440000000000
F           -6.91350000000000       -3.17070000000000       -5.32000000000000
H           -3.96460000000000       -4.46570000000000        0.80790000000000
H           -6.30970000000000       -3.23330000000000       -2.86040000000000
H           -6.13160000000000        0.72550000000000       -4.49660000000000
H           -1.93830000000000       -1.58900000000000        3.24330000000000
H            0.26550000000000        2.81400000000000       -0.84630000000000
H            5.26520000000000        2.37340000000000       -2.89290000000000
H            0.61890000000000       -2.58950000000000        3.32720000000000
H            6.39090000000000       -1.48890000000000       -1.41680000000000
H            2.96300000000000        5.13590000000000       -0.16980000000000
H            4.76810000000000       -3.05090000000000        2.48690000000000
H           -3.24830000000000        3.86040000000000       -3.01250000000000
H            0.06320000000000        3.78390000000000        2.65600000000000
C            0.84190000000000        3.57110000000000        8.94250000000000
C            1.02500000000000        2.23640000000000        8.54800000000000
C            2.12840000000000        1.88430000000000        7.71210000000000
C            2.75060000000000        3.00200000000000        7.02610000000000
C            2.45960000000000        4.35230000000000        7.36900000000000
C            1.57610000000000        4.58880000000000        8.37070000000000
C            2.75520000000000        0.59170000000000        7.55550000000000
C            3.85530000000000        0.56260000000000        6.65920000000000
C            4.15550000000000        1.67510000000000        5.81720000000000
N            3.63490000000000        2.86600000000000        6.05320000000000
C            2.55850000000000       -0.63350000000000        8.31680000000000
C            3.73750000000000       -1.47650000000000        8.43550000000000
N            4.75580000000000       -1.43750000000000        7.59590000000000
C            4.75760000000000       -0.54050000000000        6.62020000000000
C            5.74350000000000       -0.62770000000000        5.61130000000000
C            5.85270000000000        0.39450000000000        4.70060000000000
C            5.11750000000000        1.54780000000000        4.78400000000000
C            1.38850000000000       -1.18820000000000        8.91330000000000
C            1.51460000000000       -2.23470000000000        9.84760000000000
C            2.72340000000000       -2.83970000000000       10.10780000000000
C            3.83780000000000       -2.51610000000000        9.40530000000000
O            0.11280000000000        1.39640000000000        8.98410000000000
O            0.13660000000000       -0.93650000000000        8.60150000000000
C           -2.40200000000000       -1.86160000000000        9.31070000000000
C           -2.45610000000000       -0.90170000000000        8.29480000000000
C           -3.08230000000000       -1.20880000000000        7.06220000000000
C           -3.71620000000000       -2.50170000000000        6.95170000000000
C           -3.53760000000000       -3.48950000000000        7.96030000000000
C           -2.89620000000000       -3.13320000000000        9.10200000000000
C           -3.24090000000000       -0.29680000000000        5.95770000000000
C           -4.27150000000000       -0.62900000000000        5.04740000000000
C           -4.88230000000000       -1.91890000000000        5.07670000000000
N           -4.53170000000000       -2.84050000000000        5.96400000000000
C           -2.52790000000000        0.92830000000000        5.68720000000000
C           -3.18610000000000        1.85990000000000        4.79610000000000
N           -4.24980000000000        1.55970000000000        4.06530000000000
C           -4.73380000000000        0.32650000000000        4.09580000000000
C           -5.77340000000000       -0.01720000000000        3.19690000000000
C           -6.29270000000000       -1.28560000000000        3.23650000000000
C           -5.88220000000000       -2.24410000000000        4.12840000000000
C           -1.21520000000000        1.28030000000000        6.11780000000000
C           -0.72280000000000        2.55220000000000        5.82370000000000
C           -1.47400000000000        3.47580000000000        5.12730000000000
C           -2.68070000000000        3.17540000000000        4.59310000000000
O           -1.89630000000000        0.28050000000000        8.52800000000000
O           -0.37940000000000        0.44690000000000        6.73440000000000
B           -0.46480000000000        0.31610000000000        8.21310000000000
S            1.32160000000000        6.31580000000000        8.97380000000000
F           -0.31520000000000        6.18640000000000        9.03010000000000
F            1.38260000000000        5.78940000000000       10.54870000000000
F            1.15840000000000        7.80770000000000        9.55870000000000
F            2.96340000000000        6.55540000000000        9.02520000000000
F            1.30160000000000        6.96710000000000        7.47130000000000
S            2.74950000000000       -4.19920000000000       11.36100000000000
F            3.82570000000000       -5.08360000000000       10.46410000000000
F            4.02720000000000       -3.49510000000000       12.14910000000000
F            2.79880000000000       -5.37300000000000       12.45560000000000
F            1.70660000000000       -3.39730000000000       12.34990000000000
F            1.50990000000000       -4.98870000000000       10.62760000000000
S            7.09600000000000        0.23300000000000        3.33610000000000
F            6.00900000000000        0.78170000000000        2.22020000000000
F            6.62390000000000       -1.32190000000000        3.03220000000000
F            8.16260000000000        0.08400000000000        2.14790000000000
F            8.25150000000000       -0.32880000000000        4.37250000000000
F            7.63840000000000        1.77430000000000        3.56020000000000
S           -2.64230000000000       -4.38470000000000       10.44430000000000
F           -2.01270000000000       -5.47010000000000        9.36950000000000
F           -4.14660000000000       -5.03860000000000       10.21510000000000
F           -2.41500000000000       -5.46820000000000       11.60360000000000
F           -3.25990000000000       -3.36450000000000       11.59060000000000
F           -1.12540000000000       -3.80350000000000       10.76570000000000
S           -0.74990000000000        5.16800000000000        4.97490000000000
F           -1.02630000000000        5.22410000000000        3.34300000000000
F           -2.20850000000000        5.88480000000000        5.24830000000000
F           -0.10630000000000        6.62690000000000        4.86780000000000
F           -0.40880000000000        5.16960000000000        6.60350000000000
F            0.77640000000000        4.55660000000000        4.69950000000000
S           -7.63050000000000       -1.72410000000000        2.03010000000000
F           -6.81140000000000       -1.01410000000000        0.78310000000000
F           -8.42490000000000       -0.30330000000000        2.30890000000000
F           -8.78590000000000       -2.10410000000000        0.98440000000000
F           -8.52730000000000       -2.45970000000000        3.20560000000000
F           -6.91350000000000       -3.17070000000000        1.68000000000000
H           -3.96460000000000       -4.46570000000000        7.80790000000000
H           -6.30970000000000       -3.23330000000000        4.13960000000000
H           -6.13160000000000        0.72550000000000        2.50340000000000
H           -1.93830000000000       -1.58900000000000       10.24330000000000
H            0.26550000000000        2.81400000000000        6.15370000000000
H            5.26520000000000        2.37340000000000        4.10710000000000
H            0.61890000000000       -2.58950000000000       10.32720000000000
H            6.39090000000000       -1.48890000000000        5.58320000000000
H            2.96300000000000        5.13590000000000        6.83020000000000
H            4.76810000000000       -3.05090000000000        9.48690000000000
H           -3.24830000000000        3.86040000000000        3.98750000000000
H            0.06320000000000        3.78390000000000        9.65600000000000
190
 energy: -557.588406660810 gnorm: 0.093779463413 xtb: 6.7.1 (edcfbbe)
C            0.84588236319764        3.57229465622220        1.93603415757541
C            1.02777355756249        2.23748128513184        1.54624765955444
C            2.12962315136416        1.88363938591568        0.71182259145369
C            2.75209937787146        3.00154827606347        0.02597879455142
C            2.46174575280555        4.35216375493263        0.36654985126454
C            1.57781537968932        4.59502133177538        1.36465194756924
C            2.75645985614943        0.59099024504432        0.55548677240246
C            3.85606385050693        0.56208723433471       -0.34002026048755
C            4.15630988451804        1.67451135398418       -1.18212217829285
N            3.63494206690841        2.86488004616772       -0.94743622405288
C            2.55993583981659       -0.63351643687882        1.31791711828791
C            3.73838560181102       -1.47700221925966        1.43538897522309
N            4.75386185111782       -1.43982156260096        0.59296356218330
C            4.75817148597914       -0.54082414523619       -0.37859720686696
C            5.74373661314033       -0.62795542586450       -1.38847887017167
C            5.85284401585882        0.39406215036199       -2.29906235652837
C            5.11766910334025        1.54761140231201       -2.21570495337780
C            1.38907224431828       -1.18822536482156        1.91432951851140
C            1.51468824450945       -2.23288267070173        2.84917853763522
C            2.72404994115131       -2.83729560480795        3.10853225618855
C            3.83799804130882       -2.51668062090595        2.40446146933709
O            0.11310094642698        1.39671933791390        1.98670719758471
O            0.13589449598081       -0.93562874207748        1.60289722440248
C           -2.40336582730885       -1.86165447100135        2.31093764431467
C           -2.45678148885159       -0.90254906558771        1.29604542677090
C           -3.08441546955133       -1.20896653398356        0.06330950663698
C           -3.71869777127972       -2.50034868263934       -0.04764981162629
C           -3.53935796199624       -3.48891729185576        0.95897802123034
C           -2.89345719148112       -3.13459258960348        2.09654218977635
C           -3.24171813708012       -0.29682720515895       -1.04174818629490
C           -4.27215306891104       -0.62940863184801       -1.95136998965057
C           -4.88325140360802       -1.91908503554917       -1.92176206984043
N           -4.53028694106238       -2.84090619917203       -1.03768180285884
C           -2.52808402906740        0.92856067906839       -1.31225474006425
C           -3.18598661658061        1.85978576823835       -2.20373251827988
N           -4.24972706238011        1.55904674304756       -2.93445734710376
C           -4.73426433997592        0.32631401233061       -2.90360760439444
C           -5.77348075590154       -0.01730272928465       -3.80288189291952
C           -6.29261334125209       -1.28599366565423       -3.76313492885689
C           -5.88247709860326       -2.24437030880407       -2.87150618653655
C           -1.21585181098773        1.28086355286560       -0.88162951504277
C           -0.72270506652537        2.55253888197456       -1.17614923573311
C           -1.47356367147425        3.47619457259640       -1.87270459461735
C           -2.68051535455359        3.17518833121896       -2.40696362715449
O           -1.89772133260814        0.28097124484325        1.53290170623707
O           -0.38018840948697        0.44699308366997       -0.26400817490419
B           -0.46454121118775        0.31686050530601        1.21321474719930
S            1.34250702142116        6.34264625793973        1.93592092784216
F           -0.28495981014647        6.25851603981685        1.92560423677813
F            1.43521888095385        5.84003070368970        3.49252457402442
F            1.17438238527254        7.82890614232445        2.53241786576550
F            2.98282511438955        6.56749032532644        2.00361065307397
F            1.32880102452011        6.98266592746893        0.43609947223206
S            2.75008037643008       -4.19926213306312        4.35778258765748
F            3.82724111557083       -5.08445900136616        3.46430655904915
F            4.02595940808486       -3.48969397892876        5.15164583516365
F            2.79868012599218       -5.36931504499700        5.45661741631504
F            1.70846517906144       -3.39341497763383        5.35195899647437
F            1.50768549475207       -4.98952226010237        3.62904458605810
S            7.09675303666121        0.23295068443691       -3.66259398784699
F            6.00923083178204        0.78140834536214       -4.77886780831633
F            6.62360518765712       -1.32153240161983       -3.96774631324525
F            8.16226799229302        0.08411431013809       -4.85219726496175
F            8.25189387421680       -0.32939719411290       -2.62782331289037
F            7.63803678163027        1.77450742075618       -3.44011099634821
S           -2.62190725391770       -4.40804554199235        3.41479582630297
F           -2.00023296152489       -5.49503413905340        2.35045774383573
F           -4.14292192398531       -5.03751000072806        3.21444676222111
F           -2.40596565813492       -5.47356164691392        4.59470262528014
F           -3.20017804622444       -3.37982920154574        4.55860881637516
F           -1.11360924322140       -3.81253093031695        3.75545559456451
S           -0.74957303168376        5.16835610702273       -2.02400743501902
F           -1.02628245830605        5.22390016042488       -3.65626845546826
F           -2.20870300618228        5.88428849986494       -1.75178011206637
F           -0.10623812263678        6.62700064025707       -2.13242208331422
F           -0.40827957481269        5.16834909756062       -0.39658927921030
F            0.77620920108569        4.55637064278261       -2.30066373887617
S           -7.63105529305250       -1.72425852504050       -4.96838493064777
F           -6.81151034018088       -1.01439790704327       -6.21598691227661
F           -8.42461982144614       -0.30295343809530       -4.69147202912151
F           -8.78559136090512       -2.10388666052135       -6.01564788161845
F           -8.52761802013094       -2.46037146569839       -3.79459715848119
F           -6.91326713416214       -3.17030126514049       -5.32003843822171
H           -3.96537218746993       -4.46513453132092        0.80634228305339
H           -6.31027459125772       -3.23318168065421       -2.85972860573943
H           -6.13165913977851        0.72545266017982       -4.49652395921395
H           -1.93509138101322       -1.59021401403538        3.24111003463956
H            0.26555553587073        2.81412855847395       -0.84630878250004
H            5.26541351035924        2.37348101587015       -2.89268144612368
H            0.61912159469901       -2.59013708122896        3.32554123519896
H            6.39153488308823       -1.48875298596067       -1.41600635835155
H            2.96448376304061        5.13543188977913       -0.17221435818079
H            4.76903674309039       -3.04970750899604        2.48564570518909
H           -3.24816927524711        3.86014375389461       -3.01264953536369
H            0.06799081411045        3.77768097829716        2.64653859219734
C            0.84206723216366        3.57103952395545        8.94253409967248
C            1.02521168516069        2.23654969856904        8.54800767764327
C            2.12849146788682        1.88416987008780        7.71196082191495
C            2.75054969547627        3.00238309941603        7.02586787732307
C            2.46000915506853        4.35283849266794        7.36910424622992
C            1.57624427800618        4.58919015339504        8.37062938759049
C            2.75503940087574        0.59129670324260        7.55511100506640
C            3.85521951686824        0.56144042506092        6.65841408470334
C            4.15505085032480        1.67457715855808        5.81666774909491
N            3.63457111522122        2.86572757737688        6.05290415851134
C            2.55818641474916       -0.63425519197027        8.31541723061342
C            3.73732544667847       -1.47723233768060        8.43381632853138
N            4.75686609592248       -1.43581573616975        7.59777795988717
C            4.75744313140621       -0.54206272440774        6.61965144316655
C            5.74316623330675       -0.62903105660222        5.61141730897666
C            5.85045591844188        0.39340373845151        4.70045907332457
C            5.11612053029444        1.54696099771430        4.78266984307939
C            1.38853626868311       -1.18909284724131        8.91171346634920
C            1.51492285614179       -2.23495901028660        9.84734743095949
C            2.72369134679062       -2.83977888682315       10.10762238155148
C            3.83814044862437       -2.51596089508028        9.40522776207080
O            0.11263052024762        1.39610541414827        8.98371997809902
O            0.13692338158997       -0.93626591568351        8.60275651073838
C           -2.40174043931256       -1.86169523510527        9.31141956329121
C           -2.45467482922721       -0.90122135682500        8.29469411401293
C           -3.08235609591344       -1.20769254172479        7.06379793862740
C           -3.73550552700554       -2.49049354089279        6.97047208584863
C           -3.54202856470214       -3.48741354294458        7.96508719728813
C           -2.89461043303612       -3.13388278840251        9.10365783686365
C           -3.24299133103888       -0.29620325027595        5.95852466285428
C           -4.27895426797289       -0.62417184285116        5.05100548339314
C           -4.92063642932674       -1.89534547433928        5.10411324232485
N           -4.58498279703979       -2.81106828235273        6.01034573194295
C           -2.52798103881939        0.92552057200615        5.68498149012149
C           -3.18606264523285        1.85723936610843        4.79315232032191
N           -4.25039068134348        1.56018323175737        4.06348626843159
C           -4.73358156067258        0.32743388859666        4.09336565339840
C           -5.77272301425039       -0.01708849614424        3.19491719913655
C           -6.29087441049299       -1.28438347593491        3.23423031069477
C           -5.89030257826840       -2.23828080681800        4.13636077254641
C           -1.21462186515906        1.27668704666671        6.11683363727745
C           -0.72463370661511        2.54796070202948        5.82763016456226
C           -1.48358493029848        3.47209074770888        5.14362456048620
C           -2.68332353792738        3.17311307077235        4.59580304013600
O           -1.89554853973183        0.28026204253667        8.52817247758803
O           -0.37892538169697        0.44467351797238        6.73397266980957
B           -0.46377766840796        0.31551607034093        8.21241927229317
S            1.32165142801866        6.31652172544791        8.97204534353101
F           -0.31494838609197        6.18588415951661        9.03071454911807
F            1.38265290798038        5.78941591269460       10.54746563819445
F            1.15833865441484        7.80757823343733        9.55915061618621
F            2.96347083518119        6.55477539699397        9.02546429381925
F            1.30156795688194        6.96747747761157        7.47106176125738
S            2.74946205372147       -4.20045750085910       11.35898232126070
F            3.82666886489469       -5.08369262489946       10.46451525689758
F            4.02630574204091       -3.49525573387446       12.14859451632208
F            2.79859297006794       -5.37257608945080       12.45585073043463
F            1.70726518553028       -3.39728119500716       12.34872832989235
F            1.50897535980068       -4.98878458218022       10.62824504313594
S            7.09627701550710        0.23261165574109        3.33963640573628
F            6.00480180039028        0.78063358185847        2.21854305237488
F            6.62154403204439       -1.32170478126567        3.03073794605897
F            8.15862048482100        0.08482253695740        2.14659670706457
F            8.25374270820047       -0.32959318777969        4.37261681972695
F            7.63731796733399        1.77553147671351        3.55793883315212
S           -2.64073673709999       -4.38634191187218       10.44316710481323
F           -2.01272804831307       -5.47091423950455        9.36971649280597
F           -4.14628027911579       -5.03766878183987       10.21527559982483
F           -2.41490648605137       -5.46816319145940       11.60430127834312
F           -3.25907570749761       -3.36512943168333       11.58917044394416
F           -1.12547887886631       -3.80285851623286       10.76621313506443
S           -0.76951959649434        5.15666660849331        5.01840070792765
F           -1.09291619964324        5.15280571392996        3.41166129967651
F           -2.21944043095469        5.89103215671266        5.27294339327249
F           -0.12398743604185        6.61414122067020        4.88793340840773
F           -0.41636369276829        5.17544083742268        6.63735862945032
F            0.72944152352672        4.46185366431939        4.79458782202253
S           -7.62976187594104       -1.72485101357798        2.03237468742768
F           -6.80632395467171       -1.01552616200860        0.78105313424450
F           -8.42384871946865       -0.30254559005028        2.30634545075565
F           -8.78281224094239       -2.10325646960994        0.98327753758230
F           -8.52818314047840       -2.46048874595469        3.20572915117338
F           -6.90883945125505       -3.16923793633299        1.67773618805298
H           -3.96475793422837       -4.46510115738163        7.80760262729844
H           -6.30846985763904       -3.23201081971766        4.14176899244705
H           -6.13168081570157        0.72599458809044        2.50311495492449
H           -1.93782979547871       -1.58884287612571       10.24391257105850
H            0.26374309358022        2.81322719814966        6.15518212916160
H            5.26592321179033        2.37404153312140        4.10837063389055
H            0.61912229720586       -2.58980541801966       10.32725688984981
H            6.38947758209606       -1.49046612745674        5.58398915842128
H            2.96220256359969        5.13644995804960        6.82911481106278
H            4.76821780232797       -3.05130256974513        9.48629430640666
H           -3.24793009161105        3.86009702319180        3.98924050019056
H            0.06336645473012        3.78389884460317        9.65607293186417
190
 energy: -557.609405725591 gnorm: 0.048684936732 xtb: 6.7.1 (edcfbbe)
C            0.85157293611707        3.57731761422175        1.92339606724774