116
 energy: -22.928061455056 gnorm: 0.329736929581 xtb: 6.6.1 (8d0f1dd)
C           -3.31122850772930        0.79849766164622       -0.92477639677520
C           -2.44380812530352       -0.12270372891954       -0.27661132624697
C           -1.41337090092821        0.39579727573559        0.56335275196199
C           -0.89266158675590        1.65801491088749        0.27377586709581
C           -1.72665675402493        2.51431363229076       -0.49448366572522
C           -2.95444148494349        2.13954154133227       -1.01494489940871
C           -0.74098268209890       -0.43411532818871        1.49825021926784
C            0.56872586496315        0.03782116815119        1.86248088067890
C            1.03782416582094        1.29402317993033        1.50887470833621
N            0.31238977034758        2.07067427098208        0.65193736800696
C           -1.29695700510141       -1.39996043042223        2.41574187746061
C           -0.38243517664656       -2.18060797534842        3.13232615520648
N            0.91308504082021       -1.90366887689689        3.30325166013478
C            1.37712470144904       -0.74872102533751        2.81811050966982
C            2.52149331701875       -0.17739833758153        3.39379298866852
C            2.95849061756259        1.02681208890480        2.95105897606587
C            2.24288949469137        1.78498308775960        2.03503020483770
C           -2.74860936222260       -1.74497937691422        2.38401158947411
C           -3.09416315450955       -2.91614440870436        3.00571134491758
C           -2.16786021984049       -3.77788778654213        3.63251872101904
C           -0.85708937311598       -3.40495313382985        3.68547234358092
O           -3.71994433332149       -0.94984598373544        1.67726658385724
O           -2.55702603277562       -1.47241711578389       -0.57241635275616
C           -3.84297843593025        3.13357444054366       -1.60938954875544
C           -2.68769581069131       -5.03867041417370        4.30484659386931
H           -1.39666850744143        3.51251503834900       -0.76806311868865
H           -4.27662633836220        0.55105838579656       -1.33106614114542
H            2.66329581305412        2.73912661909249        1.72562431984580
H            3.05775395548473       -0.69369546277216        4.16536137542516
H           -0.24710966264510       -4.12034095424229        4.22946223699121
H           -4.11477991332403       -3.04712728052358        3.03244694615357
O           -4.21824883374556        4.03433712717988       -0.87713382485991
O           -4.44510595673734        2.90643496899600       -2.81853501752979
C           -5.44216520282800        3.83300025693726       -3.02488532025093
C            4.23586651889298        1.50004220933226        3.59165660008449
O            5.05927614697201        0.66079890002952        3.91714215179376
O            4.47001334453535        2.86385149488593        3.72605651435371
C            5.79457498613219        3.08584475587818        4.15829123132174
O           -3.82227255313510       -5.27347675879771        4.16636005494405
O           -1.85023202017753       -5.79767454267276        5.06656077253571
C           -2.55119635829503       -6.86252441382958        5.62930343183426
C           -5.07197156564436       -1.42399175670916        1.58830531863830
C           -1.33089900128490       -2.23622472573986       -0.99264499351172
H           -2.54510546830388       -7.76426885143998        4.99136022291012
H           -3.57194749219491       -6.44405511486021        5.74196173723541
H           -2.09133598235598       -7.02043774843818        6.64022264233588
H            5.72707967266424        3.46798026205549        5.10135971236643
H            6.34060091246885        3.78468702308830        3.50069950143490
H            6.17933064298187        2.03010500085905        4.19342358084693
H           -0.91862729772622       -2.57650129080332       -0.01361370304871
H           -0.49769766914251       -1.60651221708571       -1.34094446550576
H           -1.52632419730509       -2.94569707152159       -1.75361447637286
H           -5.11788846557077       -2.41810833635233        1.17520213188926
H           -5.67929807973498       -0.69619639428435        1.04301666067831
H           -5.57598832326623       -1.42383358739762        2.57928294206544
H           -6.13050215934830        3.76035386975488       -2.23272855695873
H           -5.86615610071888        3.45938329385866       -4.02668959924245
H           -5.13479557532099        4.87790991548477       -2.98314551356402
C           -1.38192942069774        3.73616555005018        2.91232598411686
C           -1.84821468128685        2.59982427735607        3.49755545445181
C           -1.05946531454833        2.05730632010638        4.60922730982276
C            0.19893954712228        2.69376791964407        4.86302140881997
C            0.50425395911860        3.94630308659851        4.28768785650746
C           -0.26031777722226        4.46998310053134        3.25072669343212
C           -1.20488993561782        0.74454293276906        5.14851520323437
C           -0.06287609782692        0.02744069315890        5.60930570802864
C            1.19208754369866        0.71421540266195        5.78882868583885
N            1.19428660993148        2.06344359410476        5.62744624321596
C           -2.41361422770794        0.07928500213936        5.25249410304426
C           -2.45851584031083       -1.32662100968547        5.60237876023992
N           -1.29466212405906       -1.98318595734370        5.89916817085159
C           -0.14475655767527       -1.32117560077092        5.98824682881008
C            0.97209270935794       -1.98958449505532        6.53157704134458
C            2.21982707914082       -1.36973967291181        6.68703967237737
C            2.30561929262884       -0.09745313075593        6.26436900324455
C           -3.73018485967715        0.71367583494582        5.25810242262992
C           -4.89964478833448       -0.06184623426677        5.21204641615509
C           -4.82617965800088       -1.39228978090841        5.46901303780036
C           -3.67144193418464       -1.98914944386360        5.67265433266067
O           -3.75568638935321        2.07705011038914        5.52067969627343
O           -2.94192434743730        1.91263938797883        3.01658762327703
C            0.21273512614467        5.50086066357994        2.34765104514621
C           -6.06660304520411       -2.17604633098929        5.80641622556876
H            1.41756699010566        4.38133362238595        4.66974005703471
H           -1.82880610647429        4.11982501512100        2.06992133318584
H            3.26888037378556        0.32655662585251        6.31721410015598
H            0.87146188387207       -3.08471526305024        6.57830423410869
H           -3.67716811065157       -3.05999292755990        5.83019634570050
H           -5.77379677507622        0.43595144608221        4.71017130754348
O            1.34459852619901        5.82615848916894        2.44941456579099
O           -0.74718748219123        6.07961784856304        1.59848183464284
C           -0.21473095568964        7.24015934882472        1.05753806029483
C            3.53228080814219       -2.00967610361154        7.02506769044485
O            3.64093082622715       -3.14437803815732        7.50071391725347
O            4.56565258381079       -1.22937033368332        6.69086985080897
C            5.72579357310716       -1.80692399125161        7.22246151275881
O           -7.04801223588612       -1.95726935745904        5.14194115322235
O           -6.01514389321278       -2.93743591896022        6.94765316328794
C           -7.21292732384718       -3.62681918543340        7.15115816329978
C           -4.95459780685163        2.65960679932188        5.86868674392943
C           -3.68284113682406        2.59129188358641        2.05479246020704
H           -7.43119628931628       -4.22607794725959        6.20622607140901
H           -8.06548455146707       -2.91765848248592        7.29781126410398
H           -7.07314693247270       -4.33087306029711        7.91223421050944
H            6.57332189837178       -1.29353136199234        6.78341268688262
H            5.74663761932316       -2.84282155125561        6.88089468184451
H            5.69426191474290       -1.72781984964892        8.29460302186842
H           -4.10481209541493        3.44288266176275        2.60483747673152
H           -4.49244774344916        1.87419893016926        1.82433103764650
H           -3.18901540870812        2.85154642679373        1.06781919454921
H           -5.55414326821421        2.76698137191684        4.93950725322359
H           -4.78658370641210        3.62090640967288        6.25983200635257
H           -5.43485580473958        1.97242995129449        6.65265772412460
H            0.89164886030839        7.38838561720231        1.13776105146914
H           -0.62894889903848        8.04195665205089        1.64837664327952
H           -0.59282546386754        7.45699159724320        0.03719083132488
116
 energy: -22.618168493596 gnorm: 0.552520727196 xtb: 6.6.1 (8d0f1dd)
C           -3.01644880159455       -0.02223937154276       -1.49697638481692
C           -2.36766119941789       -0.72313889837978       -0.50604785042235
C           -1.60134190417790       -0.10347394119833        0.57534769560497
C           -1.53119313610394        1.27677073328419        0.41117900007087
C           -2.11504492921324        1.92794042411965       -0.68502542933990
C           -2.93589780500260        1.41248452297426       -1.50433360387939
C           -0.88496087804227       -0.80797455089262        1.57729240305494
C            0.25214302561419       -0.15544465331697        1.94196421056103
C            0.38850212660947        1.21318140313321        1.87045659792368
N           -0.56340485694664        1.93877481916516        1.13454424627163
C           -1.32377448470920       -2.02527067253869        2.10585184830095
C           -0.26139281197650       -2.90384459002789        2.60764030391848
N            1.06892155437262       -2.46832966448439        2.65821977583074
C            1.22870688411398       -1.10802433795212        2.46742836202649
C            2.50818442582768       -0.59503912757848        2.77266934333554
C            2.63173329938089        0.83070268269819        2.75521360344925
C            1.66526588159556        1.69679310432328        2.38653763688151
C           -2.68388515172935       -2.33876206235014        2.47219677751941
C           -2.96656688877183       -3.53891017494320        3.18594183130311
C           -1.92276829376504       -4.52608449928250        3.31635235832438
C           -0.52951069987138       -4.14589469118292        3.18015823956341
O           -3.69618183178937       -1.51911015065223        1.99510056675505
O           -2.19198786423364       -2.06188209516972       -0.43813357575766
C           -3.40663756837375        2.09173746958759       -2.75935949278529
C           -2.14158221813461       -5.75397896278898        4.09196446825028
H           -1.87827758325470        2.95578487242283       -0.77444170307485
H           -3.29930114505057       -0.38787439784657       -2.55140519020802
H            1.89368585012086        2.80209086047288        1.96618652082000
H            3.20570611533047       -1.29978508926747        3.12659884113189
H            0.36472307053344       -4.89440122768884        3.44374586950661
H           -4.00126616486822       -3.76027638414742        3.35064433849087
O           -4.16845541711258        1.46459176058444       -3.48591178930451
O           -2.97843100600307        3.33575794443326       -2.98698840897391
C           -3.41106168342239        3.82697394115439       -4.25878999710865
C            3.85522184144147        1.53887035701424        3.41937759642023
O            4.61148809401036        0.77551311842666        3.97035286054179
O            4.13398105506041        2.90673630373093        3.32236459961072
C            5.43933906599074        3.33197682105386        3.64819667050810
O           -3.13675364659248       -5.84447877574450        4.82057302002195
O           -1.13893561275465       -6.59815643862370        3.93398304446443
C           -1.18436142556644       -7.56660965774288        4.88239708978143
C           -4.81603854645894       -1.16846008422733        2.87067584203229
C           -1.79265450470585       -2.72122228047091       -1.70612273625326
H           -1.30040563603334       -7.36930027760231        6.00017996106621
H           -0.24279798649524       -8.04659783039770        4.93621971316214
H           -1.82645300067600       -8.44052119879778        4.46951561382538
H            5.84935365831718        3.30553107034046        4.73894748512168
H            5.07103195273145        4.43245799079494        3.43559356516503
H            6.20930690264446        2.99613235642735        2.91313642849015
H           -2.31900538063974       -3.70863483072041       -1.59014815985182
H           -0.62610254695394       -2.70558059214948       -1.50963389325981
H           -1.89960791170456       -2.07551448238164       -2.61307484358058
H           -5.48836081747223       -0.36031100678691        2.41679319495477
H           -4.22642235649778       -0.97853247418051        3.72183173949002
H           -5.42035440411110       -1.98381959151257        2.94636358139329
H           -3.49669022738409        2.94931908830164       -4.78060736278118
H           -2.65319931698826        4.22532662614935       -4.89249326243115
H           -4.08399785645418        4.77936787123852       -4.39028289940083
C           -1.98226681038631        4.47731863554705        4.19563897616518
C           -2.17429938429773        3.17553078468455        4.57784860169472
C           -1.11839714250976        2.59586600958034        5.24514897148774
C            0.23563491660551        3.06618750154507        4.98271015729624
C            0.47808996999656        4.10968606811641        4.06746676914673
C           -0.72985324032478        4.87161007823929        3.84464762083061
C           -1.20901020033306        1.31090427202121        5.77625459488753
C           -0.04834839023550        0.41586085867508        5.71857732157818
C            1.23509912273489        0.97993313676261        5.56984002929620
N            1.30808327672169        2.31792914731796        5.28241260168423
C           -2.50917790392996        0.64984899680709        6.20886145280453
C           -2.52659967563647       -0.78370628483868        5.98536676606923
N           -1.36774864685383       -1.53799079956981        6.00858352484219
C           -0.16362703792217       -0.92939875669985        6.01992136375520
C            0.91177837593435       -1.79367482669433        6.08372316045552
C            2.09452440170996       -1.12352066467980        6.26458967017030
C            2.31356176614253        0.21762974687366        6.04568402311566
C           -3.66407123084658        1.40435383703457        6.70100265035763
C           -4.85311704645828        0.82717862317667        6.63894123784932
C           -4.82320024249570       -0.53523877391962        6.15562910980037
C           -3.80992600926323       -1.43852097800396        5.95475623326833
O           -3.36395587130274        2.78934778834262        7.02455239577814
O           -3.30485955365547        2.49608884310232        4.09134614000052
C           -0.43058011217839        6.02254906226820        3.17281539241006
C           -6.14761583306835       -1.07844723627360        6.01383886745014
H            1.31662696228107        4.30194196830193        3.51975571607176
H           -2.88792842079228        5.10518818714198        3.81175643045048
H            3.29908876847163        0.73105220728855        6.16466803536453
H            0.92786534895932       -2.81959631823485        5.88889079298314
H           -4.02235048805588       -2.57921153657507        6.10334738110346
H           -5.87769357396666        1.36389786067879        6.43763469688356
O            0.60112832663130        6.68043247778163        3.25699636011680
O           -1.37251817073217        6.27427923753478        2.19893661877690
C           -0.80691586545236        7.50313967966068        1.50838701095842
C            3.30804752973620       -2.01388195415581        6.50811899154715
O            3.17975724926041       -3.19377953917788        6.29302222314199
O            4.44702014475643       -1.54621178155336        6.93910421318879
C            5.43669479236814       -2.54849387179024        7.05185094641427
O           -7.02419752640519       -0.31295658473426        6.38315790852625
O           -6.40444348670363       -2.35122088561005        5.61395390416809
C           -7.63299656270843       -2.94739382424053        5.85663346559601
C           -4.39872481137294        3.82106285335970        6.95281642314383
C           -3.48168815310588        2.26002502064955        2.77250135563185
H           -8.54667365658174       -2.15769840243025        5.61068145276742
H           -7.63345352596714       -3.24699338083293        6.98610354444399
H           -7.98913049021974       -3.78201103160418        5.22594460565728
H            6.37966699054939       -1.98592194487801        6.77414829321656
H            5.31747671370780       -3.31479817760903        6.39659410409198
H            5.58966526456779       -2.87432628715624        8.02025645555550
H           -4.02875800318774        3.01397051981958        2.42045521764697
H           -4.12911890181193        1.40328408461868        2.45766545793221
H           -2.50578111240161        2.37790037253572        2.22428770478414
H           -5.15767173714762        3.88723382471359        6.13292589868131
H           -3.76622459924814        4.67287153397374        7.16483672835715
H           -5.20169647908980        3.70353611628515        7.66860566600307
H            0.01249577293182        8.11862879660688        1.96680651533526
H           -1.57325725888545        8.13350827648657        1.29559675942169
H           -0.50176675660090        7.39440443123110        0.46738465317013
116
 energy: -22.580813671126 gnorm: 0.595786190039 xtb: 6.6.1 (8d0f1dd)
C           -2.78422581629788       -0.35715897078805       -1.87810151805115
C           -2.14261014274487       -1.08849744064673       -0.89574726533337
C           -1.28295383306889       -0.27924272497684       -0.03035750273101
C           -0.97902094636284        1.05212394573903       -0.37324959939655
C           -1.67506000559134        1.77658437166173       -1.33694090091727
C           -2.66086831025653        1.04776570594046       -2.06069738980203
C           -0.69826922180552       -0.80119555976115        1.18662339114859
C            0.37244356628967       -0.15007746511649        1.76652866103978
C            0.78356820633977        1.10660604060667        1.20026321669950
N            0.04579214094906        1.77331253986432        0.26673708264829
C           -1.17436633838112       -1.83598130127506        2.04290768330732
C           -0.13597119218994       -2.51542513246604        2.76790141735272
N            0.92706689722207       -1.88927995443730        3.25746007417918
C            1.21087375586113       -0.71607888016912        2.79663437779626
C            2.36226390779822       -0.04854298961524        3.08622895310472
C            2.75222556732034        1.17535400097460        2.56276428312087
C            1.97964605676420        1.66268245169581        1.49095030793641
C           -2.62456763832193       -1.95224075739357        2.36800173153095
C           -2.79124926522154       -3.07546789499384        3.28456867916385
C           -1.77527204442663       -3.99119486722833        3.67534723407051
C           -0.53745330890296       -3.74331913880684        3.39814533743450
O           -3.59860634162035       -0.95477372745243        1.91890159350237
O           -2.40683141338373       -2.54526339605704       -0.69890198709939
C           -3.48247710496618        1.70055545306819       -3.05415334005199
C           -2.20808441733187       -5.40253821529069        3.81256749502884
H           -1.35206172787887        2.87831287065439       -1.30824006990128
H           -3.42672351515890       -1.02618682628045       -2.50904092606521
H            2.51109865172893        2.51167724646160        1.02920913343440
H            2.92103802219326       -0.46169750943081        3.94398001406084
H            0.30975492384151       -3.98181563620835        4.14780289777980
H           -3.70188763301635       -3.62776532064719        3.37537515906223
O           -3.11320545273539        2.47920915320199       -4.03700774964725
O           -4.89714822513247        1.46476911314422       -2.96707065481597
C           -5.55706971560904        2.43662269999875       -3.71071254401574
C            4.01376656365751        1.87583613306937        2.96655351476557
O            4.62024724292096        1.67273318046822        4.04089885128986
O            4.46117269509786        2.72367183777245        1.97491247966384
C            5.00798748175538        3.78875283655254        2.66726489248201
O           -2.82378251071142       -6.02702372139964        2.97776964600040
O           -2.12743391932349       -5.90252435134030        5.19792049906884
C           -2.24659050699186       -7.16201160248413        5.23425508435010
C           -4.91588209341284       -1.27655863138109        2.24206017843144
C           -1.67822032870483       -3.44761888849767       -1.46562544354004
H           -1.18969216192833       -7.45012858655891        5.04814893527657
H           -2.92277453056994       -7.47324884763553        4.44029187240739
H           -2.93550029226459       -7.59202815237171        6.16214839931620
H            5.78958784486139        4.27938242295059        1.96119595444237
H            5.61816457424516        3.36963513857083        3.52997397302774
H            4.44634057497091        4.60695174125172        3.06070819097752
H           -2.14766229394268       -4.52597302269220       -1.29594821376965
H           -0.58532319463395       -3.49666276927784       -1.31316112235925
H           -1.89768191538090       -3.09468952043382       -2.42392790402758
H           -5.43011666143466       -0.34814014431003        1.92782762277774
H           -5.18142828911416       -1.79687211459912        3.15494329554111
H           -5.21013609992124       -2.04855275568824        1.57870691640189
H           -5.08691310867624        2.75825917836715       -4.77117371610450
H           -5.91599830164754        3.40139961953648       -3.24897928896514
H           -6.54791380495107        1.89446732043345       -3.64709959325232
C           -1.32595611124119        4.43073064673511        3.83755035121490
C           -1.68964177212641        3.09374423432279        4.24143678889441
C           -0.77726810762339        2.30244607500386        4.96988385234444
C            0.61765879465645        2.73747440139135        4.90873621361703
C            0.89791115213253        4.15231804042743        4.63774607115693
C           -0.13654850515644        4.99794565617644        4.00352745212582
C           -1.05562869429006        1.16361170412726        5.62147599700367
C            0.01043931035235        0.30789767014416        5.99504279799372
C            1.32301405716300        0.86615621523898        6.08118395803414
N            1.57936363032100        2.18764271396527        5.73817417385414
C           -2.38303305360313        0.64507504194121        5.93743009267075
C           -2.50784088420553       -0.67306112870059        6.43441756378981
N           -1.51424522875991       -1.48922989541783        6.69472956327114
C           -0.28517778084317       -1.00004235318686        6.42000139928257
C            0.74397097079791       -1.90801848877039        6.63654867310444
C            2.03102963507951       -1.34610461164303        6.73176782710602
C            2.29312996121665       -0.08955279181166        6.50793781498945
C           -3.64031888203062        1.47078879273101        5.93090838116535
C           -4.76452887184262        0.71758752564144        6.11544493100683
C           -4.93868171688857       -0.64553460491529        6.40333290512945
C           -3.74083164854623       -1.31038344145777        6.52546338433207
O           -3.48628717840400        2.75920865024102        6.06182990052826
O           -2.81431240728065        2.33128753506796        3.65316396679835
C            0.19849076461971        6.47328467714123        3.61361682446894
C           -6.23853772302525       -1.31444268420879        6.36490783072160
H            1.82630567100531        4.54048858688913        4.80642527364694
H           -1.91783539247167        4.93050747191141        2.96060146847325
H            3.40843225598870        0.13475140026916        6.46743200919836
H            0.55055160305284       -2.94822233163419        6.72176666317996
H           -3.72592494720239       -2.12247177166050        7.26349332712471
H           -5.70116940626231        1.40563570452565        6.09352947174208
O            1.35067947665112        6.72200389917279        3.31774379555161
O           -0.97885475682741        7.30620564948468        3.61167510167747
C           -0.72491489868045        8.55100829061493        3.30232368047924
C            2.99268111682117       -2.28764640965565        7.13281720973213
O            2.67939282241036       -3.44406612784204        7.53547443474474
O            4.24815278851611       -1.74060628800863        7.37355841623704
C            5.32879218138361       -2.71295340800312        7.14870709971210
O           -7.04475438762430       -0.60714470791967        6.92771916196343
O           -6.55561500642752       -2.44531188610156        5.62959531430969
C           -7.98357551702191       -2.69578390036482        5.53233558046584
C           -4.58336962869302        3.38642130731457        6.69020946690527
C           -2.74468351268490        2.27182462233554        2.30126134559013
H           -8.23053472390307       -3.20833306763214        6.66822784835990
H           -7.81566277146692       -3.63789348457286        4.91221910839935
H           -8.50201038743482       -1.97684925548264        4.74331531133399
H            5.52465978226094       -2.41858830829333        6.18171142051522
H            4.79375112064938       -3.59394940490270        7.17586630149775
H            6.06143863619612       -2.49966862042189        7.84106538912985
H           -3.84579586657543        2.14638810644730        2.10007943948171
H           -2.28213399552026        1.35078343564613        2.05757099836815
H           -2.45069106853768        3.15895939602053        1.65507304352088
H           -5.31318983821736        3.18531883760209        5.93928197470380
H           -4.38470944618520        4.60077607239007        6.89990383127783
H           -4.75055566981761        3.15814557090447        7.72518461844924
H           -0.18700231570004        8.77695112890443        4.16563302907928
H           -1.72853964712982        8.94070586356975        3.32505286813473
H           -0.31353451804129        8.31465205015671        2.33644744559823
116
 energy: -22.593027070766 gnorm: 0.590509999079 xtb: 6.6.1 (8d0f1dd)
C           -3.33300168315215       -0.24232521259109       -2.18032455916643
C           -2.74036906209331       -1.05506866045304       -1.16984174045328
C           -1.97058282650192       -0.42698360845833       -0.16809290588482
C           -1.52621446917414        0.93722446530628       -0.57438342237014
C           -2.39482669369810        1.76153177028272       -1.33068972971858
C           -3.39492890396747        1.14109127998472       -2.14144719796362
C           -1.19578973193665       -0.88663395105919        0.97707717567122
C           -0.15620846774485       -0.09922090762197        1.35024265548213
C            0.15949482477592        1.11158346819564        0.82826238708251
N           -0.59765490245524        1.66442384780294       -0.07429381304068
C           -1.55740881107083       -1.99150162235459        1.95823343539980
C           -0.59455692786642       -2.42745487739279        2.87691597765639
N            0.45992795879632       -1.64967846445484        3.10597899367332
C            0.76827097063266       -0.56292741968342        2.36826251456950
C            1.95348421244370        0.15295616822392        2.62429707225004
C            2.33642191165554        1.30788053043943        1.98816098386351
C            1.41443224488724        1.81460454952664        1.07652830108476
C           -2.73818948074456       -2.80386246492077        1.91756427590003
C           -2.99156667849160       -3.78645889305345        3.03238248779827
C           -1.92993242180536       -4.23095592362684        3.92520438255500
C           -0.86944433594691       -3.46168201802206        3.82013955367189
O           -3.74179152560714       -2.50077359043745        1.08747724168531
O           -2.74283963212688       -2.42882351430820       -1.57381939851946
C           -4.32871869163832        1.91870520427676       -3.00545107387113
C           -2.03779967564173       -4.85538381621302        5.35895963070998
H           -2.27717459883220        2.81137780099424       -1.16977292279095
H           -3.97199446191922       -0.74271954140327       -2.87424689805185
H            1.41671665166563        2.77407607853688        0.64637214283729
H            2.50570367115659       -0.10458013944402        3.58904783143563
H           -0.27987400484928       -3.51505246742738        4.70820861088459
H           -4.03331251631825       -3.95498795885627        3.31849387709207
O           -4.46493276255153        3.18862439453210       -2.66073396959148