116
 energy: -22.928061455056 gnorm: 0.329736929581 xtb: 6.6.1 (8d0f1dd)
C           -3.31122850772930        0.79849766164622       -0.92477639677520
C           -2.44380812530352       -0.12270372891954       -0.27661132624697
C           -1.41337090092821        0.39579727573559        0.56335275196199
C           -0.89266158675590        1.65801491088749        0.27377586709581
C           -1.72665675402493        2.51431363229076       -0.49448366572522
C           -2.95444148494349        2.13954154133227       -1.01494489940871
C           -0.74098268209890       -0.43411532818871        1.49825021926784
C            0.56872586496315        0.03782116815119        1.86248088067890
C            1.03782416582094        1.29402317993033        1.50887470833621
N            0.31238977034758        2.07067427098208        0.65193736800696
C           -1.29695700510141       -1.39996043042223        2.41574187746061
C           -0.38243517664656       -2.18060797534842        3.13232615520648
N            0.91308504082021       -1.90366887689689        3.30325166013478
C            1.37712470144904       -0.74872102533751        2.81811050966982
C            2.52149331701875       -0.17739833758153        3.39379298866852
C            2.95849061756259        1.02681208890480        2.95105897606587
C            2.24288949469137        1.78498308775960        2.03503020483770
C           -2.74860936222260       -1.74497937691422        2.38401158947411
C           -3.09416315450955       -2.91614440870436        3.00571134491758
C           -2.16786021984049       -3.77788778654213        3.63251872101904
C           -0.85708937311598       -3.40495313382985        3.68547234358092
O           -3.71994433332149       -0.94984598373544        1.67726658385724
O           -2.55702603277562       -1.47241711578389       -0.57241635275616
C           -3.84297843593025        3.13357444054366       -1.60938954875544
C           -2.68769581069131       -5.03867041417370        4.30484659386931
H           -1.39666850744143        3.51251503834900       -0.76806311868865
H           -4.27662633836220        0.55105838579656       -1.33106614114542
H            2.66329581305412        2.73912661909249        1.72562431984580
H            3.05775395548473       -0.69369546277216        4.16536137542516
H           -0.24710966264510       -4.12034095424229        4.22946223699121
H           -4.11477991332403       -3.04712728052358        3.03244694615357
O           -4.21824883374556        4.03433712717988       -0.87713382485991
O           -4.44510595673734        2.90643496899600       -2.81853501752979
C           -5.44216520282800        3.83300025693726       -3.02488532025093
C            4.23586651889298        1.50004220933226        3.59165660008449
O            5.05927614697201        0.66079890002952        3.91714215179376
O            4.47001334453535        2.86385149488593        3.72605651435371
C            5.79457498613219        3.08584475587818        4.15829123132174
O           -3.82227255313510       -5.27347675879771        4.16636005494405
O           -1.85023202017753       -5.79767454267276        5.06656077253571
C           -2.55119635829503       -6.86252441382958        5.62930343183426
C           -5.07197156564436       -1.42399175670916        1.58830531863830
C           -1.33089900128490       -2.23622472573986       -0.99264499351172
H           -2.54510546830388       -7.76426885143998        4.99136022291012
H           -3.57194749219491       -6.44405511486021        5.74196173723541
H           -2.09133598235598       -7.02043774843818        6.64022264233588
H            5.72707967266424        3.46798026205549        5.10135971236643
H            6.34060091246885        3.78468702308830        3.50069950143490
H            6.17933064298187        2.03010500085905        4.19342358084693
H           -0.91862729772622       -2.57650129080332       -0.01361370304871
H           -0.49769766914251       -1.60651221708571       -1.34094446550576
H           -1.52632419730509       -2.94569707152159       -1.75361447637286
H           -5.11788846557077       -2.41810833635233        1.17520213188926
H           -5.67929807973498       -0.69619639428435        1.04301666067831
H           -5.57598832326623       -1.42383358739762        2.57928294206544
H           -6.13050215934830        3.76035386975488       -2.23272855695873
H           -5.86615610071888        3.45938329385866       -4.02668959924245
H           -5.13479557532099        4.87790991548477       -2.98314551356402
C           -1.38192942069774        3.73616555005018        2.91232598411686
C           -1.84821468128685        2.59982427735607        3.49755545445181
C           -1.05946531454833        2.05730632010638        4.60922730982276
C            0.19893954712228        2.69376791964407        4.86302140881997
C            0.50425395911860        3.94630308659851        4.28768785650746
C           -0.26031777722226        4.46998310053134        3.25072669343212
C           -1.20488993561782        0.74454293276906        5.14851520323437
C           -0.06287609782692        0.02744069315890        5.60930570802864
C            1.19208754369866        0.71421540266195        5.78882868583885
N            1.19428660993148        2.06344359410476        5.62744624321596
C           -2.41361422770794        0.07928500213936        5.25249410304426
C           -2.45851584031083       -1.32662100968547        5.60237876023992
N           -1.29466212405906       -1.98318595734370        5.89916817085159
C           -0.14475655767527       -1.32117560077092        5.98824682881008
C            0.97209270935794       -1.98958449505532        6.53157704134458
C            2.21982707914082       -1.36973967291181        6.68703967237737
C            2.30561929262884       -0.09745313075593        6.26436900324455
C           -3.73018485967715        0.71367583494582        5.25810242262992
C           -4.89964478833448       -0.06184623426677        5.21204641615509
C           -4.82617965800088       -1.39228978090841        5.46901303780036
C           -3.67144193418464       -1.98914944386360        5.67265433266067
O           -3.75568638935321        2.07705011038914        5.52067969627343
O           -2.94192434743730        1.91263938797883        3.01658762327703
C            0.21273512614467        5.50086066357994        2.34765104514621
C           -6.06660304520411       -2.17604633098929        5.80641622556876
H            1.41756699010566        4.38133362238595        4.66974005703471
H           -1.82880610647429        4.11982501512100        2.06992133318584
H            3.26888037378556        0.32655662585251        6.31721410015598
H            0.87146188387207       -3.08471526305024        6.57830423410869
H           -3.67716811065157       -3.05999292755990        5.83019634570050
H           -5.77379677507622        0.43595144608221        4.71017130754348
O            1.34459852619901        5.82615848916894        2.44941456579099
O           -0.74718748219123        6.07961784856304        1.59848183464284
C           -0.21473095568964        7.24015934882472        1.05753806029483
C            3.53228080814219       -2.00967610361154        7.02506769044485
O            3.64093082622715       -3.14437803815732        7.50071391725347
O            4.56565258381079       -1.22937033368332        6.69086985080897
C            5.72579357310716       -1.80692399125161        7.22246151275881
O           -7.04801223588612       -1.95726935745904        5.14194115322235
O           -6.01514389321278       -2.93743591896022        6.94765316328794
C           -7.21292732384718       -3.62681918543340        7.15115816329978
C           -4.95459780685163        2.65960679932188        5.86868674392943
C           -3.68284113682406        2.59129188358641        2.05479246020704
H           -7.43119628931628       -4.22607794725959        6.20622607140901
H           -8.06548455146707       -2.91765848248592        7.29781126410398
H           -7.07314693247270       -4.33087306029711        7.91223421050944
H            6.57332189837178       -1.29353136199234        6.78341268688262
H            5.74663761932316       -2.84282155125561        6.88089468184451
H            5.69426191474290       -1.72781984964892        8.29460302186842
H           -4.10481209541493        3.44288266176275        2.60483747673152
H           -4.49244774344916        1.87419893016926        1.82433103764650
H           -3.18901540870812        2.85154642679373        1.06781919454921
H           -5.55414326821421        2.76698137191684        4.93950725322359
H           -4.78658370641210        3.62090640967288        6.25983200635257
H           -5.43485580473958        1.97242995129449        6.65265772412460
H            0.89164886030839        7.38838561720231        1.13776105146914
H           -0.62894889903848        8.04195665205089        1.64837664327952
H           -0.59282546386754        7.45699159724320        0.03719083132488
116
 energy: -22.683688878621 gnorm: 0.532781954262 xtb: 6.6.1 (8d0f1dd)
C           -2.23503746573026        0.80015657015739       -0.82696761868297
C           -1.45610607070584       -0.29755780212051       -0.30563161799847
C           -0.44623654009757        0.13333966301381        0.59746657421798
C           -0.04769617523685        1.51189517170196        0.66636830911136
C           -0.79772187481544        2.52553981762525        0.07424295760671
C           -1.88708732120560        2.17486340656403       -0.63709046753587
C            0.25143232215277       -0.86786435077827        1.29186024592707
C            1.58366019012214       -0.49886198605934        1.55791565371402
C            1.89641507881982        0.88042331228681        1.57644188013907
N            1.14324610818651        1.87902060397752        1.20181086702694
C           -0.23714962576282       -2.07356623737878        2.01522432847603
C            0.71856798236684       -3.11937955867486        2.39247707643401
N            2.01050598062033       -2.79502496149767        2.39875318927119
C            2.41138078745766       -1.57251774695798        2.12692494622314
C            3.61481966747674       -1.14990542317076        2.71936673464604
C            3.98176697154958        0.18153053467980        2.40213360507570
C            3.14744716263876        1.25621246409875        2.00142112540973
C           -1.55433138491469       -2.47474552596676        2.28429392082582
C           -1.92002197194861       -3.74951778258587        2.63885004002713
C           -0.93839783383954       -4.71793464366384        2.81535430473018
C            0.44347475799597       -4.39439673349780        2.74900026044862
O           -2.53652497911236       -1.51996632394142        2.08411774345014
O           -1.67530697873786       -1.59939224531339       -0.76898627856817
C           -2.60696574664900        3.20875282204148       -1.30733581281449
C           -1.54069558482428       -5.90871509742820        3.49490496235528
H           -0.46390074081393        3.56928239038117        0.19841105440398
H           -3.16612903728715        0.58042214289792       -1.38558515517703
H            3.58369449210487        2.17257598900100        1.86687617046235
H            4.22698644876588       -1.80790371310944        3.29583701895033
H            1.25945697331504       -4.85832643985896        3.16528261251243
H           -2.85572840274667       -4.07767351146333        2.82483925565181
O           -2.05644374339360        4.28828906007175       -1.38750476831836
O           -3.72939902118785        2.74278967029158       -1.92375697123646
C           -4.27730713352973        3.89564932329155       -2.51803347781106
C            5.08439913939925        0.58232960050957        3.24327558951163
O            6.12988008146197        0.26834553835321        2.72983457031405
O            4.99155819683509        1.37704689958038        4.34210502164539
C            6.22877977367932        1.57655898318244        4.87582418236622
O           -2.77419263894579       -5.81736407180165        3.83758661545916
O           -0.82239120473325       -7.04270704477552        3.49896246101207
C           -1.45002566343425       -8.03695028911243        4.27839490900437
C           -3.50947143571186       -1.06455562685287        3.15004874613022
C           -1.77524280112248       -1.59279357635823       -2.14561723682600
H           -1.07705014546287       -8.95498505646076        3.63284498859098
H           -2.59751458385677       -8.00684090914277        4.24931778713658
H           -1.15055086449438       -7.98268968810869        5.30661736699678
H            6.99431926066604        0.97429787202129        4.39411805946033
H            6.28987980657550        1.45300290877144        5.92089630502625
H            6.24262503387886        2.55730534429485        4.83588628232766
H           -1.38238788216326       -2.58807032257160       -2.38512930717652
H           -1.47973282675591       -0.58419885574144       -2.41200428917355
H           -2.81388044631129       -1.75250820126285       -2.05508441149811
H           -4.38151109466772       -1.63247626650423        2.94953885637811
H           -3.90709094668696       -0.05456024338681        3.23522093371335
H           -3.01947999811592       -1.43064019855624        3.98838612272625
H           -4.21076550041623        4.78858647966689       -1.73460996263673
H           -5.32768515635932        3.67169992802077       -2.84915026784933
H           -3.59795176915531        4.28454579869338       -3.46228035555336
C           -2.73898802238649        3.93322798200495        2.70290550838706
C           -2.93490209401957        2.75027296708353        3.36634303086914
C           -1.81756660033197        2.26651210736836        4.07221598930884
C           -0.62760071723493        2.85208591462512        3.93972235755362
C           -0.55682614839317        4.02550207171380        3.20216318431701
C           -1.55373295706285        4.64013978622453        2.51983157599514
C           -1.97252166198493        1.16626727649842        4.97005417889847
C           -0.72395609513607        0.50598387813259        5.38877523294605
C            0.43947733422503        1.17475093135796        5.08340571391641
N            0.52280443559153        2.39831308803217        4.65184575928054
C           -3.20829398125068        0.83112002595841        5.67769571415541
C           -3.01080808944452       -0.41596533930461        6.36790406636790
N           -1.94661635586436       -1.16800898436771        6.61450702456947
C           -0.80110221708804       -0.64699426664121        6.21008922571058
C            0.43944056633328       -1.19645902277410        6.54057686251128
C            1.57512648091117       -0.66949444857043        5.95980886827793
C            1.63529678710858        0.50954011501513        5.32722206359069
C           -4.41239026971133        1.69721015018725        6.02237792145932
C           -5.47670354375491        0.97237902715419        6.58607985313173
C           -5.43860640692969       -0.32517488651276        7.03656675515452
C           -4.17691254340939       -0.96161438483448        6.96255405703739
O           -4.55579518053643        2.94175108072457        5.58245199889592
O           -4.18778477846324        1.93235781981771        3.34576043486612
C           -1.34915740828734        5.89089168104911        1.80129772430026
C           -6.53514824614774       -1.04149960060529        7.59278070671130
H            0.32931056147197        4.65793641151025        3.24658702701977
H           -3.42679054433352        4.37125151327571        1.98661618594216
H            2.57259333876743        0.86967620537902        4.96532902237996
H            0.35924659575195       -2.17050755876233        6.98542789009688
H           -4.04422865696275       -2.10155358042517        7.17222052301270
H           -6.54983731254654        1.34638427320889        6.43663052786924
O           -0.24658039657504        6.41207213349517        1.93640779237828
O           -2.50154071633016        6.38451895716186        1.37534032846686
C           -2.41076263541366        7.67586822608702        0.89939043021305
C            2.77274845851942       -1.34126469580726        6.43059918971698
O            3.88796204811105       -0.96712022959322        6.04805043651861
O            2.48110625544419       -2.45154871340174        7.28809791825462
C            3.71165616065490       -3.26771139435900        7.72779861022667
O           -7.41891965776851       -0.27871281210807        8.02969027279241
O           -6.82389563009186       -2.45847087149816        7.53208717256582
C           -8.04341245079992       -2.90241155751732        8.21464859292407
C           -5.52865569721930        3.78033744352775        6.25615402967316
C           -5.23648260603690        2.17748000025790        2.42654545951860
H           -8.87527086908515       -2.93543110285783        7.50933404701060
H           -8.28975814818317       -2.05009719005198        8.89760543765213
H           -7.95868295027556       -3.75460883016643        8.65067197256233
H            3.51543883869280       -4.38710503207269        7.47969424552094
H            3.82399554610476       -3.35011570685856        8.82383875371270
H            4.55723904688322       -2.84187292136576        7.23249914323332
H           -5.06480147663105        3.08128742782630        2.03321168913038
H           -6.31226728587160        2.04623256667662        2.82238754388419
H           -5.22774119770710        1.35438553366099        1.61610291977663
H           -6.35802386828049        3.16641434405503        6.04118450471063
H           -5.78640366608365        4.57462172412770        5.55718188489293
H           -5.17802193599608        3.94968694622809        7.31514368890780
H           -2.69536354570884        7.71094198090978       -0.25271096998436
H           -1.35506210779642        7.87902896125160        0.86971954954964
H           -2.98989766723480        8.25195917574129        1.63441053812752
116
 energy: -22.701381589516 gnorm: 0.484045563283 xtb: 6.6.1 (8d0f1dd)
C           -1.79426829354751        0.62189233624619       -0.08613500816405
C           -1.15679945672400       -0.44252267160300        0.64779100083483
C           -0.02368111677867       -0.13268324770378        1.37342073085736
C            0.59788862946947        1.15660446845833        1.13865440422454
C           -0.07021922607076        2.26754475781220        0.47578971151147
C           -1.29564224165278        1.92502972840170       -0.01964909445005
C            0.76055643475108       -1.05222040393853        2.05323729853480
C            2.01735432787852       -0.65335710299333        2.47951052242270
C            2.39949076615698        0.71192499900935        2.57709932301961
N            1.71678975643771        1.54807528347349        1.83030456187825
C            0.52412727027421       -2.39670252322601        2.33140524910501
C            1.61841394185561       -3.38727842714648        2.56479526612347
N            2.89696804387824       -2.95974760421178        2.60400715692825
C            3.01757289084465       -1.66867345153814        2.75352307629877
C            4.36565705994457       -1.22240597835445        2.83754573274233
C            4.82873206504655        0.10384770672423        2.96864242864520
C            3.75103254467368        1.01387511491368        2.91048214773365
C           -0.90966897057189       -2.94824510638332        2.55601912772488
C           -1.14324952114278       -4.29771404539612        2.20257862222478
C           -0.03092476029695       -5.14996789845345        2.10762906904026
C            1.28731486644092       -4.76278111893403        2.45447961564375
O           -1.88010028632735       -2.01698928580400        2.85729437099997
O           -1.80844715117449       -1.69612876808204        0.47093139864444
C           -2.07694893555772        2.93940207031230       -0.73463303746050
C           -0.59448968034409       -6.59488782530182        1.77137947772288
H            0.03596132582953        3.30409030677445        0.82215132152605
H           -2.72184245382075        0.48363686185746       -0.57967463499244
H            3.99801437837940        1.97695173231816        3.05599300180462
H            4.87255973007067       -2.06122263269734        3.29362379997842
H            1.94111870325714       -5.52343350764803        2.71928798976303
H           -2.11782144342010       -4.68279100354546        2.04136098519676
O           -1.48500030333978        4.01729479493049       -1.00988653531998
O           -3.45381786661944        2.74902885792157       -0.94485650408498
C           -3.85902752295990        3.89642691848662       -1.66354098130344
C            6.21756595292723        0.77625701595521        3.28380232827773
O            6.77992520070501        0.72121082361516        4.45954023372653
O            6.77819039775231        1.46690693623261        2.19737680650202
C            8.01776172592546        2.10794338559718        2.49917293594472
O           -1.62395839381319       -6.78219936127581        1.13846271158018
O            0.09804014539334       -7.57267206966846        2.36153564104621
C           -0.32119358193207       -8.77014146383677        1.84399090010791
C           -2.76843975377052       -2.32496905061724        3.90992689458577
C           -2.60733280488758       -1.99305363751730       -0.71699848365529
H            0.44209283721515       -9.48687386525574        2.30801940922775
H           -0.42215251342419       -8.87696245035501        0.84168247706496
H           -1.38777279556811       -8.86898535900884        2.33433792528783
H            7.65935279493105        2.73440768800198        3.34639352615128
H            8.41297805669418        2.59012043718110        1.68361927406895
H            8.48785440583329        1.40566831101809        3.18038731261239
H           -2.73030923818574       -3.05758485577878       -0.69290356354037
H           -1.93290725657204       -1.64348606637752       -1.62260361764257
H           -3.53574654464799       -1.52198218399516       -0.61929538983537
H           -3.69519116849234       -2.68343277650098        3.50628755323316
H           -2.96594136148683       -1.48079344420951        4.54639224946609
H           -2.10026352013902       -3.08007297734548        4.41653544108449
H           -3.51978915298653        4.96378484194331       -1.35873632482060
H           -5.00892706577024        4.01752159696793       -1.50002517136311
H           -3.56861233592086        3.71664610589740       -2.68205640933927
C           -3.57978075083697        4.19417473645923        2.57177436463556
C           -3.90003101606253        3.01100533658666        3.19666357176659
C           -2.80301132537172        2.29898198657902        4.05293619539227
C           -1.49782801416463        2.75231324191309        3.72759886663886
C           -1.23381315111292        4.00487364964405        3.14252627803792
C           -2.28119674143604        4.72022411009766        2.45445280215289
C           -2.94997552141350        1.31251145301903        5.05301417668370
C           -1.69058817415845        0.74152394296878        5.43409910791465
C           -0.45340248047466        1.25008263774125        5.01351129615116
N           -0.28365405788530        2.29834798284761        4.18303671928934
C           -4.07971320966725        0.99449023005830        5.83406174678315
C           -4.10141301581732       -0.27461728118365        6.53285244173362
N           -2.95743073279794       -1.08437565997050        6.59572977099150
C           -1.82242514914196       -0.37801934934652        6.29810034732777
C           -0.59137809751645       -1.06065131897980        6.51027651502384
C            0.60527154086032       -0.71421213362855        5.92502813393155
C            0.72152629562755        0.48455331892345        5.19677498589493
C           -5.15313568734872        1.94405841572455        6.01915323129237
C           -6.20380730952639        1.67502556063055        6.75550686790150
C           -6.27863444336880        0.40765465817208        7.32641712878829
C           -5.31774826306480       -0.61884140154761        7.14616963164134
O           -4.85633927626226        3.36507997368415        5.76630298482250
O           -5.19894280991633        2.49083476639467        3.08451641543531
C           -1.93615861081201        6.00246264353243        1.73893203530121
C           -7.59670810559916       -0.00861230953637        7.86178559222814
H           -0.17108831293226        4.37721779768078        3.24334720579609
H           -4.45461441933723        4.70257150548139        2.18416445665065
H            1.65981319038917        0.90790593386648        4.81286570926351
H           -0.70668000777199       -1.99625416994133        7.06763956273428
H           -5.40692925641435       -1.72980917943752        7.43747854563017
H           -6.97714572223049        2.47768842006726        6.82973544767483
O           -0.91478854708080        6.68915505950709        2.07441833209851
O           -2.90587663279494        6.20838598777679        0.69093875049604
C           -2.17206887995544        6.85333582572533       -0.32963306961093
C            1.93360716286669       -1.44571809173534        6.42233361562856
O            2.79849398979851       -0.72649420467170        6.95018486244166
O            2.08703975840482       -2.73133154577384        5.96041176693739
C            3.30807893889156       -3.31499566064173        5.98579329128270
O           -8.56674289018192        0.75215736096612        8.04523559306939
O           -7.62617037904284       -1.27780696446288        8.31825530676184
C           -8.87091601472368       -1.35234240980764        9.10497465180931
C           -4.05348766959535        3.93701097044199        6.63885901152601
C           -6.34672455436106        3.12290588972410        2.38841285766459
H           -9.62164417685776       -1.87627673493289        8.52026437252161
H           -9.16309842380868       -0.21646392216619        9.27681439471147
H           -8.89987002266969       -1.86222530542541       10.05138989389608
H            3.22200290396681       -4.37421757129558        5.84485850139848
H            3.70222402545658       -3.06789490570264        6.99414138086476
H            4.07007876375597       -2.91442960109240        5.27277371692946
H           -6.34023995026994        4.06908435360045        1.88344703382167
H           -7.07177585957454        3.23520232409682        3.20474156970801
H           -6.75267478061084        2.41261347830850        1.53040891915096
H           -3.40212965012163        4.65883315319289        6.20022698506660
H           -3.33244459930908        3.08680937618670        6.71884730542682
H           -4.60714827197865        4.07384593350377        7.48830816552575
H           -1.51504016077549        6.07300059837995       -0.63787975327881
H           -1.52948560110445        7.61198212220981        0.10688025705655
H           -2.72814584320806        7.21256190382587       -1.24972465804777
116
 energy: -22.725050395641 gnorm: 0.489955776150 xtb: 6.6.1 (8d0f1dd)
C           -1.85876175400874        0.00585585835084        0.28152604469585
C           -0.82645242177819       -0.94922677847122        0.35410718372336
C            0.35082566017239       -0.52103367707859        1.01477009820892
C            0.61694801969697        0.88316415925273        1.22297032214887
C           -0.54898733529726        1.71665913705865        1.23295660619517
C           -1.73719219687663        1.34267683689559        0.57904929960855
C            1.30451382101153       -1.43423136419020        1.54231595592654
C            2.61782338233378       -0.94309720887704        1.87052079815667
C            2.94976219012765        0.45868008324942        1.84123523424909
N            1.94738492161287        1.27796066843200        1.45458534869053
C            1.10381899172679       -2.84403940622778        1.86475109439330
C            2.21906052534851       -3.63742005224451        2.05514235316529
N            3.49668083458946       -3.21040525967847        2.34682671905418
C            3.67193017074809       -1.93540012042533        2.13145758888948
C            4.96120466039981       -1.34389895246481        1.86184433926635
C            5.26992374481773        0.02455475069977        2.11522248014083
C            4.20465938666387        0.93590891262078        2.13788309248148
C           -0.24326514551116       -3.22471768413627        2.40174894997528
C           -0.28717955303560       -4.53010337081426        2.80551633442890
C            0.72345291706105       -5.44073453893258        2.45288386477872
C            1.95303496197456       -4.96051249247997        2.26989508164026
O           -1.30109404202691       -2.33238770675156        2.80215031213566
O           -1.01351857225848       -2.22247338780425       -0.37075449787929
C           -2.63634572640331        2.41109174323228        0.09317572217332
C            0.46479727006674       -6.88214774384671        2.42748701540756
H           -0.36725119201427        2.76616403285497        1.29928880193378
H           -2.80147668742946       -0.40320794258066       -0.09805179413384
H            4.48482881972763        1.93069407397192        2.10263287339967
H            5.71634065130628       -2.09312814530139        2.18376334065157
H            2.71301364640411       -5.71650956763415        2.17568645124824
H           -1.21849454916154       -5.04733768006402        3.22763638153106
O           -2.24219328725016        3.55386987527465        0.12023723641147