      -----------------------------------------------------------      
     |                   =====================                   |     
     |                           x T B                           |     
     |                   =====================                   |     
     |                         S. Grimme                         |     
     |          Mulliken Center for Theoretical Chemistry        |     
     |                    University of Bonn                     |     
      -----------------------------------------------------------      

   * xtb version 6.6.1 (8d0f1dd) compiled by 'runner@Mac-1690902418499.local' on 2023-08-01

   xtb is free software: you can redistribute it and/or modify it under
   the terms of the GNU Lesser General Public License as published by
   the Free Software Foundation, either version 3 of the License, or
   (at your option) any later version.
   
   xtb is distributed in the hope that it will be useful,
   but WITHOUT ANY WARRANTY; without even the implied warranty of
   MERCHANTABILITY or FITNESS FOR A PARTICULAR PURPOSE.  See the
   GNU Lesser General Public License for more details.
   
   Cite this work as:
   * C. Bannwarth, E. Caldeweyher, S. Ehlert, A. Hansen, P. Pracht,
     J. Seibert, S. Spicher, S. Grimme, WIREs Comput. Mol. Sci., 2020, 11,
     e01493. DOI: 10.1002/wcms.1493
   
   for GFN2-xTB:
   * C. Bannwarth, S. Ehlert and S. Grimme., J. Chem. Theory Comput., 2019,
     15, 1652-1671. DOI: 10.1021/acs.jctc.8b01176
   for GFN1-xTB:
   * S. Grimme, C. Bannwarth, P. Shushkov, J. Chem. Theory Comput., 2017,
     13, 1989-2009. DOI: 10.1021/acs.jctc.7b00118
   for GFN0-xTB:
   * P. Pracht, E. Caldeweyher, S. Ehlert, S. Grimme, ChemRxiv, 2019, preprint.
     DOI: 10.26434/chemrxiv.8326202.v1
   for GFN-FF:
   * S. Spicher and S. Grimme, Angew. Chem. Int. Ed., 2020, 59, 15665-15673.
     DOI: 10.1002/anie.202004239
   
   for ALPB and GBSA implicit solvation:
   * S. Ehlert, M. Stahn, S. Spicher, S. Grimme, J. Chem. Theory Comput.,
     2021, 17, 4250-4261. DOI: 10.1021/acs.jctc.1c00471
   
   for DFT-D4:
   * E. Caldeweyher, C. Bannwarth and S. Grimme, J. Chem. Phys., 2017,
     147, 034112. DOI: 10.1063/1.4993215
   * E. Caldeweyher, S. Ehlert, A. Hansen, H. Neugebauer, S. Spicher,
     C. Bannwarth and S. Grimme, J. Chem. Phys., 2019, 150, 154122.
     DOI: 10.1063/1.5090222
   * E. Caldeweyher, J.-M. Mewes, S. Ehlert and S. Grimme, Phys. Chem. Chem. Phys.
     2020, 22, 8499-8512. DOI: 10.1039/D0CP00502A
   
   for sTDA-xTB:
   * S. Grimme and C. Bannwarth, J. Chem. Phys., 2016, 145, 054103.
     DOI: 10.1063/1.4959605
   
   in the mass-spec context:
   * V. Asgeirsson, C. Bauer and S. Grimme, Chem. Sci., 2017, 8, 4879.
     DOI: 10.1039/c7sc00601b
   * J. Koopman and S. Grimme, ACS Omega 2019, 4, 12, 15120-15133.
     DOI: 10.1021/acsomega.9b02011
   
   for metadynamics refer to:
   * S. Grimme, J. Chem. Theory Comput., 2019, 155, 2847-2862
     DOI: 10.1021/acs.jctc.9b00143
   
   for SPH calculations refer to:
   * S. Spicher and S. Grimme, J. Chem. Theory Comput., 2021, 17, 1701-1714
     DOI: 10.1021/acs.jctc.0c01306
   
   with help from (in alphabetical order)
   P. Atkinson, C. Bannwarth, F. Bohle, G. Brandenburg, E. Caldeweyher
   M. Checinski, S. Dohm, S. Ehlert, S. Ehrlich, I. Gerasimov, C. Hölzer
   A. Katbashev, J. Koopman, C. Lavigne, S. Lehtola, F. März, M. Müller,
   F. Musil, H. Neugebauer, J. Pisarek, C. Plett, P. Pracht, F. Pultar,
   J. Seibert, P. Shushkov, S. Spicher, M. Stahn, M. Steiner, T. Strunk,
   J. Stückrath, T. Rose, and J. Unsleber
   
 * started run on 2025/03/14 at 12:44:55.402     

           -------------------------------------------------
          |                Calculation Setup                |
           -------------------------------------------------

          program call               : xtb scoord.19 --md --gfnff --input md_settings.inp
          coordinate file            : scoord.19
          omp threads                :                     8

   ID    Z sym.   atoms
    1    6 C      1-9, 11, 12, 14-21, 24, 25, 34, 35, 38, 41-43, 59-67, 69,
                  70, 72-79, 82, 83, 92, 93, 96, 99-101
    2    7 N      10, 13, 68, 71
    3    8 O      22, 23, 32, 33, 36, 37, 39, 40, 80, 81, 90, 91, 94, 95, 97,
                  98
    4    1 H      26-31, 44-58, 84-89, 102-116

molecular fragmentation (1/2 indicates fragments):
111111111111111111111111111111111111111111111111111111111122222222222222
22222222222222222222222222222222222222222222
# atoms in fragment 1/2:    58    58
 fragment masses (1/2) :      501.47      501.47
CMA distance (Bohr)    :  13.058
constraining FC (au)   :  0.0500

          ==================== Thresholds ====================
          CN  :   150.00000
          rep :   500.00000
          disp:  2500.00000
          HB1 :   250.00000
          HB2 :   450.00000

          Pauling EN used:
          Z : 1  EN :  2.20
          Z : 6  EN :  2.55
          Z : 7  EN :  3.04
          Z : 8  EN :  3.44
          electric field strengths (au): 0.000

           ------------------------------------------------- 
          |           Force Field Initialization            |
           ------------------------------------------------- 

          distances ...
          ----------------------------------------
          generating topology and atomic info file ...
          pair mat ...
          computing topology distances matrix with Floyd-Warshall algo ...
          making topology EEQ charges ...
          #fragments for EEQ constrain: 2
          ----------------------------------------
          generating topology and atomic info file ...
          pair mat ...
          computing topology distances matrix with Floyd-Warshall algo ...
          making topology EEQ charges ...
          rings ...
          # BATM   1140
          # H in HB   42
          doing iterative Hueckel for 2 subsystem(s) ...

  atom   neighbors  erfCN metchar sp-hybrid imet pi  qest     coordinates
    1  C       3    2.80   0.00         2    0    1  -0.013   -3.637803   12.758431    7.395635
    2  C       3    2.83   0.00         2    0    1   0.104   -4.610704   10.843071    5.970709
    3  C       3    2.82   0.00         2    0    1   0.014   -3.091997    8.598947    5.339939
    4  C       3    2.83   0.00         2    0    1   0.068   -0.402679    8.942412    5.665414
    5  C       3    2.82   0.00         2    0    1  -0.010    0.603370   11.140970    6.791916
    6  C       3    2.81   0.00         2    0    1   0.024   -0.848022   12.957789    7.752820
    7  C       3    2.83   0.00         2    0    1   0.003   -4.033438    6.198314    4.744545
    8  C       3    2.85   0.00         2    0    1   0.018   -2.286708    4.356896    3.666939
    9  C       3    2.83   0.00         2    0    1   0.069    0.289241    4.883119    3.887562
   10  N       2    1.96   0.00         2    0    1  -0.182    1.111568    7.174980    4.965112
   11  C       3    2.85   0.00         2    0    1   0.014   -6.506124    5.392832    4.685665
   12  C       3    2.85   0.00         2    0    1   0.068   -7.191235    3.471792    3.067646
   13  N       2    2.00   0.00         2    0    1  -0.182   -5.520404    2.080649    1.919206
   14  C       3    2.84   0.00         2    0    1   0.069   -3.054167    2.241787    2.244793
   15  C       3    2.79   0.00         2    0    1  -0.009   -1.178863    0.351597    1.361104
   16  C       3    2.79   0.00         2    0    1   0.024    1.364487    0.706976    1.878032
   17  C       3    2.79   0.00         2    0    1  -0.009    2.135276    3.047375    3.087104
   18  C       3    2.82   0.00         2    0    1   0.104   -8.326851    6.634044    6.342199
   19  C       3    2.81   0.00         2    0    1  -0.013  -10.843453    6.023856    5.818802
   20  C       3    2.80   0.00         2    0    1   0.024  -11.703136    4.146667    3.994278
   21  C       3    2.83   0.00         2    0    1  -0.010   -9.694960    2.879685    2.564080
   22  O       2    1.89   0.00         3    0    1  -0.326   -7.744172    8.137928    8.340434
   23  O       2    1.92   0.00         3    0    1  -0.326   -6.891981   10.829454    4.802307
   24  C       3    2.81   0.00         2    0    1   0.224   -0.009743   15.242556    9.077829
   25  C       3    2.84   0.00         2    0    1   0.224  -14.362719    3.588387    3.650018
   26  H       1    0.98   0.00         0    0    0   0.083    2.602127   11.223251    7.079117
   27  H       1    0.97   0.00         0    0    0   0.084   -4.981193   13.929677    8.441373
   28  H       1    0.96   0.01         0    0    0   0.084    4.222082    3.459957    3.494956
   29  H       1    0.97   0.01         0    0    0   0.084   -1.794305   -1.412996    0.426757
   30  H       1    0.98   0.00         0    0    0   0.083  -10.174928    1.629349    1.079764
   31  H       1    0.97   0.01         0    0    0   0.084  -12.118787    6.952570    7.170344
   32  O       1    0.98   0.00         2    0    1  -0.364    1.844338   15.143585   10.590669
   33  O       2    1.91   0.00         3    0    1  -0.315   -1.555329   17.321652    9.391196
   34  C       4    3.49   0.00         3    0    0   0.037   -0.679647   19.193609   11.127833
   35  C       3    2.85   0.00         2    0    1   0.223    3.474598   -1.125616    1.074019
   36  O       1    0.98   0.00         2    0    1  -0.365    2.754995   -3.097657    0.001148
   37  O       2    1.92   0.00         3    0    1  -0.315    5.824574   -0.815319    2.245557
   38  C       4    3.52   0.00         3    0    0   0.039    7.381954   -2.707128    1.784234
   39  O       1    0.98   0.00         2    0    1  -0.364  -15.019788    1.391446    3.690815
   40  O       2    1.91   0.00         3    0    1  -0.315  -15.904971    5.665800    2.709596
   41  C       4    3.53   0.00         3    0    0   0.037  -17.849847    4.531361    1.336981
   42  C       4    3.48   0.00         3    0    0   0.033   -6.329463    6.624490   10.374115
   43  C       4    3.50   0.00         3    0    0   0.033   -8.780974   12.373864    5.886636
   44  H       1    0.97   0.01         0    0    0   0.079  -17.966386    2.508291    1.839303
   45  H       1    0.98   0.00         0    0    0   0.079  -17.939943    4.800943   -0.647756
   46  H       1    0.98   0.00         0    0    0   0.079  -19.598313    5.318943    1.954741
   47  H       1    0.96   0.01         0    0    0   0.078    6.219543   -4.411438    1.186042
   48  H       1    0.97   0.00         0    0    0   0.078    8.527270   -2.909247    3.469104
   49  H       1    0.96   0.01         0    0    0   0.078    8.602070   -1.878202    0.160453
   50  H       1    0.97   0.01         0    0    0   0.076   -9.127926   12.006351    7.959488
   51  H       1    0.98   0.00         0    0    0   0.076  -10.394522   12.327972    4.777395
   52  H       1    0.97   0.00         0    0    0   0.076   -8.069799   14.310949    5.911935
   53  H       1    0.98   0.00         0    0    0   0.076   -4.722068    5.717621    9.582911
   54  H       1    0.97   0.00         0    0    0   0.076   -7.646638    5.350784   11.265609
   55  H       1    0.98   0.00         0    0    0   0.076   -5.762900    7.704212   11.902410
   56  H       1    0.97   0.00         0    0    0   0.079    0.287053   18.352586   12.719535
   57  H       1    0.97   0.01         0    0    0   0.079   -2.377926   20.331865   11.643494
   58  H       1    0.97   0.01         0    0    0   0.079    0.408410   20.525521    9.911241
   59  C       3    2.80   0.00         2    0    1  -0.013   -4.845137   -6.920547    2.702931
   60  C       3    2.81   0.00         2    0    1   0.104   -2.487087   -6.904286    3.913213
   61  C       3    2.82   0.00         2    0    1   0.014   -2.099810   -5.153409    6.084775
   62  C       3    2.82   0.00         2    0    1   0.068   -3.472288   -2.815410    5.964829
   63  C       3    2.79   0.00         2    0    1  -0.010   -5.862992   -2.955718    4.697763
   64  C       3    2.80   0.00         2    0    1   0.024   -6.355168   -4.722933    2.803728
   65  C       3    2.82   0.00         2    0    1   0.003    0.017879   -5.534115    7.820213
   66  C       3    2.87   0.00         2    0    1   0.018    0.914214   -3.365582    8.911006
   67  C       3    2.81   0.00         2    0    1   0.069   -0.640717   -0.997623    8.970242
   68  N       2    1.93   0.00         2    0    1  -0.182   -2.738391   -0.811537    7.383155
   69  C       3    2.87   0.00         2    0    1   0.014    1.197151   -7.675891    8.837758
   70  C       3    2.87   0.00         2    0    1   0.068    3.552236   -7.500926   10.075634
   71  N       2    1.99   0.00         2    0    1  -0.182    4.731567   -5.294626   10.130710
   72  C       3    2.86   0.00         2    0    1   0.069    3.448931   -3.167879    9.782837
   73  C       3    2.82   0.00         2    0    1  -0.009    4.702252   -0.991250   10.613123
   74  C       3    2.81   0.00         2    0    1   0.024    3.240585    1.282674   10.757501
   75  C       3    2.80   0.00         2    0    1  -0.009    0.664354    1.202239   10.112851
   76  C       3    2.85   0.00         2    0    1   0.104    0.116866  -10.079075    8.432577
   77  C       3    2.80   0.00         2    0    1  -0.013    1.534092  -12.261274    9.010669
   78  C       3    2.81   0.00         2    0    1   0.024    4.026192  -11.989912   10.230560
   79  C       3    2.81   0.00         2    0    1  -0.010    4.982268   -9.660706   10.720940
   80  O       2    1.92   0.00         3    0    1  -0.326   -2.261039  -10.364439    7.488217
   81  O       2    1.92   0.00         3    0    1  -0.326   -0.595412   -8.745874    3.414276
   82  C       3    2.88   0.00         2    0    1   0.224   -8.742009   -4.464638    1.053322
   83  C       3    2.83   0.00         2    0    1   0.224    4.901162  -14.442953   11.450385
   84  H       1    0.95   0.02         0    0    0   0.083   -7.530862   -1.663330    5.374985
   85  H       1    0.97   0.00         0    0    0   0.084   -5.475935   -8.168565    1.217240
   86  H       1    0.98   0.00         0    0    0   0.084   -0.240811    2.828480   10.166179
   87  H       1    0.96   0.01         0    0    0   0.084    6.839962   -1.128689   10.708205
   88  H       1    0.98   0.00         0    0    0   0.083    6.840129   -9.263408   11.380259
   89  H       1    0.97   0.01         0    0    0   0.084    0.850913  -14.129916    8.410709
   90  O       1    0.98   0.00         2    0    1  -0.364   -9.258693   -6.320173   -0.232252
   91  O       2    1.91   0.00         3    0    1  -0.315  -10.207132   -2.357782    1.251526
   92  C       4    3.54   0.00         3    0    0   0.037  -12.563045   -3.013787    0.108532
   93  C       3    2.88   0.00         2    0    1   0.223    4.376527    3.381942   11.999690
   94  O       1    0.99   0.00         2    0    1  -0.365    5.171396    3.133923   14.165785
   95  O       2    1.91   0.00         3    0    1  -0.315    4.760645    5.657465   10.822052
   96  C       4    3.53   0.00         3    0    0   0.039    6.199403    7.176709   12.564084
   97  O       1    0.98   0.00         2    0    1  -0.364    6.597154  -14.195434   13.081750
   98  O       2    1.92   0.00         3    0    1  -0.315    3.988405  -16.573727   10.439749
   99  C       4    3.51   0.00         3    0    0   0.037    4.811595  -18.795678   11.712720
  100  C       4    3.52   0.00         3    0    0   0.033   -4.166864  -10.427323    9.116387
  101  C       4    3.50   0.00         3    0    0   0.033    0.071218   -9.213008    0.952696
  102  H       1    0.98   0.00         0    0    0   0.079    5.598328  -19.925080   10.243238
  103  H       1    0.96   0.01         0    0    0   0.079    3.103690  -19.595743   12.778291
  104  H       1    0.98   0.00         0    0    0   0.079    6.244733  -18.150919   12.899685
  105  H       1    0.98   0.00         0    0    0   0.078    8.074144    6.421407   12.625619
  106  H       1    0.97   0.01         0    0    0   0.078    5.620288    6.868623   14.598248
  107  H       1    0.97   0.01         0    0    0   0.078    6.250493    9.246549   12.329275
  108  H       1    0.97   0.00         0    0    0   0.076    1.896536  -10.131001    0.758224
  109  H       1    0.97   0.00         0    0    0   0.076    0.169977   -7.438169   -0.078138
  110  H       1    0.98   0.00         0    0    0   0.076   -1.204414  -10.359072   -0.098240
  111  H       1    0.97   0.01         0    0    0   0.076   -3.840888  -11.291145   10.981717
  112  H       1    0.97   0.00         0    0    0   0.076   -5.509520  -11.790242    8.410959
  113  H       1    0.97   0.01         0    0    0   0.076   -5.072106   -8.550998    9.231620
  114  H       1    0.96   0.01         0    0    0   0.079  -13.648270   -3.951123    1.738326
  115  H       1    0.97   0.00         0    0    0   0.079  -12.077353   -4.035186   -1.625559
  116  H       1    0.97   0.01         0    0    0   0.079  -13.215358   -1.087620   -0.522979

          #atoms :   116
          #bonds :   124
          #angl  :   206
          #tors  :   302
          #nmol  :   2
          #optfrag :   2
           ------------------------------------------------- 
          |                   G F N - F F                   |
          |          A general generic force-field          |
          |                  Version 1.0.3                  | 
           ------------------------------------------------- 
          Number of HB bonds (bound hydrogen)     14841
          Number of HB bonds (unbound hydrogen)   442
          Number of XB bonds                      0

 E+G (total)                   0 d,  0 h,  0 min,  0.002 sec
 distance/D3 list               ...        0 min,  0.000 sec (  1.225%)
 non bonded repulsion           ...        0 min,  0.000 sec (  3.584%)
 dCN                            ...        0 min,  0.000 sec (  6.269%)
 EEQ energy and q               ...        0 min,  0.000 sec (  9.190%)
 D3                             ...        0 min,  0.000 sec ( 18.897%)
 EEQ gradient                   ...        0 min,  0.000 sec (  2.786%)
 bonds                          ...        0 min,  0.000 sec (  5.516%)
 bend and torsion               ...        0 min,  0.000 sec (  4.606%)
 bonded ATM                     ...        0 min,  0.000 sec (  2.168%)
 HB/XB (incl list setup)        ...        0 min,  0.001 sec ( 45.321%)

         :::::::::::::::::::::::::::::::::::::::::::::::::::::
         ::                     SUMMARY                     ::
         :::::::::::::::::::::::::::::::::::::::::::::::::::::
         :: total energy             -22.775516096166 Eh    ::
         :: gradient norm              0.458193959009 Eh/a0 ::
         ::.................................................::
         :: bond energy              -23.449823012914 Eh    ::
         :: angle energy               0.122718116773 Eh    ::
         :: torsion energy             0.112420539792 Eh    ::
         :: repulsion energy           1.543482309955 Eh    ::
         :: electrostat energy        -0.936069121611 Eh    ::
         :: dispersion energy         -0.137045260503 Eh    ::
         :: HB energy                 -0.002801968031 Eh    ::
         :: XB energy                  0.000000000000 Eh    ::
         :: bonded atm energy         -0.028397699628 Eh    ::
         :: external energy            0.000000000000 Eh    ::
         :: add. restraining           0.000000000000 Eh    ::
         :: total charge               0.000000000000 e     ::
         :::::::::::::::::::::::::::::::::::::::::::::::::::::

           -------------------------------------------------
          |                Property Printout                |
           -------------------------------------------------

           -------------------------------------------------
          | TOTAL ENERGY              -22.775516096166 Eh   |
          | GRADIENT NORM               0.458193959009 Eh/α |
           -------------------------------------------------
           ------------------------------------------------- 
          |               Molecular Dynamics                |
           ------------------------------------------------- 
 trajectories on xtb.trj or xtb.trj.<n>

 MD time /ps        :   20.00
 dt /fs             :    2.00
 SCC accuracy       :    2.00
 temperature /K     :  548.00
 max steps          : 10000
 block length (av.) :  2500
 dumpstep(trj) /fs  :  500.00   250
 dumpstep(coords)/fs: 1000.00   500
 H atoms mass (amu) :     4
 # deg. of freedom  :   348
 SHAKE off
 Berendsen THERMOSTAT on
         time (ps)    <Epot>      Ekin   <T>   T     Etot
      0    0.00      0.00000   0.6300    0.    0.   -22.14556
est. speed in wall clock h for 100 ps :  0.02
    200    0.40    -22.53030   0.4170  812.  757.   -22.23828
    400    0.80    -22.60885   0.3792  768.  688.   -22.33451
    600    1.20    -22.64610   0.3215  733.  583.   -22.39567
    800    1.60    -22.67120   0.3521  708.  639.   -22.41714
   1000    2.00    -22.68983   0.3395  688.  616.   -22.42831
   1200    2.40    -22.70384   0.3343  670.  607.   -22.46085
   1400    2.80    -22.71416   0.3032  656.  550.   -22.47899
   1600    3.20    -22.72213   0.3066  643.  556.   -22.48045
   1800    3.60    -22.72842   0.3043  633.  552.   -22.48142
   2000    4.00    -22.73242   0.3117  624.  566.   -22.46066
   2200    4.40    -22.73608   0.2951  617.  536.   -22.44644
   2400    4.80    -22.73994   0.3289  613.  597.   -22.47456
block <Epot> / <T> :     -22.75064  610.     drift:  0.99D+02   Tbath : 548.
   2600    5.20    -22.74299   0.2929  608.  532.   -22.47778
   2800    5.60    -22.74561   0.2923  603.  531.   -22.47541
   3000    6.00    -22.74804   0.3111  600.  565.   -22.47452
   3200    6.40    -22.74983   0.3236  596.  587.   -22.46623
   3400    6.80    -22.75126   0.2894  593.  525.   -22.47126
   3600    7.20    -22.75314   0.3120  591.  566.   -22.48005
   3800    7.60    -22.75445   0.2935  589.  533.   -22.49128
   4000    8.00    -22.75594   0.3209  587.  582.   -22.47409
   4200    8.40    -22.75748   0.2819  586.  512.   -22.47265
   4400    8.80    -22.75863   0.2876  584.  522.   -22.48666
   4600    9.20    -22.75958   0.2721  582.  494.   -22.49507
   4800    9.60    -22.76095   0.3173  581.  576.   -22.47585
   5000   10.00    -22.76209   0.3121  580.  566.   -22.49392
block <Epot> / <T> :     -22.78265  550.     drift:  0.99D+02   Tbath : 548.
   5200   10.40    -22.76319   0.2815  579.  511.   -22.50048
   5400   10.80    -22.76430   0.2971  578.  539.   -22.48121
   5600   11.20    -22.76515   0.2850  577.  517.   -22.48666
   5800   11.60    -22.76595   0.2952  575.  536.   -22.50126
   6000   12.00    -22.76689   0.2679  575.  486.   -22.49673
   6200   12.40    -22.76734   0.3159  573.  573.   -22.48222
   6400   12.80    -22.76750   0.2911  572.  528.   -22.48411
   6600   13.20    -22.76762   0.3134  571.  569.   -22.48675
   6800   13.60    -22.76800   0.2889  571.  524.   -22.47461
   7000   14.00    -22.76836   0.3118  570.  566.   -22.46159
   7200   14.40    -22.76871   0.3439  570.  624.   -22.47097
   7400   14.80    -22.76917   0.2899  569.  526.   -22.48798
block <Epot> / <T> :     -22.78413  547.     drift:  0.99D+02   Tbath : 548.
   7600   15.20    -22.76965   0.2833  569.  514.   -22.48105
   7800   15.60    -22.76975   0.3169  568.  575.   -22.46310
   8000   16.00    -22.76999   0.3091  567.  561.   -22.47978
   8200   16.40    -22.77025   0.3057  567.  555.   -22.46011
   8400   16.80    -22.77050   0.3089  567.  561.   -22.46706
   8600   17.20    -22.77077   0.2952  566.  536.   -22.49871
   8800   17.60    -22.77131   0.3197  566.  580.   -22.48353
   9000   18.00    -22.77170   0.3046  566.  553.   -22.48089
   9200   18.40    -22.77204   0.3004  565.  545.   -22.51933
   9400   18.80    -22.77250   0.3083  565.  560.   -22.49205
   9600   19.20    -22.77296   0.3130  565.  568.   -22.48637
   9800   19.60    -22.77349   0.3136  565.  569.   -22.47596
 average properties 
 Epot               :  -22.773841698481025     
 Epot (accurate SCC):  -22.776871510175837     
 Ekin               :  0.31087807551312574     
 Etot               :  -22.462963622967902     
 T                  :   564.18175020168553     
 thermostating problem
 normal exit of md()
########################################################################
[WARNING] Runtime exception occurred
-1- gfnff_setup: Could not read topology file.
########################################################################
Note: The following floating-point exceptions are signalling: IEEE_UNDERFLOW_FLAG
normal termination of xtb

------------------------------------------------------------------------
 * finished run on 2025/03/14 at 12:45:11.607     
------------------------------------------------------------------------
 total:
 * wall-time:     0 d,  0 h,  0 min, 16.204 sec
 *  cpu-time:     0 d,  0 h,  0 min, 31.867 sec
 * ratio c/w:     1.967 speedup
 SCF:
 * wall-time:     0 d,  0 h,  0 min,  0.003 sec
 *  cpu-time:     0 d,  0 h,  0 min,  0.005 sec
 * ratio c/w:     1.814 speedup
 MD:
 * wall-time:     0 d,  0 h,  0 min, 16.183 sec
 *  cpu-time:     0 d,  0 h,  0 min, 31.851 sec
 * ratio c/w:     1.968 speedup

