      -----------------------------------------------------------      
     |                   =====================                   |     
     |                           x T B                           |     
     |                   =====================                   |     
     |                         S. Grimme                         |     
     |          Mulliken Center for Theoretical Chemistry        |     
     |                    University of Bonn                     |     
      -----------------------------------------------------------      

   * xtb version 6.6.1 (8d0f1dd) compiled by 'runner@Mac-1690902418499.local' on 2023-08-01

   xtb is free software: you can redistribute it and/or modify it under
   the terms of the GNU Lesser General Public License as published by
   the Free Software Foundation, either version 3 of the License, or
   (at your option) any later version.
   
   xtb is distributed in the hope that it will be useful,
   but WITHOUT ANY WARRANTY; without even the implied warranty of
   MERCHANTABILITY or FITNESS FOR A PARTICULAR PURPOSE.  See the
   GNU Lesser General Public License for more details.
   
   Cite this work as:
   * C. Bannwarth, E. Caldeweyher, S. Ehlert, A. Hansen, P. Pracht,
     J. Seibert, S. Spicher, S. Grimme, WIREs Comput. Mol. Sci., 2020, 11,
     e01493. DOI: 10.1002/wcms.1493
   
   for GFN2-xTB:
   * C. Bannwarth, S. Ehlert and S. Grimme., J. Chem. Theory Comput., 2019,
     15, 1652-1671. DOI: 10.1021/acs.jctc.8b01176
   for GFN1-xTB:
   * S. Grimme, C. Bannwarth, P. Shushkov, J. Chem. Theory Comput., 2017,
     13, 1989-2009. DOI: 10.1021/acs.jctc.7b00118
   for GFN0-xTB:
   * P. Pracht, E. Caldeweyher, S. Ehlert, S. Grimme, ChemRxiv, 2019, preprint.
     DOI: 10.26434/chemrxiv.8326202.v1
   for GFN-FF:
   * S. Spicher and S. Grimme, Angew. Chem. Int. Ed., 2020, 59, 15665-15673.
     DOI: 10.1002/anie.202004239
   
   for ALPB and GBSA implicit solvation:
   * S. Ehlert, M. Stahn, S. Spicher, S. Grimme, J. Chem. Theory Comput.,
     2021, 17, 4250-4261. DOI: 10.1021/acs.jctc.1c00471
   
   for DFT-D4:
   * E. Caldeweyher, C. Bannwarth and S. Grimme, J. Chem. Phys., 2017,
     147, 034112. DOI: 10.1063/1.4993215
   * E. Caldeweyher, S. Ehlert, A. Hansen, H. Neugebauer, S. Spicher,
     C. Bannwarth and S. Grimme, J. Chem. Phys., 2019, 150, 154122.
     DOI: 10.1063/1.5090222
   * E. Caldeweyher, J.-M. Mewes, S. Ehlert and S. Grimme, Phys. Chem. Chem. Phys.
     2020, 22, 8499-8512. DOI: 10.1039/D0CP00502A
   
   for sTDA-xTB:
   * S. Grimme and C. Bannwarth, J. Chem. Phys., 2016, 145, 054103.
     DOI: 10.1063/1.4959605
   
   in the mass-spec context:
   * V. Asgeirsson, C. Bauer and S. Grimme, Chem. Sci., 2017, 8, 4879.
     DOI: 10.1039/c7sc00601b
   * J. Koopman and S. Grimme, ACS Omega 2019, 4, 12, 15120-15133.
     DOI: 10.1021/acsomega.9b02011
   
   for metadynamics refer to:
   * S. Grimme, J. Chem. Theory Comput., 2019, 155, 2847-2862
     DOI: 10.1021/acs.jctc.9b00143
   
   for SPH calculations refer to:
   * S. Spicher and S. Grimme, J. Chem. Theory Comput., 2021, 17, 1701-1714
     DOI: 10.1021/acs.jctc.0c01306
   
   with help from (in alphabetical order)
   P. Atkinson, C. Bannwarth, F. Bohle, G. Brandenburg, E. Caldeweyher
   M. Checinski, S. Dohm, S. Ehlert, S. Ehrlich, I. Gerasimov, C. Hölzer
   A. Katbashev, J. Koopman, C. Lavigne, S. Lehtola, F. März, M. Müller,
   F. Musil, H. Neugebauer, J. Pisarek, C. Plett, P. Pracht, F. Pultar,
   J. Seibert, P. Shushkov, S. Spicher, M. Stahn, M. Steiner, T. Strunk,
   J. Stückrath, T. Rose, and J. Unsleber
   
 * started run on 2024/11/14 at 14:21:26.558     

           -------------------------------------------------
          |                Calculation Setup                |
           -------------------------------------------------

          program call               : xtb opt_anion_Verdazyl3.mol --gfn2 --sp --chrg -1 --uhf 1
          coordinate file            : opt_anion_Verdazyl3.mol
          omp threads                :                     8

   ID    Z sym.   atoms
    1    6 C      1-30, 33, 39, 45, 46, 48-75
    2    7 N      31, 32, 34, 35, 37, 38, 40, 41, 43
    3    8 O      36, 42, 47
    4   14 Si     44
    5    1 H      76-124
########################################################################
[WARNING] Please study the warnings concerning your input carefully
-1- prog_main: Charge in sdf/mol input was overwritten
########################################################################

           -------------------------------------------------
          |                 G F N 2 - x T B                 |
           -------------------------------------------------

        Reference                      10.1021/acs.jctc.8b01176
      * Hamiltonian:
        H0-scaling (s, p, d)           1.850000    2.230000    2.230000
        zeta-weighting                 0.500000
      * Dispersion:
        s8                             2.700000
        a1                             0.520000
        a2                             5.000000
        s9                             5.000000
      * Repulsion:
        kExp                           1.500000    1.000000
        rExp                           1.000000
      * Coulomb:
        alpha                          2.000000
        third order                    shell-resolved
        anisotropic                    true
        a3                             3.000000
        a5                             4.000000
        cn-shift                       1.200000
        cn-exp                         4.000000
        max-rad                        5.000000

q/qsh data taken from xtbrestart
CAMM data taken from xtbrestart

          ...................................................
          :                      SETUP                      :
          :.................................................:
          :  # basis functions                 355          :
          :  # atomic orbitals                 354          :
          :  # shells                          200          :
          :  # electrons                       365          :
          :  max. iterations                   250          :
          :  Hamiltonian                  GFN2-xTB          :
          :  restarted?                       true          :
          :  GBSA solvation                  false          :
          :  PC potential                    false          :
          :  electronic temp.          300.0000000     K    :
          :  accuracy                    1.0000000          :
          :  -> integral cutoff          0.2500000E+02      :
          :  -> integral neglect         0.1000000E-07      :
          :  -> SCF convergence          0.1000000E-05 Eh   :
          :  -> wf. convergence          0.1000000E-03 e    :
          :  Broyden damping             0.4000000          :
          ...................................................

 iter      E             dE          RMSdq      gap      omega  full diag
   1   -201.5416963 -0.201542E+03  0.616E-01    1.81       0.0  T
   2   -201.4980395  0.436567E-01  0.621E-01    0.89       1.0  T
   3   -201.4919011  0.613841E-02  0.606E-01    0.79       1.0  T
   4   -201.5653417 -0.734406E-01  0.171E-01    1.16       1.0  T
   5   -201.5513594  0.139823E-01  0.247E-01    1.01       1.0  T
   6   -201.5153025  0.360568E-01  0.450E-01    0.94       1.0  T
   7   -201.5497158 -0.344133E-01  0.248E-01    1.03       1.0  T
   8   -201.5274507  0.222650E-01  0.382E-01    0.99       1.0  T
   9   -201.5671419 -0.396911E-01  0.114E-02    1.07       1.0  T
  10   -201.5669803  0.161599E-03  0.254E-02    1.07       1.0  T
  11   -201.5670046 -0.242839E-04  0.229E-02    1.06       1.0  T
  12   -201.5671427 -0.138090E-03  0.453E-03    1.07       2.0  T
  13   -201.5671475 -0.486492E-05  0.105E-03    1.06       8.6  T
  14   -201.5671474  0.904890E-07  0.100E-03    1.07       9.0  T
  15   -201.5671473  0.125374E-06  0.115E-03    1.07       7.8  T
  16   -201.5671477 -0.350861E-06  0.194E-04    1.07      46.4  T
  17   -201.5671477 -0.893411E-08  0.487E-05    1.07     184.2  T

   *** convergence criteria satisfied after 17 iterations ***

         #    Occupation            Energy/Eh            Energy/eV
      -------------------------------------------------------------
         1        2.0000           -0.7003011             -19.0562
       ...           ...                  ...                  ...
       177        2.0000           -0.2893479              -7.8736
       178        2.0000           -0.2778321              -7.5602
       179        2.0000           -0.2729160              -7.4264
       180        2.0000           -0.2606161              -7.0917
       181        2.0000           -0.2605672              -7.0904
       182        1.5220           -0.2225966              -6.0572
       183        1.4780           -0.2224294              -6.0526 (HOMO)
       184                         -0.1832910              -4.9876 (LUMO)
       185                         -0.1777672              -4.8373
       186                         -0.1658145              -4.5120
       187                         -0.1556989              -4.2368
       188                         -0.1506311              -4.0989
       ...                                ...                  ...
       354                          0.8264675              22.4893
      -------------------------------------------------------------
                  HL-Gap            0.0391384 Eh            1.0650 eV
             Fermi-level           -0.2125469 Eh           -5.7837 eV

 SCC (total)                   0 d,  0 h,  0 min,  1.659 sec
 SCC setup                      ...        0 min,  0.000 sec (  0.022%)
 Dispersion                     ...        0 min,  0.002 sec (  0.090%)
 classical contributions        ...        0 min,  0.000 sec (  0.019%)
 integral evaluation            ...        0 min,  0.008 sec (  0.468%)
 iterations                     ...        0 min,  1.589 sec ( 95.803%)
 molecular gradient             ...        0 min,  0.051 sec (  3.095%)
 printout                       ...        0 min,  0.008 sec (  0.501%)

         :::::::::::::::::::::::::::::::::::::::::::::::::::::
         ::                     SUMMARY                     ::
         :::::::::::::::::::::::::::::::::::::::::::::::::::::
         :: total energy            -198.304045494898 Eh    ::
         :: gradient norm              0.000697042170 Eh/a0 ::
         :: HOMO-LUMO gap              1.065011341917 eV    ::
         ::.................................................::
         :: SCC energy              -201.567147678974 Eh    ::
         :: -> isotropic ES            0.221020282270 Eh    ::
         :: -> anisotropic ES          0.019032790810 Eh    ::
         :: -> anisotropic XC          0.106589732022 Eh    ::
         :: -> dispersion             -0.210051840723 Eh    ::
         :: repulsion energy           3.256284968373 Eh    ::
         :: add. restraining           0.000000000000 Eh    ::
         :: total charge              -0.999994871146 e     ::
         :::::::::::::::::::::::::::::::::::::::::::::::::::::

           -------------------------------------------------
          |                Property Printout                |
           -------------------------------------------------

    * Orbital Energies and Occupations

         #    Occupation            Energy/Eh            Energy/eV
      -------------------------------------------------------------
         1        2.0000           -0.7003011             -19.0562
       ...           ...                  ...                  ...
       171        2.0000           -0.3113258              -8.4716
       172        2.0000           -0.3108419              -8.4584
       173        2.0000           -0.3056182              -8.3163
       174        2.0000           -0.2985001              -8.1226
       175        2.0000           -0.2959557              -8.0534
       176        2.0000           -0.2906382              -7.9087
       177        2.0000           -0.2893479              -7.8736
       178        2.0000           -0.2778321              -7.5602
       179        2.0000           -0.2729160              -7.4264
       180        2.0000           -0.2606161              -7.0917
       181        2.0000           -0.2605672              -7.0904
       182        1.5220           -0.2225966              -6.0572
       183        1.4780           -0.2224294              -6.0526 (HOMO)
       184                         -0.1832910              -4.9876 (LUMO)
       185                         -0.1777672              -4.8373
       186                         -0.1658145              -4.5120
       187                         -0.1556989              -4.2368
       188                         -0.1506311              -4.0989
       189                         -0.1485237              -4.0415
       190                         -0.1376922              -3.7468
       191                         -0.1376287              -3.7451
       192                         -0.1360996              -3.7035
       193                         -0.1346089              -3.6629
       194                         -0.1318310              -3.5873
       ...                                ...                  ...
       354                          0.8264675              22.4893
      -------------------------------------------------------------
                  HL-Gap            0.0391384 Eh            1.0650 eV
             Fermi-level           -0.2125469 Eh           -5.7837 eV

     #   Z          covCN         q      C6AA      α(0)
     1   6 C        2.920    -0.033    28.835     8.806
     2   6 C        2.919    -0.028    28.710     8.787
     3   6 C        2.988     0.000    28.012     8.682
     4   6 C        2.930    -0.034    28.850     8.809
     5   6 C        2.984     0.010    27.780     8.646
     6   6 C        2.988     0.013    27.706     8.634
     7   6 C        2.980     0.011    27.775     8.645
     8   6 C        2.986     0.004    27.920     8.668
     9   6 C        2.917    -0.035    28.863     8.810
    10   6 C        2.913    -0.033    28.828     8.804
    11   6 C        3.058    -0.019    28.422     8.743
    12   6 C        3.084     0.044    26.931     8.507
    13   6 C        2.907    -0.053    29.315     8.878
    14   6 C        2.927    -0.038    28.954     8.824
    15   6 C        3.057    -0.019    28.437     8.745
    16   6 C        3.088     0.043    26.927     8.506
    17   6 C        2.980     0.010    27.791     8.647
    18   6 C        2.986     0.004    27.928     8.669
    19   6 C        2.927    -0.039    28.966     8.826
    20   6 C        2.907    -0.053    29.307     8.877
    21   6 C        2.984     0.010    27.788     8.647
    22   6 C        2.988     0.013    27.704     8.634
    23   6 C        2.913    -0.033    28.831     8.805
    24   6 C        2.917    -0.035    28.865     8.810
    25   6 C        2.988     0.000    28.009     8.681
    26   6 C        2.919    -0.028    28.712     8.787
    27   6 C        2.920    -0.034    28.842     8.807
    28   6 C        2.931    -0.034    28.857     8.810
    29   6 C        2.868     0.167    24.406     8.098
    30   6 C        2.868     0.167    24.407     8.098
    31   7 N        1.929    -0.307    28.808     7.958
    32   7 N        2.839     0.006    21.159     6.832
    33   6 C        2.699     0.308    21.773     7.637
    34   7 N        2.847     0.002    21.227     6.843
    35   7 N        1.925    -0.299    28.597     7.929
    36   8 O        0.859    -0.479    23.328     6.476
    37   7 N        1.925    -0.299    28.584     7.927
    38   7 N        2.847     0.002    21.221     6.842
    39   6 C        2.699     0.307    21.781     7.638
    40   7 N        2.839     0.006    21.151     6.830
    41   7 N        1.928    -0.306    28.759     7.952
    42   8 O        0.859    -0.479    23.335     6.477
    43   7 N        2.795    -0.057    22.344     7.021
    44  14 Si       3.506     0.483   100.788    19.414
    45   6 C        3.699    -0.169    23.979     7.004
    46   6 C        3.715     0.095    19.123     6.248
    47   8 O        1.702    -0.321    19.363     5.941
    48   6 C        3.649    -0.209    25.023     7.187
    49   6 C        3.648    -0.207    24.989     7.182
    50   6 C        3.648    -0.207    24.987     7.182
    51   6 C        3.643     0.159    18.344     6.157
    52   6 C        2.923     0.069    26.447     8.433
    53   6 C        2.926    -0.044    29.086     8.844
    54   6 C        2.920    -0.031    28.782     8.798
    55   6 C        2.917    -0.045    29.120     8.849
    56   6 C        2.921    -0.035    28.863     8.810
    57   6 C        2.919    -0.054    29.350     8.884
    58   6 C        2.928     0.071    26.413     8.428
    59   6 C        2.919    -0.045    29.110     8.848
    60   6 C        2.921    -0.033    28.831     8.805
    61   6 C        2.918    -0.043    29.078     8.843
    62   6 C        2.920    -0.032    28.807     8.801
    63   6 C        2.924    -0.042    29.043     8.838
    64   6 C        2.924     0.070    26.443     8.433
    65   6 C        2.919    -0.053    29.311     8.878
    66   6 C        2.921    -0.035    28.861     8.810
    67   6 C        2.917    -0.045    29.105     8.847
    68   6 C        2.920    -0.031    28.772     8.796
    69   6 C        2.926    -0.043    29.063     8.841
    70   6 C        2.928     0.071    26.418     8.429
    71   6 C        2.925    -0.042    29.045     8.838
    72   6 C        2.920    -0.032    28.808     8.802
    73   6 C        2.918    -0.043    29.079     8.843
    74   6 C        2.921    -0.033    28.832     8.805
    75   6 C        2.919    -0.045    29.122     8.849
    76   1 H        0.926     0.059     2.205     2.322
    77   1 H        0.926     0.024     2.679     2.559
    78   1 H        0.926     0.015     2.811     2.622
    79   1 H        0.925     0.019     2.742     2.590
    80   1 H        0.926     0.053     2.285     2.364
    81   1 H        0.926     0.067     2.121     2.277
    82   1 H        0.925     0.018     2.770     2.603
    83   1 H        0.926     0.011     2.869     2.649
    84   1 H        0.925     0.017     2.784     2.609
    85   1 H        0.926     0.055     2.260     2.351
    86   1 H        0.925     0.031     2.577     2.510
    87   1 H        0.925     0.034     2.525     2.485
    88   1 H        0.925     0.037     2.487     2.466
    89   1 H        0.925     0.034     2.523     2.484
    90   1 H        0.925     0.028     2.612     2.528
    91   1 H        0.925     0.035     2.517     2.481
    92   1 H        0.925     0.031     2.568     2.506
    93   1 H        0.925     0.038     2.472     2.459
    94   1 H        0.925     0.034     2.524     2.485
    95   1 H        0.925     0.044     2.396     2.420
    96   1 H        0.925     0.043     2.414     2.430
    97   1 H        0.923     0.002     3.031     2.723
    98   1 H        0.923     0.001     3.042     2.727
    99   1 H        0.922     0.021     2.724     2.581
   100   1 H        0.923     0.023     2.688     2.564
   101   1 H        0.926     0.016     2.798     2.616
   102   1 H        0.926     0.025     2.651     2.546
   103   1 H        0.925     0.022     2.698     2.568
   104   1 H        0.925     0.023     2.684     2.562
   105   1 H        0.926     0.059     2.208     2.324
   106   1 H        0.926     0.023     2.681     2.561
   107   1 H        0.926     0.015     2.812     2.622
   108   1 H        0.925     0.019     2.741     2.589
   109   1 H        0.926     0.054     2.267     2.355
   110   1 H        0.926     0.065     2.139     2.287
   111   1 H        0.925     0.018     2.771     2.603
   112   1 H        0.926     0.012     2.861     2.645
   113   1 H        0.926     0.021     2.724     2.581
   114   1 H        0.926     0.056     2.251     2.346
   115   1 H        0.926     0.025     2.653     2.547
   116   1 H        0.926     0.019     2.752     2.594
   117   1 H        0.925     0.026     2.637     2.540
   118   1 H        0.926     0.047     2.354     2.399
   119   1 H        0.926     0.058     2.226     2.333
   120   1 H        0.926     0.056     2.244     2.343
   121   1 H        0.926     0.047     2.359     2.402
   122   1 H        0.925     0.026     2.643     2.542
   123   1 H        0.925     0.022     2.699     2.569
   124   1 H        0.925     0.022     2.699     2.569

 Mol. C6AA /au·bohr⁶  :     222352.972099
 Mol. C8AA /au·bohr⁸  :    5637659.378343
 Mol. α(0) /au        :        754.555850


Wiberg/Mayer (AO) data.
largest (>0.10) Wiberg bond orders for each atom

 ---------------------------------------------------------------------------
     #   Z sym  total        # sym  WBO       # sym  WBO       # sym  WBO
 ---------------------------------------------------------------------------
     1   6 C    3.982 --     2 C    1.529     6 C    1.305   117 H    0.968
                             4 C    0.101
     2   6 C    3.978 --     1 C    1.529     3 C    1.313   118 H    0.967
     3   6 C    3.979 --     4 C    1.449     2 C    1.313    30 C    1.032
     4   6 C    3.983 --     3 C    1.449     5 C    1.329   119 H    0.956
                             1 C    0.101
     5   6 C    3.987 --     4 C    1.329     6 C    1.268     7 C    1.177
     6   6 C    3.983 --     1 C    1.305     5 C    1.268    10 C    1.220
     7   6 C    3.978 --     8 C    1.298    11 C    1.255     5 C    1.177
     8   6 C    3.984 --     7 C    1.298    14 C    1.286     9 C    1.214
     9   6 C    3.980 --    10 C    1.630     8 C    1.214   103 H    0.967
    10   6 C    3.980 --     9 C    1.630     6 C    1.220   104 H    0.968
    11   6 C    3.975 --    12 C    1.295     7 C    1.255    15 C    1.171
    12   6 C    3.945 --    13 C    1.303    11 C    1.295    43 N    1.129
    13   6 C    3.977 --    14 C    1.530    12 C    1.303   101 H    0.964
    14   6 C    3.961 --    13 C    1.530     8 C    1.286   102 H    0.968
    15   6 C    3.975 --    16 C    1.296    17 C    1.254    11 C    1.171
    16   6 C    3.945 --    20 C    1.303    15 C    1.296    43 N    1.129
    17   6 C    3.978 --    18 C    1.299    15 C    1.254    21 C    1.177
    18   6 C    3.984 --    17 C    1.299    19 C    1.285    24 C    1.214
    19   6 C    3.961 --    20 C    1.531    18 C    1.285   115 H    0.969
    20   6 C    3.977 --    19 C    1.531    16 C    1.303   116 H    0.966
    21   6 C    3.987 --    28 C    1.328    22 C    1.268    17 C    1.177
    22   6 C    3.983 --    27 C    1.305    21 C    1.268    23 C    1.220
    23   6 C    3.980 --    24 C    1.629    22 C    1.220   123 H    0.968
    24   6 C    3.980 --    23 C    1.629    18 C    1.214   124 H    0.967
    25   6 C    3.979 --    28 C    1.449    26 C    1.313    29 C    1.031
    26   6 C    3.978 --    27 C    1.529    25 C    1.313   121 H    0.967
    27   6 C    3.982 --    26 C    1.529    22 C    1.305   122 H    0.968
                            28 C    0.102
    28   6 C    3.983 --    25 C    1.449    21 C    1.328   120 H    0.956
                            27 C    0.102
    29   6 C    3.971 --    35 N    1.406    31 N    1.401    25 C    1.031
    30   6 C    3.971 --    37 N    1.406    41 N    1.400     3 C    1.032
    31   7 N    2.750 --    29 C    1.401    32 N    1.052    35 N    0.128
    32   7 N    3.547 --    33 C    1.118    52 C    1.083    31 N    1.052
                            36 O    0.118
    33   6 C    3.959 --    36 O    1.590    32 N    1.118    34 N    1.117
    34   7 N    3.533 --    33 C    1.117    58 C    1.069    35 N    1.053
                            36 O    0.122
    35   7 N    2.754 --    29 C    1.406    34 N    1.053    31 N    0.128
    36   8 O    1.959 --    33 C    1.590    34 N    0.122    32 N    0.118
    37   7 N    2.754 --    30 C    1.406    38 N    1.055    41 N    0.127
    38   7 N    3.534 --    39 C    1.116    70 C    1.069    37 N    1.055
                            42 O    0.122
    39   6 C    3.959 --    42 O    1.589    40 N    1.120    38 N    1.116
    40   7 N    3.546 --    39 C    1.120    64 C    1.080    41 N    1.054
                            42 O    0.119
    41   7 N    2.751 --    30 C    1.400    40 N    1.054    37 N    0.127
    42   8 O    1.958 --    39 C    1.589    38 N    0.122    40 N    0.119
    43   7 N    3.532 --    16 C    1.129    12 C    1.129    51 C    1.017
    44  14 Si   3.617 --    50 C    0.901    49 C    0.900    48 C    0.892
                            45 C    0.853
    45   6 C    3.972 --    46 C    1.022    96 H    0.980    95 H    0.980
                            44 Si   0.853
    46   6 C    3.949 --    45 C    1.022    47 O    0.973    97 H    0.971
                            98 H    0.970
    47   8 O    2.070 --    46 C    0.973    51 C    0.972
    48   6 C    3.979 --    90 H    0.992    91 H    0.988    89 H    0.988
                            44 Si   0.892
    49   6 C    3.980 --    87 H    0.988    86 H    0.988    88 H    0.987
                            44 Si   0.900
    50   6 C    3.981 --    94 H    0.988    92 H    0.988    93 H    0.986
                            44 Si   0.901
    51   6 C    3.957 --    43 N    1.017    47 O    0.972    99 H    0.955
                           100 H    0.954
    52   6 C    3.956 --    57 C    1.355    53 C    1.339    32 N    1.083
    53   6 C    3.970 --    54 C    1.471    52 C    1.339    85 H    0.962
                            56 C    0.102
    54   6 C    3.991 --    53 C    1.471    55 C    1.417    84 H    0.971
                            57 C    0.101
    55   6 C    3.965 --    56 C    1.427    54 C    1.417    83 H    0.972
    56   6 C    3.990 --    57 C    1.458    55 C    1.427    82 H    0.972
                            53 C    0.102
    57   6 C    3.968 --    56 C    1.458    52 C    1.355    81 H    0.958
                            54 C    0.101
    58   6 C    3.958 --    59 C    1.362    63 C    1.352    34 N    1.069
    59   6 C    3.973 --    60 C    1.456    58 C    1.362    80 H    0.965
                            62 C    0.103
    60   6 C    3.990 --    59 C    1.456    61 C    1.428    79 H    0.972
                            63 C    0.104
    61   6 C    3.968 --    60 C    1.428    62 C    1.421    78 H    0.972
    62   6 C    3.991 --    63 C    1.467    61 C    1.421    77 H    0.971
                            59 C    0.103
    63   6 C    3.972 --    62 C    1.467    58 C    1.352    76 H    0.963
                            60 C    0.104
    64   6 C    3.956 --    65 C    1.356    69 C    1.342    40 N    1.080
    65   6 C    3.969 --    66 C    1.457    64 C    1.356   110 H    0.959
                            68 C    0.101
    66   6 C    3.990 --    65 C    1.457    67 C    1.427   111 H    0.972
                            69 C    0.103
    67   6 C    3.965 --    66 C    1.427    68 C    1.418   112 H    0.972
    68   6 C    3.991 --    69 C    1.471    67 C    1.418   113 H    0.971
                            65 C    0.101
    69   6 C    3.970 --    68 C    1.471    64 C    1.342   114 H    0.962
                            66 C    0.103
    70   6 C    3.958 --    75 C    1.362    71 C    1.351    38 N    1.069
    71   6 C    3.972 --    72 C    1.467    70 C    1.351   105 H    0.963
                            74 C    0.104
    72   6 C    3.991 --    71 C    1.467    73 C    1.420   106 H    0.971
                            75 C    0.103
    73   6 C    3.968 --    74 C    1.429    72 C    1.420   107 H    0.972
    74   6 C    3.990 --    75 C    1.456    73 C    1.429   108 H    0.972
                            71 C    0.104
    75   6 C    3.972 --    74 C    1.456    70 C    1.362   109 H    0.965
                            72 C    0.103
    76   1 H    0.996 --    63 C    0.963
    77   1 H    0.999 --    62 C    0.971
    78   1 H    1.000 --    61 C    0.972
    79   1 H    0.999 --    60 C    0.972
    80   1 H    0.997 --    59 C    0.965
    81   1 H    0.996 --    57 C    0.958
    82   1 H    0.999 --    56 C    0.972
    83   1 H    1.000 --    55 C    0.972
    84   1 H    0.999 --    54 C    0.971
    85   1 H    0.997 --    53 C    0.962
    86   1 H    0.999 --    49 C    0.988
    87   1 H    0.999 --    49 C    0.988
    88   1 H    0.999 --    49 C    0.987
    89   1 H    0.999 --    48 C    0.988
    90   1 H    0.999 --    48 C    0.992
    91   1 H    0.999 --    48 C    0.988
    92   1 H    0.999 --    50 C    0.988
    93   1 H    0.999 --    50 C    0.986
Note: The following floating-point exceptions are signalling: IEEE_UNDERFLOW_FLAG
normal termination of xtb
    94   1 H    0.999 --    50 C    0.988
    95   1 H    0.998 --    45 C    0.980
    96   1 H    0.998 --    45 C    0.980
    97   1 H    1.000 --    46 C    0.971
    98   1 H    1.000 --    46 C    0.970
    99   1 H    0.999 --    51 C    0.955
   100   1 H    0.999 --    51 C    0.954
   101   1 H    0.998 --    13 C    0.964
   102   1 H    0.998 --    14 C    0.968
   103   1 H    0.998 --     9 C    0.967
   104   1 H    0.998 --    10 C    0.968
   105   1 H    0.996 --    71 C    0.963
   106   1 H    0.999 --    72 C    0.971
   107   1 H    1.000 --    73 C    0.972
   108   1 H    0.999 --    74 C    0.972
   109   1 H    0.997 --    75 C    0.965
   110   1 H    0.996 --    65 C    0.959
   111   1 H    0.999 --    66 C    0.972
   112   1 H    1.000 --    67 C    0.972
   113   1 H    0.999 --    68 C    0.971
   114   1 H    0.997 --    69 C    0.962
   115   1 H    0.998 --    19 C    0.969
   116   1 H    0.998 --    20 C    0.966
   117   1 H    0.998 --     1 C    0.968
   118   1 H    0.997 --     2 C    0.967
   119   1 H    0.996 --     4 C    0.956
   120   1 H    0.996 --    28 C    0.956
   121   1 H    0.997 --    26 C    0.967
   122   1 H    0.998 --    27 C    0.968
   123   1 H    0.998 --    23 C    0.968
   124   1 H    0.998 --    24 C    0.967
 ---------------------------------------------------------------------------

Topologies differ in bond orders
Writing corrected topology to xtbtopo.mol

molecular dipole:
                 x           y           z       tot (Debye)
 q only:        2.975       0.892       3.435
   full:        3.044       1.060       3.250      11.634
molecular quadrupole (traceless):
                xx          xy          yy          xz          yz          zz
 q only:       17.005      60.735     -42.082     -21.533      20.576      25.076
  q+dip:       23.832      59.754     -26.961     -25.116      20.875       3.129
   full:       14.162      59.649     -36.383     -27.561      16.351      22.221


           -------------------------------------------------
          | TOTAL ENERGY             -198.304045494898 Eh   |
          | GRADIENT NORM               0.000697042170 Eh/α |
          | HOMO-LUMO GAP               1.065011341917 eV   |
           -------------------------------------------------
########################################################################
[WARNING] Runtime exception occurred
-2- restart_readRestart: Multiplicity missmatch in restart file.
-1- restart_readRestart: Number of electron missmatch in restart file.
########################################################################

------------------------------------------------------------------------
 * finished run on 2024/11/14 at 14:21:28.235     
------------------------------------------------------------------------
 total:
 * wall-time:     0 d,  0 h,  0 min,  1.676 sec
 *  cpu-time:     0 d,  0 h,  0 min,  6.432 sec
 * ratio c/w:     3.838 speedup
 SCF:
 * wall-time:     0 d,  0 h,  0 min,  1.660 sec
 *  cpu-time:     0 d,  0 h,  0 min,  6.395 sec
 * ratio c/w:     3.853 speedup

