      -----------------------------------------------------------      
     |                   =====================                   |     
     |                           x T B                           |     
     |                   =====================                   |     
     |                         S. Grimme                         |     
     |          Mulliken Center for Theoretical Chemistry        |     
     |                    University of Bonn                     |     
      -----------------------------------------------------------      

   * xtb version 6.6.1 (8d0f1dd) compiled by 'runner@Mac-1690902418499.local' on 2023-08-01

   xtb is free software: you can redistribute it and/or modify it under
   the terms of the GNU Lesser General Public License as published by
   the Free Software Foundation, either version 3 of the License, or
   (at your option) any later version.
   
   xtb is distributed in the hope that it will be useful,
   but WITHOUT ANY WARRANTY; without even the implied warranty of
   MERCHANTABILITY or FITNESS FOR A PARTICULAR PURPOSE.  See the
   GNU Lesser General Public License for more details.
   
   Cite this work as:
   * C. Bannwarth, E. Caldeweyher, S. Ehlert, A. Hansen, P. Pracht,
     J. Seibert, S. Spicher, S. Grimme, WIREs Comput. Mol. Sci., 2020, 11,
     e01493. DOI: 10.1002/wcms.1493
   
   for GFN2-xTB:
   * C. Bannwarth, S. Ehlert and S. Grimme., J. Chem. Theory Comput., 2019,
     15, 1652-1671. DOI: 10.1021/acs.jctc.8b01176
   for GFN1-xTB:
   * S. Grimme, C. Bannwarth, P. Shushkov, J. Chem. Theory Comput., 2017,
     13, 1989-2009. DOI: 10.1021/acs.jctc.7b00118
   for GFN0-xTB:
   * P. Pracht, E. Caldeweyher, S. Ehlert, S. Grimme, ChemRxiv, 2019, preprint.
     DOI: 10.26434/chemrxiv.8326202.v1
   for GFN-FF:
   * S. Spicher and S. Grimme, Angew. Chem. Int. Ed., 2020, 59, 15665-15673.
     DOI: 10.1002/anie.202004239
   
   for ALPB and GBSA implicit solvation:
   * S. Ehlert, M. Stahn, S. Spicher, S. Grimme, J. Chem. Theory Comput.,
     2021, 17, 4250-4261. DOI: 10.1021/acs.jctc.1c00471
   
   for DFT-D4:
   * E. Caldeweyher, C. Bannwarth and S. Grimme, J. Chem. Phys., 2017,
     147, 034112. DOI: 10.1063/1.4993215
   * E. Caldeweyher, S. Ehlert, A. Hansen, H. Neugebauer, S. Spicher,
     C. Bannwarth and S. Grimme, J. Chem. Phys., 2019, 150, 154122.
     DOI: 10.1063/1.5090222
   * E. Caldeweyher, J.-M. Mewes, S. Ehlert and S. Grimme, Phys. Chem. Chem. Phys.
     2020, 22, 8499-8512. DOI: 10.1039/D0CP00502A
   
   for sTDA-xTB:
   * S. Grimme and C. Bannwarth, J. Chem. Phys., 2016, 145, 054103.
     DOI: 10.1063/1.4959605
   
   in the mass-spec context:
   * V. Asgeirsson, C. Bauer and S. Grimme, Chem. Sci., 2017, 8, 4879.
     DOI: 10.1039/c7sc00601b
   * J. Koopman and S. Grimme, ACS Omega 2019, 4, 12, 15120-15133.
     DOI: 10.1021/acsomega.9b02011
   
   for metadynamics refer to:
   * S. Grimme, J. Chem. Theory Comput., 2019, 155, 2847-2862
     DOI: 10.1021/acs.jctc.9b00143
   
   for SPH calculations refer to:
   * S. Spicher and S. Grimme, J. Chem. Theory Comput., 2021, 17, 1701-1714
     DOI: 10.1021/acs.jctc.0c01306
   
   with help from (in alphabetical order)
   P. Atkinson, C. Bannwarth, F. Bohle, G. Brandenburg, E. Caldeweyher
   M. Checinski, S. Dohm, S. Ehlert, S. Ehrlich, I. Gerasimov, C. Hölzer
   A. Katbashev, J. Koopman, C. Lavigne, S. Lehtola, F. März, M. Müller,
   F. Musil, H. Neugebauer, J. Pisarek, C. Plett, P. Pracht, F. Pultar,
   J. Seibert, P. Shushkov, S. Spicher, M. Stahn, M. Steiner, T. Strunk,
   J. Stückrath, T. Rose, and J. Unsleber
   
 * started run on 2024/11/14 at 14:30:30.061     

           -------------------------------------------------
          |                Calculation Setup                |
           -------------------------------------------------

          program call               : xtb stacked_dimer_Verdazyl3.mol --opt --gfn2 --chrg -2 --uhf 2 --tight
          coordinate file            : stacked_dimer_Verdazyl3.mol
          omp threads                :                     8

   ID    Z sym.   atoms
    1    6 C      1-30, 33, 39, 45, 46, 48-75, 125-154, 157, 163, 169, 170,
                  172-199
    2    7 N      31, 32, 34, 35, 37, 38, 40, 41, 43, 155, 156, 158, 159,
                  161, 162, 164, 165, 167
    3    8 O      36, 42, 47, 160, 166, 171
    4   14 Si     44, 168
    5    1 H      76-124, 200-248

molecular fragmentation (1/2 indicates fragments):
111111111111111111111111111111111111111111111111111111111111111111111111
111111111111111111111111111111111111111111111111111122222222222222222222
222222222222222222222222222222222222222222222222222222222222222222222222
22222222222222222222222222222222
# atoms in fragment 1/2:   124   124
 fragment masses (1/2) :      996.20      996.20
CMA distance (Bohr)    :  11.338
constraining FC (au)   :  0.0500
########################################################################
[WARNING] Please study the warnings concerning your input carefully
-1- prog_main_parseArguments: Unknown option '--tight' provided
########################################################################

           -------------------------------------------------
          |                 G F N 2 - x T B                 |
           -------------------------------------------------

        Reference                      10.1021/acs.jctc.8b01176
      * Hamiltonian:
        H0-scaling (s, p, d)           1.850000    2.230000    2.230000
        zeta-weighting                 0.500000
      * Dispersion:
        s8                             2.700000
        a1                             0.520000
        a2                             5.000000
        s9                             5.000000
      * Repulsion:
        kExp                           1.500000    1.000000
        rExp                           1.000000
      * Coulomb:
        alpha                          2.000000
        third order                    shell-resolved
        anisotropic                    true
        a3                             3.000000
        a5                             4.000000
        cn-shift                       1.200000
        cn-exp                         4.000000
        max-rad                        5.000000

q/qsh data taken from xtbrestart
CAMM data taken from xtbrestart

          ...................................................
          :                      SETUP                      :
          :.................................................:
          :  # basis functions                 710          :
          :  # atomic orbitals                 708          :
          :  # shells                          400          :
          :  # electrons                       730          :
          :  max. iterations                   250          :
          :  Hamiltonian                  GFN2-xTB          :
          :  restarted?                       true          :
          :  GBSA solvation                  false          :
          :  PC potential                    false          :
          :  electronic temp.          300.0000000     K    :
          :  accuracy                    1.0000000          :
          :  -> integral cutoff          0.2500000E+02      :
          :  -> integral neglect         0.1000000E-07      :
          :  -> SCF convergence          0.1000000E-05 Eh   :
          :  -> wf. convergence          0.1000000E-03 e    :
          :  Broyden damping             0.4000000          :
          ...................................................

 iter      E             dE          RMSdq      gap      omega  full diag
   1   -402.9863573 -0.402986E+03  0.211E+00    1.56       0.0  T
   2   -402.6564827  0.329875E+00  0.147E+00    0.02       1.0  T
   3   -400.0132209  0.264326E+01  0.205E+00    0.15       1.0  T
   4   -402.8811493 -0.286793E+01  0.875E-01    1.04       1.0  T
   5   -402.9471891 -0.660397E-01  0.603E-01    1.08       1.0  T
   6   -402.9839965 -0.368074E-01  0.553E-01    0.92       1.0  T
   7   -403.0176262 -0.336297E-01  0.444E-01    1.00       1.0  T
   8   -403.0475194 -0.298932E-01  0.339E-01    0.89       1.0  T
   9   -403.0514139 -0.389442E-02  0.299E-01    0.99       1.0  T
  10   -403.0726059 -0.211920E-01  0.209E-01    0.98       1.0  T
  11   -403.0637085  0.889740E-02  0.252E-01    0.87       1.0  T
  12   -403.0657212 -0.201270E-02  0.203E-01    0.84       1.0  T
  13   -403.0628718  0.284940E-02  0.228E-01    0.81       1.0  T
  14   -403.0900032 -0.271315E-01  0.488E-02    0.84       1.0  T
  15   -403.0900020  0.127394E-05  0.488E-02    0.86       1.0  T
  16   -403.0910688 -0.106686E-02  0.137E-02    0.85       1.0  T
  17   -403.0911393 -0.705119E-04  0.909E-03    0.86       1.0  T
  18   -403.0911714 -0.320195E-04  0.408E-03    0.86       1.6  T
  19   -403.0911629  0.844790E-05  0.565E-03    0.86       1.1  T
  20   -403.0911740 -0.111077E-04  0.297E-03    0.86       2.1  T
  21   -403.0911777 -0.372584E-05  0.144E-03    0.86       4.4  T
  22   -403.0911787 -0.995728E-06  0.454E-04    0.86      14.0  T
  23   -403.0911787  0.356384E-07  0.502E-04    0.86      12.6  T

   *** convergence criteria satisfied after 23 iterations ***

         #    Occupation            Energy/Eh            Energy/eV
      -------------------------------------------------------------
         1        2.0000           -0.6654356             -18.1074
       ...           ...                  ...                  ...
       360        2.0000           -0.1984367              -5.3997
       361        2.0000           -0.1975915              -5.3767
       362        2.0000           -0.1971568              -5.3649
       363        1.5634           -0.1575307              -4.2866
       364        1.5414           -0.1574461              -4.2843
       365        1.4746           -0.1571917              -4.2774
       366        1.4206           -0.1569839              -4.2717 (HOMO)
       367                         -0.1253904              -3.4120 (LUMO)
       368                         -0.1240462              -3.3755
       369                         -0.1196492              -3.2558
       370                         -0.1177691              -3.2047
       371                         -0.1052330              -2.8635
       ...                                ...                  ...
       708                          0.8860567              24.1108
      -------------------------------------------------------------
                  HL-Gap            0.0315935 Eh            0.8597 eV
             Fermi-level           -0.1490305 Eh           -4.0553 eV

 transition dipole moment (au) for excitation:         365         366
     X       Y       Z   
   2.6757  -4.6901  -2.6980  total (au/Debye):    6.036  15.343
 dE (eV)             :    0.006
 oscillator strength :  0.71395E-02

 SCC (total)                   0 d,  0 h,  0 min,  5.215 sec
 SCC setup                      ...        0 min,  0.003 sec (  0.050%)
 Dispersion                     ...        0 min,  0.008 sec (  0.153%)
 classical contributions        ...        0 min,  0.002 sec (  0.031%)
 integral evaluation            ...        0 min,  0.030 sec (  0.578%)
 iterations                     ...        0 min,  4.802 sec ( 92.076%)
 molecular gradient             ...        0 min,  0.290 sec (  5.558%)
 printout                       ...        0 min,  0.081 sec (  1.554%)

         :::::::::::::::::::::::::::::::::::::::::::::::::::::
         ::                     SUMMARY                     ::
         :::::::::::::::::::::::::::::::::::::::::::::::::::::
         :: total energy            -396.508266027717 Eh    ::
         :: gradient norm              0.126268652511 Eh/a0 ::
         :: HOMO-LUMO gap              0.859701573509 eV    ::
         ::.................................................::
         :: SCC energy              -403.091178699715 Eh    ::
         :: -> isotropic ES            0.496167568833 Eh    ::
         :: -> anisotropic ES          0.040210956069 Eh    ::
         :: -> anisotropic XC          0.215249631488 Eh    ::
         :: -> dispersion             -0.465322333605 Eh    ::
         :: repulsion energy           6.537719935637 Eh    ::
         :: add. restraining           0.000000000000 Eh    ::
         :: total charge              -1.999999071145 e     ::
         :::::::::::::::::::::::::::::::::::::::::::::::::::::

      ----------------------------------------------------------- 
     |                   =====================                   |
     |                        A N C O P T                        |
     |                   =====================                   |
     |               Approximate Normal Coordinate               |
     |                Rational Function Optimizer                |
      ----------------------------------------------------------- 

          ...................................................
          :                      SETUP                      :
          :.................................................:
          :   optimization level            normal          :
          :   max. optcycles                   744          :
          :   ANC micro-cycles                  20          :
          :   degrees of freedom               738          :
          :.................................................:
          :   RF solver                   davidson          :
          :   write xtbopt.log                true          :
          :   linear?                        false          :
          :   energy convergence         0.5000000E-05 Eh   :
          :   grad. convergence          0.1000000E-02 Eh/α :
          :   maxmium RF displ.          1.0000000          :
          :   Hlow (freq-cutoff)         0.1000000E-01      :
          :   Hmax (freq-cutoff)         5.0000000          :
          :   S6 in model hess.         20.0000000          :
          ...................................................

generating ANC from model Hessian ...
Using Lindh-Hessian (1995)
 Shifting diagonal of input Hessian by    1.0006073464166602E-002
 Lowest  eigenvalues of input Hessian
    0.010000    0.000000    0.000000    0.000000    0.000000    0.000000
    0.000000    0.010023    0.010028    0.010051    0.010076    0.010082
    0.010097    0.010104    0.010127    0.010137    0.010162    0.010169
 Highest eigenvalues
    2.299300    2.299469    2.530764    2.530917    2.531314    2.531487


........................................................................
.............................. CYCLE    1 ..............................
........................................................................

 iter      E             dE          RMSdq      gap      omega  full diag
   1   -403.0911788 -0.403091E+03  0.226E-04    0.86       0.0  T
   2   -403.0911709  0.794620E-05  0.395E-03    0.86       1.6  T
   3   -403.0911787 -0.785395E-05  0.432E-04    0.86      14.7  T
   4   -403.0911788 -0.116168E-06  0.464E-05    0.86     136.8  T
   5   -403.0911788  0.379993E-08  0.936E-05    0.86      67.8  T
     SCC iter.                  ...        0 min,  1.590 sec
     gradient                   ...        0 min,  0.330 sec
 * total energy  :  -396.5082662 Eh     change       -0.1355785E-06 Eh
   gradient norm :     0.1262704 Eh/α   predicted     0.0000000E+00 (-100.00%)
   displ. norm   :     0.6731076 α      lambda       -0.4449555E-01
   maximum displ.:     0.2040749 α      in ANC's #186, #90, #85, ...

........................................................................
.............................. CYCLE    2 ..............................
........................................................................

 iter      E             dE          RMSdq      gap      omega  full diag
   1   -403.1195052 -0.403120E+03  0.162E-01    0.95       0.0  T
   2   -403.0410719  0.784332E-01  0.427E-01    0.80       1.0  T
   3   -403.0979987 -0.569268E-01  0.238E-01    0.88       1.0  T
   4   -403.0247552  0.732435E-01  0.430E-01    0.81       1.0  T
   5   -403.0102051  0.145501E-01  0.430E-01    0.80       1.0  T
   6   -403.1046297 -0.944246E-01  0.178E-01    0.92       1.0  T
   7   -403.1143849 -0.975516E-02  0.109E-01    0.91       1.0  T
   8   -403.1195242 -0.513936E-02  0.540E-02    0.93       1.0  T
   9   -403.1176500  0.187418E-02  0.762E-02    0.92       1.0  T
  10   -403.1203035 -0.265345E-02  0.339E-02    0.93       1.0  T
  11   -403.1204892 -0.185739E-03  0.272E-02    0.93       1.0  T
  12   -403.1207112 -0.221950E-03  0.188E-02    0.93       1.0  T
  13   -403.1209057 -0.194471E-03  0.344E-03    0.93       1.8  T
  14   -403.1209080 -0.237728E-05  0.285E-03    0.93       2.2  T
  15   -403.1209117 -0.363029E-05  0.113E-03    0.93       5.6  T
  16   -403.1209118 -0.102548E-06  0.103E-03    0.93       6.2  T
  17   -403.1209121 -0.353270E-06  0.589E-04    0.93      10.8  T
  18   -403.1209123 -0.172998E-06  0.131E-04    0.93      48.3  T
     SCC iter.                  ...        0 min,  3.852 sec
     gradient                   ...        0 min,  0.284 sec
 * total energy  :  -396.5378159 Eh     change       -0.2954978E-01 Eh
   gradient norm :     0.0614903 Eh/α   predicted    -0.3232767E-01 (   9.40%)
   displ. norm   :     0.6302326 α      lambda       -0.1637539E-01
   maximum displ.:     0.1988944 α      in ANC's #55, #90, #54, ...

........................................................................
.............................. CYCLE    3 ..............................
........................................................................

 iter      E             dE          RMSdq      gap      omega  full diag
   1   -403.1277744 -0.403128E+03  0.801E-02    0.99       0.0  T
   2   -403.0525154  0.752590E-01  0.402E-01    0.90       1.0  T
   3   -403.1252162 -0.727008E-01  0.886E-02    0.97       1.0  T
   4   -403.0489553  0.762608E-01  0.378E-01    0.92       1.0  T
   5   -403.1261824 -0.772271E-01  0.655E-02    0.99       1.0  T
   6   -403.0887237  0.374587E-01  0.255E-01    0.96       1.0  T
   7   -403.1281793 -0.394556E-01  0.205E-02    0.98       1.0  T
   8   -403.1283560 -0.176634E-03  0.980E-03    0.99       1.0  T
   9   -403.1283844 -0.284352E-04  0.592E-03    0.99       1.1  T
  10   -403.1283517  0.327111E-04  0.889E-03    0.99       1.0  T
  11   -403.1283966 -0.449462E-04  0.238E-03    0.99       2.7  T
  12   -403.1283931  0.350988E-05  0.314E-03    0.99       2.0  T
  13   -403.1283984 -0.526235E-05  0.117E-03    0.99       5.4  T
  14   -403.1283990 -0.603179E-06  0.510E-04    0.99      12.5  T
  15   -403.1283988  0.172734E-06  0.729E-04    0.99       8.7  T
     SCC iter.                  ...        0 min,  2.506 sec
     gradient                   ...        0 min,  0.282 sec
 * total energy  :  -396.5507298 Eh     change       -0.1291390E-01 Eh
   gradient norm :     0.0252272 Eh/α   predicted    -0.1143985E-01 ( -11.41%)
   displ. norm   :     0.6724216 α      lambda       -0.1025275E-01
   maximum displ.:     0.1992711 α      in ANC's #55, #90, #24, ...

........................................................................
.............................. CYCLE    4 ..............................
........................................................................

 iter      E             dE          RMSdq      gap      omega  full diag
   1   -403.1285072 -0.403129E+03  0.821E-02    1.03       0.0  T
   2   -403.0437661  0.847411E-01  0.426E-01    0.96       1.0  T
   3   -403.1258968 -0.821308E-01  0.910E-02    1.01       1.0  T
   4   -403.0806180  0.452789E-01  0.299E-01    0.93       1.0  T
   5   -403.1053593 -0.247413E-01  0.199E-01    0.99       1.0  T
   6   -403.1268456 -0.214864E-01  0.643E-02    1.03       1.0  T
   7   -403.1289257 -0.208009E-02  0.241E-02    1.02       1.0  T
   8   -403.1290068 -0.810238E-04  0.207E-02    1.03       1.0  T
   9   -403.1292161 -0.209352E-03  0.508E-03    1.02       1.3  T
  10   -403.1290488  0.167311E-03  0.176E-02    1.02       1.0  T
  11   -403.1292063 -0.157531E-03  0.606E-03    1.03       1.0  T
  12   -403.1292203 -0.139384E-04  0.293E-03    1.03       2.2  T
  13   -403.1292216 -0.132115E-05  0.261E-03    1.03       2.4  T
  14   -403.1292248 -0.319157E-05  0.970E-04    1.03       6.5  T
  15   -403.1292252 -0.458851E-06  0.158E-04    1.03      40.2  T
  16   -403.1292252  0.204457E-07  0.251E-04    1.03      25.3  T
     SCC iter.                  ...        0 min,  2.467 sec
     gradient                   ...        0 min,  0.285 sec
 * total energy  :  -396.5587148 Eh     change       -0.7985002E-02 Eh
   gradient norm :     0.0134502 Eh/α   predicted    -0.7444268E-02 (  -6.77%)
   displ. norm   :     0.6549822 α      lambda       -0.5897671E-02
   maximum displ.:     0.2129699 α      in ANC's #24, #55, #72, ...

........................................................................
.............................. CYCLE    5 ..............................
........................................................................

 iter      E             dE          RMSdq      gap      omega  full diag
   1   -403.1274810 -0.403127E+03  0.702E-02    1.04       0.0  T
   2   -403.0677404  0.597406E-01  0.355E-01    0.99       1.0  T
   3   -403.1248976 -0.571572E-01  0.866E-02    1.03       1.0  T
   4   -403.0795220  0.453756E-01  0.301E-01    0.96       1.0  T
   5   -403.1056261 -0.261041E-01  0.190E-01    1.02       1.0  T
   6   -403.1268225 -0.211964E-01  0.434E-02    1.04       1.0  T
   7   -403.1276654 -0.842945E-03  0.201E-02    1.04       1.0  T
   8   -403.1278269 -0.161421E-03  0.107E-02    1.04       1.0  T
   9   -403.1278494 -0.225864E-04  0.700E-03    1.04       1.0  T
  10   -403.1278516 -0.214096E-05  0.695E-03    1.04       1.0  T
  11   -403.1278771 -0.255507E-04  0.129E-03    1.04       4.9  T
  12   -403.1278754  0.174467E-05  0.216E-03    1.04       2.9  T
  13   -403.1278776 -0.220541E-05  0.887E-04    1.04       7.2  T
  14   -403.1278778 -0.158702E-06  0.647E-04    1.04       9.8  T
  15   -403.1278779 -0.127397E-06  0.461E-04    1.04      13.8  T
     SCC iter.                  ...        0 min,  2.779 sec
     gradient                   ...        0 min,  0.303 sec
 * total energy  :  -396.5633794 Eh     change       -0.4664535E-02 Eh
   gradient norm :     0.0179714 Eh/α   predicted    -0.4213892E-02 (  -9.66%)
   displ. norm   :     0.6492922 α      lambda       -0.3859323E-02
   maximum displ.:     0.2464278 α      in ANC's #24, #55, #44, ...

........................................................................
.............................. CYCLE    6 ..............................
........................................................................

 iter      E             dE          RMSdq      gap      omega  full diag
   1   -403.1269785 -0.403127E+03  0.564E-02    1.03       0.0  T
   2   -403.0910541  0.359244E-01  0.268E-01    1.00       1.0  T
   3   -403.1245573 -0.335032E-01  0.768E-02    1.02       1.0  T
   4   -403.0860006  0.385567E-01  0.259E-01    1.00       1.0  T
   5   -403.1228766 -0.368761E-01  0.889E-02    1.02       1.0  T
   6   -403.1267011 -0.382442E-02  0.310E-02    1.04       1.0  T
   7   -403.1270967 -0.395656E-03  0.111E-02    1.04       1.0  T
   8   -403.1271129 -0.162124E-04  0.934E-03    1.04       1.0  T
   9   -403.1271554 -0.424757E-04  0.333E-03    1.04       1.9  T
  10   -403.1271343  0.210632E-04  0.646E-03    1.04       1.0  T
  11   -403.1271581 -0.238076E-04  0.194E-03    1.04       3.3  T
  12   -403.1271587 -0.519569E-06  0.154E-03    1.04       4.1  T
  13   -403.1271587 -0.773767E-07  0.156E-03    1.04       4.1  T
  14   -403.1271601 -0.139956E-05  0.165E-04    1.04      38.5  T
  15   -403.1271601  0.397310E-07  0.310E-04    1.04      20.5  T
  16   -403.1271601 -0.473613E-07  0.753E-05    1.04      84.3  T
     SCC iter.                  ...        0 min,  4.002 sec
     gradient                   ...        0 min,  0.287 sec
 * total energy  :  -396.5664866 Eh     change       -0.3107206E-02 Eh
   gradient norm :     0.0144704 Eh/α   predicted    -0.2743170E-02 ( -11.72%)
   displ. norm   :     0.6625237 α      lambda       -0.2721162E-02
   maximum displ.:     0.2729104 α      in ANC's #24, #44, #42, ...

........................................................................
.............................. CYCLE    7 ..............................
........................................................................

 iter      E             dE          RMSdq      gap      omega  full diag
   1   -403.1265385 -0.403127E+03  0.498E-02    1.02       0.0  T
   2   -403.1001041  0.264343E-01  0.218E-01    1.00       1.0  T
   3   -403.1215003 -0.213962E-01  0.972E-02    1.02       1.0  T
   4   -403.0966949  0.248054E-01  0.244E-01    0.99       1.0  T
   5   -403.1261122 -0.294173E-01  0.318E-02    1.02       1.0  T
   6   -403.1200508  0.606135E-02  0.106E-01    1.02       1.0  T
   7   -403.1265823 -0.653147E-02  0.101E-02    1.03       1.0  T
   8   -403.1266245 -0.422348E-04  0.561E-03    1.03       1.1  T
   9   -403.1266363 -0.117356E-04  0.292E-03    1.03       2.2  T
  10   -403.1266161  0.202129E-04  0.624E-03    1.03       1.0  T
  11   -403.1266391 -0.230873E-04  0.102E-03    1.03       6.3  T
  12   -403.1266391  0.687904E-07  0.936E-04    1.03       6.8  T
  13   -403.1266390  0.402388E-07  0.101E-03    1.03       6.3  T
  14   -403.1266396 -0.548799E-06  0.228E-04    1.03      27.9  T
     SCC iter.                  ...        0 min,  4.900 sec
     gradient                   ...        0 min,  0.302 sec
 * total energy  :  -396.5686988 Eh     change       -0.2212172E-02 Eh
   gradient norm :     0.0077890 Eh/α   predicted    -0.1957795E-02 ( -11.50%)
   displ. norm   :     0.6766720 α      lambda       -0.1963832E-02
   maximum displ.:     0.2867041 α      in ANC's #24, #42, #44, ...

........................................................................
.............................. CYCLE    8 ..............................
........................................................................

 iter      E             dE          RMSdq      gap      omega  full diag
   1   -403.1262262 -0.403126E+03  0.466E-02    1.02       0.0  T
   2   -403.1036929  0.225333E-01  0.194E-01    1.00       1.0  T
   3   -403.1211244 -0.174315E-01  0.953E-02    1.01       1.0  T
   4   -403.1007918  0.203326E-01  0.216E-01    0.99       1.0  T
   5   -403.1258538 -0.250620E-01  0.289E-02    1.02       1.0  T
   6   -403.1225818  0.327203E-02  0.860E-02    1.01       1.0  T
   7   -403.1262650 -0.368314E-02  0.792E-03    1.02       1.0  T
   8   -403.1262991 -0.341838E-04  0.243E-03    1.02       2.6  T
   9   -403.1262986  0.569087E-06  0.233E-03    1.02       2.7  T
  10   -403.1263007 -0.213641E-05  0.107E-03    1.02       5.9  T
  11   -403.1263010 -0.273201E-06  0.691E-04    1.02       9.2  T
  12   -403.1263012 -0.200127E-06  0.350E-04    1.02      18.1  T
     SCC iter.                  ...        0 min,  3.757 sec
     gradient                   ...        0 min,  0.316 sec
 * total energy  :  -396.5703197 Eh     change       -0.1620985E-02 Eh
   gradient norm :     0.0051658 Eh/α   predicted    -0.1431526E-02 ( -11.69%)
   displ. norm   :     0.6948528 α      lambda       -0.1514563E-02
   maximum displ.:     0.2950173 α      in ANC's #24, #42, #44, ...

........................................................................
.............................. CYCLE    9 ..............................
........................................................................

 iter      E             dE          RMSdq      gap      omega  full diag
   1   -403.1260174 -0.403126E+03  0.460E-02    1.02       0.0  T
   2   -403.1080441  0.179733E-01  0.173E-01    1.00       1.0  T
   3   -403.1200133 -0.119692E-01  0.102E-01    1.01       1.0  T
   4   -403.0873837  0.326296E-01  0.278E-01    0.98       1.0  T
   5   -403.1257090 -0.383253E-01  0.272E-02    1.01       1.0  T
   6   -403.1224668  0.324219E-02  0.812E-02    1.01       1.0  T
   7   -403.1260184 -0.355154E-02  0.101E-02    1.02       1.0  T
   8   -403.1260760 -0.575819E-04  0.236E-03    1.02       2.7  T
   9   -403.1260759  0.622316E-08  0.210E-03    1.02       3.0  T
  10   -403.1260776 -0.161747E-05  0.117E-03    1.02       5.4  T
  11   -403.1260779 -0.341150E-06  0.746E-04    1.02       8.5  T
  12   -403.1260782 -0.284116E-06  0.284E-04    1.02      22.4  T
     SCC iter.                  ...        0 min,  1.999 sec
     gradient                   ...        0 min,  0.287 sec
 * total energy  :  -396.5715938 Eh     change       -0.1274041E-02 Eh
   gradient norm :     0.0066054 Eh/α   predicted    -0.1122914E-02 ( -11.86%)
   displ. norm   :     0.7112542 α      lambda       -0.1248364E-02
   maximum displ.:     0.2988637 α      in ANC's #24, #42, #44, ...

........................................................................
.............................. CYCLE   10 ..............................
........................................................................

 iter      E             dE          RMSdq      gap      omega  full diag
   1   -403.1263877 -0.403126E+03  0.463E-02    1.02       0.0  T
   2   -403.1151710  0.112168E-01  0.143E-01    1.01       1.0  T
   3   -403.1188896 -0.371858E-02  0.114E-01    1.01       1.0  T
   4   -403.0839807  0.349089E-01  0.283E-01    0.96       1.0  T
   5   -403.1259711 -0.419905E-01  0.291E-02    1.02       1.0  T
   6   -403.1240046  0.196658E-02  0.667E-02    1.01       1.0  T
   7   -403.1263564 -0.235189E-02  0.109E-02    1.02       1.0  T
   8   -403.1264288 -0.723080E-04  0.185E-03    1.02       3.4  T
   9   -403.1264276  0.117923E-05  0.205E-03    1.02       3.1  T
  10   -403.1264282 -0.626086E-06  0.174E-03    1.02       3.6  T
  11   -403.1264297 -0.149143E-05  0.687E-04    1.02       9.2  T
  12   -403.1264298 -0.917925E-07  0.576E-04    1.02      11.0  T
  13   -403.1264300 -0.169031E-06  0.240E-04    1.02      26.5  T
     SCC iter.                  ...        0 min,  2.136 sec
     gradient                   ...        0 min,  0.385 sec
 * total energy  :  -396.5726494 Eh     change       -0.1055573E-02 Eh
   gradient norm :     0.0064301 Eh/α   predicted    -0.9399496E-03 ( -10.95%)
   displ. norm   :     0.7137279 α      lambda       -0.1018662E-02
   maximum displ.:     0.2933643 α      in ANC's #24, #42, #6, ...

........................................................................
.............................. CYCLE   11 ..............................
........................................................................

 iter      E             dE          RMSdq      gap      omega  full diag
   1   -403.1260387 -0.403126E+03  0.477E-02    1.03       0.0  T
   2   -403.1174601  0.857866E-02  0.135E-01    1.00       1.0  T
   3   -403.1208308 -0.337075E-02  0.105E-01    1.02       1.0  T
   4   -403.0932351  0.275958E-01  0.231E-01    1.00       1.0  T
   5   -403.1259145 -0.326795E-01  0.172E-02    1.03       1.0  T
   6   -403.1259655 -0.509244E-04  0.142E-02    1.02       1.0  T
   7   -403.1259781 -0.126228E-04  0.136E-02    1.02       1.0  T
   8   -403.1260772 -0.990821E-04  0.177E-03    1.03       3.6  T
   9   -403.1260750  0.217466E-05  0.213E-03    1.02       3.0  T
  10   -403.1260773 -0.228677E-05  0.587E-04    1.03      10.8  T
  11   -403.1260773 -0.475757E-08  0.494E-04    1.03      12.8  T
  12   -403.1260774 -0.109012E-06  0.197E-04    1.03      32.2  T
     SCC iter.                  ...        0 min,  2.348 sec
     gradient                   ...        0 min,  0.298 sec
 * total energy  :  -396.5734928 Eh     change       -0.8434934E-03 Eh
   gradient norm :     0.0048719 Eh/α   predicted    -0.7687973E-03 (  -8.86%)
   displ. norm   :     0.6870957 α      lambda       -0.7782104E-03
   maximum displ.:     0.2756505 α      in ANC's #24, #42, #6, ...

........................................................................
.............................. CYCLE   12 ..............................
........................................................................

 iter      E             dE          RMSdq      gap      omega  full diag
   1   -403.1278115 -0.403128E+03  0.465E-02    1.03       0.0  T
   2   -403.1172611  0.105504E-01  0.147E-01    1.00       1.0  T
   3   -403.1237220 -0.646086E-02  0.935E-02    1.03       1.0  T
   4   -403.1153908  0.833121E-02  0.151E-01    1.02       1.0  T
   5   -403.1276427 -0.122520E-01  0.204E-02    1.03       1.0  T
   6   -403.1230935  0.454925E-02  0.875E-02    1.02       1.0  T
   7   -403.1278340 -0.474054E-02  0.715E-03    1.03       1.0  T
   8   -403.1278599 -0.259099E-04  0.144E-03    1.03       4.4  T
   9   -403.1278600 -0.433163E-07  0.106E-03    1.03       6.0  T
  10   -403.1278601 -0.162321E-06  0.566E-04    1.03      11.2  T
  11   -403.1278601 -0.551336E-08  0.471E-04    1.03      13.5  T
     SCC iter.                  ...        0 min,  4.274 sec
     gradient                   ...        0 min,  0.373 sec
 * total energy  :  -396.5740779 Eh     change       -0.5850764E-03 Eh
   gradient norm :     0.0056496 Eh/α   predicted    -0.5728051E-03 (  -2.10%)
   displ. norm   :     0.6463642 α      lambda       -0.5937295E-03
   maximum displ.:     0.2508350 α      in ANC's #24, #6, #42, ...

........................................................................
.............................. CYCLE   13 ..............................
........................................................................

 iter      E             dE          RMSdq      gap      omega  full diag
   1   -403.1242527 -0.403124E+03  0.478E-02    1.04       0.0  T
   2   -403.1151961  0.905657E-02  0.135E-01    1.01       1.0  T
   3   -403.1173857 -0.218955E-02  0.117E-01    1.03       1.0  T
   4   -403.0874401  0.299456E-01  0.252E-01    0.97       1.0  T
   5   -403.1241435 -0.367034E-01  0.185E-02    1.04       1.0  T
   6   -403.1194466  0.469684E-02  0.916E-02    1.02       1.0  T
   7   -403.1242688 -0.482221E-02  0.845E-03    1.03       1.0  T
   8   -403.1242939 -0.251146E-04  0.426E-03    1.04       1.5  T
   9   -403.1242935  0.470129E-06  0.279E-03    1.03       2.3  T
  10   -403.1242956 -0.210281E-05  0.126E-03    1.03       5.0  T
  11   -403.1242960 -0.443805E-06  0.579E-04    1.03      11.0  T
  12   -403.1242961 -0.110168E-06  0.233E-04    1.03      27.2  T
     SCC iter.                  ...        0 min,  3.729 sec
     gradient                   ...        0 min,  0.304 sec
 * total energy  :  -396.5744252 Eh     change       -0.3472953E-03 Eh
   gradient norm :     0.0069183 Eh/α   predicted    -0.4208940E-03 (  21.19%)
   displ. norm   :     0.4309094 α      lambda       -0.3186754E-03
   maximum displ.:     0.1616420 α      in ANC's #24, #6, #16, ...

........................................................................
.............................. CYCLE   14 ..............................
........................................................................

 iter      E             dE          RMSdq      gap      omega  full diag
   1   -403.1262769 -0.403126E+03  0.301E-02    1.04       0.0  T
   2   -403.1171481  0.912881E-02  0.134E-01    1.01       1.0  T
   3   -403.1252300 -0.808186E-02  0.480E-02    1.04       1.0  T
   4   -403.0997515  0.254785E-01  0.212E-01    0.99       1.0  T
   5   -403.1262034 -0.264519E-01  0.146E-02    1.04       1.0  T
   6   -403.1238221  0.238130E-02  0.662E-02    1.03       1.0  T
   7   -403.1263051 -0.248296E-02  0.442E-03    1.03       1.4  T
   8   -403.1263146 -0.951753E-05  0.117E-03    1.04       5.4  T
   9   -403.1263145  0.710656E-07  0.945E-04    1.03       6.7  T
  10   -403.1263146 -0.118084E-06  0.528E-04    1.04      12.0  T
     SCC iter.                  ...        0 min,  4.110 sec
     gradient                   ...        0 min,  0.311 sec
 * total energy  :  -396.5746565 Eh     change       -0.2313324E-03 Eh
   gradient norm :     0.0038302 Eh/α   predicted    -0.1889255E-03 ( -18.33%)
   displ. norm   :     0.3911581 α      lambda       -0.2100678E-03
   maximum displ.:     0.1679540 α      in ANC's #6, #24, #16, ...

........................................................................
.............................. CYCLE   15 ..............................
........................................................................

 iter      E             dE          RMSdq      gap      omega  full diag
   1   -403.1280789 -0.403128E+03  0.276E-02    1.03       0.0  T
   2   -403.1175005  0.105784E-01  0.146E-01    1.00       1.0  T
   3   -403.1275749 -0.100744E-01  0.361E-02    1.03       1.0  T
   4   -403.1199554  0.761950E-02  0.117E-01    1.03       1.0  T
   5   -403.1280031 -0.804762E-02  0.143E-02    1.04       1.0  T
   6   -403.1262525  0.175056E-02  0.572E-02    1.03       1.0  T
   7   -403.1281150 -0.186248E-02  0.385E-03    1.03       1.7  T
   8   -403.1281224 -0.743432E-05  0.916E-04    1.03       6.9  T
   9   -403.1281226 -0.147906E-06  0.580E-04    1.03      10.9  T
  10   -403.1281226 -0.519386E-07  0.292E-04    1.03      21.7  T
     SCC iter.                  ...        0 min,  3.631 sec
     gradient                   ...        0 min,  0.322 sec
 * total energy  :  -396.5748292 Eh     change       -0.1726583E-03 Eh
   gradient norm :     0.0037395 Eh/α   predicted    -0.1211111E-03 ( -29.86%)
   displ. norm   :     0.4148280 α      lambda       -0.2537829E-03
   maximum displ.:     0.2026902 α      in ANC's #6, #16, #24, ...

........................................................................
.............................. CYCLE   16 ..............................
........................................................................

 iter      E             dE          RMSdq      gap      omega  full diag
   1   -403.1299065 -0.403130E+03  0.321E-02    1.03       0.0  T
   2   -403.1133263  0.165803E-01  0.182E-01    0.99       1.0  T
   3   -403.1293136 -0.159874E-01  0.395E-02    1.03       1.0  T
   4   -403.1023008  0.270129E-01  0.211E-01    1.00       1.0  T
   5   -403.1299101 -0.276093E-01  0.127E-02    1.03       1.0  T
   6   -403.1277667  0.214343E-02  0.640E-02    1.02       1.0  T
   7   -403.1299716 -0.220496E-02  0.487E-03    1.03       1.3  T
   8   -403.1299828 -0.111946E-04  0.155E-03    1.03       4.1  T
   9   -403.1299836 -0.784725E-06  0.832E-04    1.03       7.6  T
  10   -403.1299835  0.778056E-07  0.808E-04    1.03       7.9  T
     SCC iter.                  ...        0 min,  5.056 sec
     gradient                   ...        0 min,  0.292 sec
 * total energy  :  -396.5750410 Eh     change       -0.2117616E-03 Eh
   gradient norm :     0.0043138 Eh/α   predicted    -0.1487300E-03 ( -29.77%)
   displ. norm   :     0.4693157 α      lambda       -0.2851188E-03
   maximum displ.:     0.2422330 α      in ANC's #6, #16, #14, ...

........................................................................
.............................. CYCLE   17 ..............................
........................................................................

 iter      E             dE          RMSdq      gap      omega  full diag
   1   -403.1297988 -0.403130E+03  0.376E-02    1.03       0.0  T
   2   -403.1125036  0.172952E-01  0.185E-01    0.99       1.0  T
   3   -403.1284223 -0.159188E-01  0.558E-02    1.03       1.0  T
   4   -403.0912047  0.372176E-01  0.251E-01    0.98       1.0  T
   5   -403.1296603 -0.384556E-01  0.204E-02    1.03       1.0  T
   6   -403.1265820  0.307828E-02  0.779E-02    1.02       1.0  T
   7   -403.1298510 -0.326906E-02  0.718E-03    1.03       1.0  T
   8   -403.1298776 -0.265089E-04  0.208E-03    1.03       3.0  T
   9   -403.1298791 -0.152223E-05  0.120E-03    1.03       5.3  T
  10   -403.1298785  0.621381E-06  0.147E-03    1.03       4.3  T
  11   -403.1298797 -0.127230E-05  0.250E-04    1.03      25.4  T
  12   -403.1298796  0.165343E-06  0.555E-04    1.03      11.4  T
  13   -403.1298797 -0.165010E-06  0.208E-04    1.03      30.5  T
     SCC iter.                  ...        0 min,  3.179 sec
     gradient                   ...        0 min,  0.288 sec
 * total energy  :  -396.5752731 Eh     change       -0.2321283E-03 Eh
   gradient norm :     0.0049021 Eh/α   predicted    -0.1739637E-03 ( -25.06%)
   displ. norm   :     0.4715313 α      lambda       -0.2480181E-03
   maximum displ.:     0.2499133 α      in ANC's #6, #16, #14, ...

........................................................................
.............................. CYCLE   18 ..............................
........................................................................

 iter      E             dE          RMSdq      gap      omega  full diag
   1   -403.1285164 -0.403129E+03  0.389E-02    1.03       0.0  T
   2   -403.1040580  0.244584E-01  0.215E-01    0.98       1.0  T
   3   -403.1272299 -0.231720E-01  0.523E-02    1.02       1.0  T
   4   -403.0942152  0.330148E-01  0.243E-01    0.98       1.0  T
   5   -403.1283040 -0.340888E-01  0.240E-02    1.03       1.0  T
   6   -403.1262240  0.207993E-02  0.665E-02    1.02       1.0  T
   7   -403.1286091 -0.238506E-02  0.800E-03    1.02       1.0  T
   8   -403.1286414 -0.323219E-04  0.331E-03    1.03       1.9  T
   9   -403.1286472 -0.574543E-05  0.106E-03    1.03       6.0  T
  10   -403.1286446  0.257135E-05  0.225E-03    1.03       2.8  T
  11   -403.1286477 -0.312961E-05  0.195E-04    1.03      32.5  T
  12   -403.1286475  0.214927E-06  0.599E-04    1.03      10.6  T
  13   -403.1286477 -0.221332E-06  0.103E-04    1.03      61.8  T
     SCC iter.                  ...        0 min,  2.421 sec
     gradient                   ...        0 min,  0.303 sec
 * total energy  :  -396.5754739 Eh     change       -0.2007790E-03 Eh
   gradient norm :     0.0046196 Eh/α   predicted    -0.1515818E-03 ( -24.50%)
   displ. norm   :     0.4502588 α      lambda       -0.2150762E-03
   maximum displ.:     0.2443712 α      in ANC's #6, #16, #14, ...

........................................................................
.............................. CYCLE   19 ..............................
........................................................................

 iter      E             dE          RMSdq      gap      omega  full diag
   1   -403.1275823 -0.403128E+03  0.353E-02    1.03       0.0  T
   2   -403.1068932  0.206891E-01  0.195E-01    0.99       1.0  T
   3   -403.1260798 -0.191866E-01  0.540E-02    1.02       1.0  T
   4   -403.1022359  0.238439E-01  0.214E-01    0.99       1.0  T
   5   -403.1274212 -0.251853E-01  0.219E-02    1.03       1.0  T
   6   -403.1246222  0.279897E-02  0.733E-02    1.02       1.0  T
   7   -403.1276571 -0.303489E-02  0.590E-03    1.03       1.1  T
   8   -403.1276750 -0.179327E-04  0.222E-03    1.03       2.9  T
   9   -403.1276772 -0.214904E-05  0.955E-04    1.03       6.6  T
  10   -403.1276764  0.760155E-06  0.145E-03    1.03       4.4  T
  11   -403.1276776 -0.120852E-05  0.236E-04    1.03      26.9  T
  12   -403.1276776  0.540192E-07  0.364E-04    1.03      17.4  T
  13   -403.1276776 -0.788884E-07  0.740E-05    1.03      85.8  T
     SCC iter.                  ...        0 min,  2.254 sec
     gradient                   ...        0 min,  0.299 sec
 * total energy  :  -396.5756539 Eh     change       -0.1800538E-03 Eh
   gradient norm :     0.0036128 Eh/α   predicted    -0.1293400E-03 ( -28.17%)
   displ. norm   :     0.4702543 α      lambda       -0.2294964E-03
   maximum displ.:     0.2604437 α      in ANC's #6, #16, #14, ...

........................................................................
.............................. CYCLE   20 ..............................
........................................................................

 iter      E             dE          RMSdq      gap      omega  full diag
   1   -403.1273489 -0.403127E+03  0.345E-02    1.03       0.0  T
   2   -403.1068285  0.205204E-01  0.189E-01    1.01       1.0  T
   3   -403.1255581 -0.187296E-01  0.578E-02    1.02       1.0  T
   4   -403.1076280  0.179301E-01  0.195E-01    1.00       1.0  T
   5   -403.1271252 -0.194971E-01  0.241E-02    1.03       1.0  T
   6   -403.1247068  0.241836E-02  0.694E-02    1.03       1.0  T
   7   -403.1274168 -0.271000E-02  0.509E-03    1.03       1.2  T
   8   -403.1274296 -0.128044E-04  0.189E-03    1.03       3.4  T
   9   -403.1274310 -0.137015E-05  0.905E-04    1.03       7.0  T
  10   -403.1274306  0.353502E-06  0.117E-03    1.03       5.4  T
  11   -403.1274314 -0.740998E-06  0.208E-04    1.03      30.5  T
  12   -403.1274313  0.495139E-07  0.347E-04    1.03      18.3  T
     SCC iter.                  ...        0 min,  2.007 sec
     gradient                   ...        0 min,  0.312 sec
 * total energy  :  -396.5758506 Eh     change       -0.1966425E-03 Eh
   gradient norm :     0.0030116 Eh/α   predicted    -0.1401283E-03 ( -28.74%)
   displ. norm   :     0.5283906 α      lambda       -0.2675480E-03
   maximum displ.:     0.2968186 α      in ANC's #6, #16, #14, ...
 * RMSD in coord.:     0.5738459 α      energy gain  -0.6758454E-01 Eh

generating ANC from model Hessian ...
Using Lindh-Hessian (1995)
 Shifting diagonal of input Hessian by    1.0028159586534961E-002
 Lowest  eigenvalues of input Hessian
    0.010000    0.010018    0.000000    0.000000    0.000000    0.000000
    0.000000    0.000000    0.010031    0.010043    0.010063    0.010088
    0.010093    0.010104    0.010116    0.010122    0.010131    0.010150
 Highest eigenvalues
    2.303056    2.307828    2.495423    2.495757    2.495825    2.503016


........................................................................
.............................. CYCLE   21 ..............................
........................................................................

 iter      E             dE          RMSdq      gap      omega  full diag
   1   -403.1276358 -0.403128E+03  0.361E-02    1.03       0.0  T
   2   -403.1030799  0.245559E-01  0.201E-01    1.02       1.0  T
   3   -403.1258173 -0.227374E-01  0.592E-02    1.03       1.0  T
   4   -403.1037532  0.220642E-01  0.220E-01    1.01       1.0  T
   5   -403.1275109 -0.237577E-01  0.200E-02    1.04       1.0  T
   6   -403.1245925  0.291847E-02  0.745E-02    1.03       1.0  T
   7   -403.1277054 -0.311299E-02  0.482E-03    1.03       1.3  T
   8   -403.1277168 -0.113135E-04  0.157E-03    1.04       4.0  T
   9   -403.1277175 -0.764490E-06  0.868E-04    1.03       7.3  T
  10   -403.1277175  0.439908E-07  0.850E-04    1.03       7.5  T
     SCC iter.                  ...        0 min,  1.552 sec
     gradient                   ...        0 min,  0.288 sec
 * total energy  :  -396.5760803 Eh     change       -0.2297222E-03 Eh
   gradient norm :     0.0041784 Eh/α   predicted     0.0000000E+00 (-100.00%)
   displ. norm   :     0.0734636 α      lambda       -0.9143122E-04
   maximum displ.:     0.0275563 α      in ANC's #4, #8, #62, ...

........................................................................
.............................. CYCLE   22 ..............................
........................................................................

 iter      E             dE          RMSdq      gap      omega  full diag
   1   -403.1290866 -0.403129E+03  0.114E-02    1.03       0.0  T
   2   -403.1170067  0.120799E-01  0.156E-01    1.02       1.0  T
   3   -403.1290860 -0.120794E-01  0.910E-03    1.03       1.0  T
   4   -403.1272228  0.186326E-02  0.553E-02    1.03       1.0  T
   5   -403.1291216 -0.189884E-02  0.342E-03    1.03       1.9  T
   6   -403.1287006  0.420969E-03  0.278E-02    1.03       1.0  T
   7   -403.1291264 -0.425739E-03  0.115E-03    1.03       5.5  T
   8   -403.1291268 -0.415963E-06  0.532E-04    1.03      11.9  T
   9   -403.1291269 -0.683970E-07  0.316E-04    1.03      20.1  T
     SCC iter.                  ...        0 min,  1.437 sec
     gradient                   ...        0 min,  0.280 sec
 * total energy  :  -396.5761640 Eh     change       -0.8371237E-04 Eh
   gradient norm :     0.0020655 Eh/α   predicted    -0.4790185E-04 ( -42.78%)
   displ. norm   :     0.3079280 α      lambda       -0.2928023E-03
   maximum displ.:     0.1184105 α      in ANC's #4, #8, #18, ...

........................................................................
.............................. CYCLE   23 ..............................
........................................................................

 iter      E             dE          RMSdq      gap      omega  full diag
   1   -403.1308220 -0.403131E+03  0.377E-02    1.03       0.0  T
   2   -403.0607298  0.700922E-01  0.379E-01    0.97       1.0  T
   3   -403.1309211 -0.701913E-01  0.273E-02    1.03       1.0  T
   4   -403.1150371  0.158840E-01  0.170E-01    1.01       1.0  T
   5   -403.1292173 -0.141802E-01  0.568E-02    1.02       1.0  T
   6   -403.1305775 -0.136020E-02  0.325E-02    1.03       1.0  T
   7   -403.1312046 -0.627116E-03  0.441E-03    1.03       1.4  T
   8   -403.1312134 -0.875202E-05  0.116E-03    1.03       5.5  T
   9   -403.1312133  0.833009E-07  0.110E-03    1.03       5.8  T
  10   -403.1312135 -0.245032E-06  0.714E-04    1.03       8.9  T
  11   -403.1312137 -0.132217E-06  0.427E-04    1.03      14.9  T
     SCC iter.                  ...        0 min,  2.376 sec
     gradient                   ...        0 min,  0.310 sec
 * total energy  :  -396.5763652 Eh     change       -0.2011657E-03 Eh
   gradient norm :     0.0041445 Eh/α   predicted    -0.1602866E-03 ( -20.32%)
   displ. norm   :     0.2692310 α      lambda       -0.1455450E-03
   maximum displ.:     0.1134538 α      in ANC's #4, #8, #18, ...

........................................................................
.............................. CYCLE   24 ..............................
........................................................................

 iter      E             dE          RMSdq      gap      omega  full diag
   1   -403.1306190 -0.403131E+03  0.315E-02    1.03       0.0  T
   2   -403.0699594  0.606597E-01  0.352E-01    0.99       1.0  T
   3   -403.1307773 -0.608179E-01  0.196E-02    1.03       1.0  T
   4   -403.1197682  0.110091E-01  0.142E-01    1.01       1.0  T
   5   -403.1309031 -0.111349E-01  0.614E-03    1.03       1.0  T
   6   -403.1306389  0.264229E-03  0.211E-02    1.03       1.0  T
   7   -403.1308643 -0.225354E-03  0.931E-03    1.03       1.0  T
   8   -403.1309174 -0.531639E-04  0.930E-04    1.03       6.8  T
   9   -403.1309176 -0.125904E-06  0.750E-04    1.03       8.5  T
  10   -403.1309178 -0.223859E-06  0.270E-04    1.03      23.5  T
     SCC iter.                  ...        0 min,  3.256 sec
     gradient                   ...        0 min,  0.334 sec
 * total energy  :  -396.5764800 Eh     change       -0.1148009E-03 Eh
   gradient norm :     0.0051896 Eh/α   predicted    -0.7834063E-04 ( -31.76%)
   displ. norm   :     0.3399013 α      lambda       -0.1706577E-03
   maximum displ.:     0.1520451 α      in ANC's #4, #8, #18, ...

........................................................................
.............................. CYCLE   25 ..............................
........................................................................

 iter      E             dE          RMSdq      gap      omega  full diag
   1   -403.1293411 -0.403129E+03  0.344E-02    1.03       0.0  T
   2   -403.0651927  0.641484E-01  0.362E-01    0.98       1.0  T
   3   -403.1294253 -0.642326E-01  0.247E-02    1.03       1.0  T
   4   -403.1147646  0.146607E-01  0.161E-01    1.01       1.0  T
   5   -403.1272803 -0.125156E-01  0.626E-02    1.03       1.0  T
   6   -403.1293101 -0.202984E-02  0.245E-02    1.03       1.0  T
   7   -403.1296626 -0.352516E-03  0.402E-03    1.03       1.6  T
   8   -403.1296703 -0.764170E-05  0.112E-03    1.03       5.7  T
   9   -403.1296703 -0.539613E-07  0.981E-04    1.03       6.5  T
  10   -403.1296706 -0.314866E-06  0.465E-04    1.03      13.6  T
     SCC iter.                  ...        0 min,  3.476 sec
     gradient                   ...        0 min,  0.303 sec
 * total energy  :  -396.5766189 Eh     change       -0.1389081E-03 Eh
   gradient norm :     0.0040508 Eh/α   predicted    -0.9518820E-04 ( -31.47%)
   displ. norm   :     0.4085749 α      lambda       -0.2007492E-03
   maximum displ.:     0.1917801 α      in ANC's #4, #8, #18, ...

........................................................................
.............................. CYCLE   26 ..............................
........................................................................

 iter      E             dE          RMSdq      gap      omega  full diag
   1   -403.1279872 -0.403128E+03  0.345E-02    1.03       0.0  T
   2   -403.0709415  0.570456E-01  0.339E-01    0.98       1.0  T
   3   -403.1279583 -0.570168E-01  0.277E-02    1.03       1.0  T
   4   -403.1034923  0.244660E-01  0.201E-01    1.01       1.0  T
   5   -403.1279986 -0.245063E-01  0.223E-02    1.03       1.0  T
   6   -403.1263247  0.167386E-02  0.589E-02    1.03       1.0  T
   7   -403.1282671 -0.194236E-02  0.345E-03    1.04       1.8  T
   8   -403.1282724 -0.533775E-05  0.123E-03    1.04       5.2  T
   9   -403.1282723  0.125553E-06  0.114E-03    1.04       5.6  T
  10   -403.1282727 -0.437275E-06  0.525E-04    1.04      12.1  T
  11   -403.1282728 -0.308786E-07  0.420E-04    1.04      15.1  T
     SCC iter.                  ...        0 min,  5.139 sec
     gradient                   ...        0 min,  0.342 sec
 * total energy  :  -396.5767836 Eh     change       -0.1647564E-03 Eh
   gradient norm :     0.0027256 Eh/α   predicted    -0.1171311E-03 ( -28.91%)
   displ. norm   :     0.4558693 α      lambda       -0.2228283E-03
   maximum displ.:     0.2207144 α      in ANC's #4, #8, #15, ...

........................................................................
.............................. CYCLE   27 ..............................
........................................................................

 iter      E             dE          RMSdq      gap      omega  full diag
   1   -403.1274711 -0.403127E+03  0.310E-02    1.04       0.0  T
   2   -403.0881606  0.393105E-01  0.278E-01    1.00       1.0  T
   3   -403.1274287 -0.392682E-01  0.253E-02    1.04       1.0  T
   4   -403.1169083  0.105204E-01  0.137E-01    1.02       1.0  T
   5   -403.1274943 -0.105859E-01  0.157E-02    1.04       1.0  T
   6   -403.1246541  0.284013E-02  0.709E-02    1.03       1.0  T
   7   -403.1276403 -0.298614E-02  0.243E-03    1.04       2.6  T
   8   -403.1276422 -0.194682E-05  0.121E-03    1.04       5.2  T
   9   -403.1276425 -0.233169E-06  0.817E-04    1.04       7.8  T
  10   -403.1276425 -0.381268E-07  0.558E-04    1.04      11.4  T
     SCC iter.                  ...        0 min,  2.546 sec
     gradient                   ...        0 min,  0.284 sec
 * total energy  :  -396.5769716 Eh     change       -0.1879999E-03 Eh
   gradient norm :     0.0042481 Eh/α   predicted    -0.1346083E-03 ( -28.40%)
   displ. norm   :     0.5141191 α      lambda       -0.2618149E-03
   maximum displ.:     0.2526954 α      in ANC's #4, #8, #15, ...

........................................................................
.............................. CYCLE   28 ..............................
........................................................................

 iter      E             dE          RMSdq      gap      omega  full diag
   1   -403.1281031 -0.403128E+03  0.276E-02    1.04       0.0  T
   2   -403.1126455  0.154576E-01  0.173E-01    1.03       1.0  T
   3   -403.1273845 -0.147390E-01  0.399E-02    1.04       1.0  T
   4   -403.1046288  0.227557E-01  0.196E-01    1.03       1.0  T
   5   -403.1276253 -0.229965E-01  0.315E-02    1.04       1.0  T
   6   -403.1276514 -0.260498E-04  0.301E-02    1.04       1.0  T
   7   -403.1281552 -0.503812E-03  0.215E-03    1.05       2.9  T
   8   -403.1281563 -0.117592E-05  0.132E-03    1.04       4.8  T
   9   -403.1281568 -0.411213E-06  0.793E-04    1.05       8.0  T
  10   -403.1281567  0.100427E-06  0.744E-04    1.05       8.5  T
     SCC iter.                  ...        0 min,  4.068 sec
     gradient                   ...        0 min,  0.301 sec
 * total energy  :  -396.5771967 Eh     change       -0.2250607E-03 Eh
   gradient norm :     0.0058731 Eh/α   predicted    -0.1655091E-03 ( -26.46%)
   displ. norm   :     0.5824548 α      lambda       -0.2969830E-03
   maximum displ.:     0.2897400 α      in ANC's #4, #8, #1, ...

........................................................................
.............................. CYCLE   29 ..............................
........................................................................

 iter      E             dE          RMSdq      gap      omega  full diag
   1   -403.1292759 -0.403129E+03  0.293E-02    1.05       0.0  T
   2   -403.1099850  0.192908E-01  0.197E-01    1.03       1.0  T
   3   -403.1290166 -0.190316E-01  0.301E-02    1.04       1.0  T
   4   -403.1263737  0.264285E-02  0.687E-02    1.04       1.0  T
   5   -403.1290736 -0.269985E-02  0.208E-02    1.05       1.0  T
   6   -403.1291134 -0.397619E-04  0.206E-02    1.04       1.0  T
   7   -403.1293309 -0.217518E-03  0.518E-03    1.05       1.2  T
   8   -403.1293448 -0.139102E-04  0.978E-04    1.05       6.5  T
   9   -403.1293449 -0.705681E-07  0.642E-04    1.05       9.9  T
  10   -403.1293449 -0.297445E-07  0.364E-04    1.05      17.5  T
     SCC iter.                  ...        0 min,  5.600 sec
     gradient                   ...        0 min,  0.315 sec
 * total energy  :  -396.5774551 Eh     change       -0.2583783E-03 Eh
   gradient norm :     0.0058534 Eh/α   predicted    -0.1988703E-03 ( -23.03%)
   displ. norm   :     0.6321370 α      lambda       -0.3127160E-03
   maximum displ.:     0.3198579 α      in ANC's #4, #8, #1, ...

........................................................................
.............................. CYCLE   30 ..............................
........................................................................

 iter      E             dE          RMSdq      gap      omega  full diag
   1   -403.1306716 -0.403131E+03  0.297E-02    1.04       0.0  T
   2   -403.1076763  0.229953E-01  0.215E-01    1.03       1.0  T
   3   -403.1305449 -0.228687E-01  0.256E-02    1.04       1.0  T
   4   -403.1231430  0.740197E-02  0.110E-01    1.04       1.0  T
   5   -403.1307188 -0.757587E-02  0.835E-03    1.05       1.0  T
   6   -403.1298712  0.847642E-03  0.400E-02    1.04       1.0  T
   7   -403.1307474 -0.876222E-03  0.386E-03    1.05       1.6  T
   8   -403.1307549 -0.748964E-05  0.106E-03    1.05       6.0  T
   9   -403.1307550 -0.121161E-06  0.707E-04    1.05       9.0  T
  10   -403.1307550  0.566486E-07  0.546E-04    1.05      11.6  T
     SCC iter.                  ...        0 min,  5.494 sec
     gradient                   ...        0 min,  0.297 sec
 * total energy  :  -396.5777303 Eh     change       -0.2752316E-03 Eh
   gradient norm :     0.0043157 Eh/α   predicted    -0.2188384E-03 ( -20.49%)
   displ. norm   :     0.6667329 α      lambda       -0.3233447E-03
   maximum displ.:     0.3430716 α      in ANC's #4, #8, #1, ...

........................................................................
.............................. CYCLE   31 ..............................
........................................................................

 iter      E             dE          RMSdq      gap      omega  full diag
   1   -403.1320282 -0.403132E+03  0.308E-02    1.04       0.0  T
   2   -403.0957961  0.362320E-01  0.271E-01    1.01       1.0  T
   3   -403.1320836 -0.362874E-01  0.199E-02    1.04       1.0  T
   4   -403.1130959  0.189876E-01  0.187E-01    1.02       1.0  T
   5   -403.1321418 -0.190459E-01  0.802E-03    1.04       1.0  T
   6   -403.1318407  0.301125E-03  0.229E-02    1.04       1.0  T
   7   -403.1321442 -0.303500E-03  0.716E-03    1.04       1.0  T
   8   -403.1321731 -0.288993E-04  0.139E-03    1.04       4.6  T
   9   -403.1321736 -0.471928E-06  0.908E-04    1.04       7.0  T
  10   -403.1321738 -0.251839E-06  0.376E-04    1.04      16.9  T
     SCC iter.                  ...        0 min,  5.002 sec
     gradient                   ...        0 min,  0.320 sec
 * total energy  :  -396.5780217 Eh     change       -0.2914350E-03 Eh
   gradient norm :     0.0029959 Eh/α   predicted    -0.2335499E-03 ( -19.86%)
   displ. norm   :     0.7025810 α      lambda       -0.3503305E-03
   maximum displ.:     0.3658524 α      in ANC's #4, #8, #1, ...

........................................................................
.............................. CYCLE   32 ..............................
........................................................................

 iter      E             dE          RMSdq      gap      omega  full diag
   1   -403.1332458 -0.403133E+03  0.327E-02    1.04       0.0  T
   2   -403.0861876  0.470582E-01  0.310E-01    0.99       1.0  T
   3   -403.1332004 -0.470128E-01  0.264E-02    1.03       1.0  T
   4   -403.1185207  0.146798E-01  0.166E-01    1.02       1.0  T
   5   -403.1334528 -0.149321E-01  0.549E-03    1.04       1.2  T
   6   -403.1330929  0.359872E-03  0.242E-02    1.04       1.0  T
   7   -403.1334189 -0.326007E-03  0.880E-03    1.04       1.0  T
   8   -403.1334630 -0.441036E-04  0.163E-03    1.04       3.9  T
   9   -403.1334640 -0.100285E-05  0.941E-04    1.04       6.7  T
  10   -403.1334642 -0.236521E-06  0.555E-04    1.04      11.4  T
  11   -403.1334644 -0.120422E-06  0.264E-04    1.04      24.1  T
     SCC iter.                  ...        0 min,  2.727 sec
     gradient                   ...        0 min,  0.279 sec
 * total energy  :  -396.5783441 Eh     change       -0.3223445E-03 Eh
   gradient norm :     0.0041262 Eh/α   predicted    -0.2616316E-03 ( -18.83%)
   displ. norm   :     0.7424159 α      lambda       -0.3919829E-03
   maximum displ.:     0.3898144 α      in ANC's #4, #8, #1, ...

........................................................................
.............................. CYCLE   33 ..............................
........................................................................

 iter      E             dE          RMSdq      gap      omega  full diag
   1   -403.1340959 -0.403134E+03  0.338E-02    1.03       0.0  T
   2   -403.0861330  0.479629E-01  0.313E-01    0.99       1.0  T
   3   -403.1339216 -0.477886E-01  0.312E-02    1.03       1.0  T
   4   -403.1214573  0.124643E-01  0.154E-01    1.02       1.0  T
   5   -403.1340379 -0.125806E-01  0.216E-02    1.04       1.0  T
   6   -403.1315246  0.251332E-02  0.668E-02    1.03       1.0  T
   7   -403.1343190 -0.279439E-02  0.502E-03    1.03       1.3  T
   8   -403.1343289 -0.995011E-05  0.205E-03    1.03       3.1  T
   9   -403.1343307 -0.180663E-05  0.107E-03    1.03       5.9  T
  10   -403.1343310 -0.324398E-06  0.653E-04    1.03       9.7  T
  11   -403.1343312 -0.165488E-06  0.303E-04    1.03      21.0  T
     SCC iter.                  ...        0 min,  1.834 sec
     gradient                   ...        0 min,  0.279 sec
 * total energy  :  -396.5787072 Eh     change       -0.3630619E-03 Eh
   gradient norm :     0.0057811 Eh/α   predicted    -0.3040198E-03 ( -16.26%)
   displ. norm   :     0.7730094 α      lambda       -0.4238929E-03
   maximum displ.:     0.4096381 α      in ANC's #4, #8, #1, ...

........................................................................
.............................. CYCLE   34 ..............................
........................................................................

 iter      E             dE          RMSdq      gap      omega  full diag
   1   -403.1343104 -0.403134E+03  0.328E-02    1.03       0.0  T
   2   -403.0993099  0.350005E-01  0.265E-01    1.00       1.0  T
   3   -403.1342766 -0.349667E-01  0.243E-02    1.03       1.0  T
   4   -403.1057054  0.285712E-01  0.224E-01    1.01       1.0  T
   5   -403.1334517 -0.277463E-01  0.420E-02    1.04       1.0  T
   6   -403.1327114  0.740330E-03  0.537E-02    1.03       1.0  T
   7   -403.1344675 -0.175606E-02  0.314E-03    1.03       2.0  T
   8   -403.1344685 -0.104677E-05  0.249E-03    1.03       2.6  T
   9   -403.1344715 -0.298504E-05  0.918E-04    1.03       6.9  T
  10   -403.1344718 -0.292636E-06  0.323E-04    1.03      19.7  T
  11   -403.1344718  0.521987E-08  0.280E-04    1.03      22.7  T
     SCC iter.                  ...        0 min,  2.232 sec
     gradient                   ...        0 min,  0.318 sec
 * total energy  :  -396.5790975 Eh     change       -0.3903470E-03 Eh
   gradient norm :     0.0060438 Eh/α   predicted    -0.3385956E-03 ( -13.26%)
   displ. norm   :     0.7874106 α      lambda       -0.4238052E-03
   maximum displ.:     0.4229868 α      in ANC's #4, #8, #1, ...

........................................................................
.............................. CYCLE   35 ..............................
........................................................................

 iter      E             dE          RMSdq      gap      omega  full diag
   1   -403.1338668 -0.403134E+03  0.312E-02    1.03       0.0  T
   2   -403.1066488  0.272179E-01  0.220E-01    1.00       1.0  T
   3   -403.1329070 -0.262581E-01  0.440E-02    1.03       1.0  T
   4   -403.1208599  0.120471E-01  0.153E-01    1.02       1.0  T
   5   -403.1324203 -0.115604E-01  0.537E-02    1.03       1.0  T
   6   -403.1329995 -0.579237E-03  0.412E-02    1.04       1.0  T
   7   -403.1339425 -0.942947E-03  0.578E-03    1.03       1.1  T
   8   -403.1339573 -0.148812E-04  0.213E-03    1.03       3.0  T
   9   -403.1339593 -0.196124E-05  0.102E-03    1.03       6.2  T
  10   -403.1339594 -0.860761E-07  0.778E-04    1.03       8.2  T
  11   -403.1339597 -0.285437E-06  0.303E-04    1.03      20.9  T
     SCC iter.                  ...        0 min,  2.423 sec
     gradient                   ...        0 min,  0.286 sec
 * total energy  :  -396.5794856 Eh     change       -0.3880938E-03 Eh
   gradient norm :     0.0046416 Eh/α   predicted    -0.3432867E-03 ( -11.55%)
   displ. norm   :     0.7862383 α      lambda       -0.4001130E-03
   maximum displ.:     0.4286595 α      in ANC's #4, #8, #1, ...

........................................................................
.............................. CYCLE   36 ..............................
........................................................................

 iter      E             dE          RMSdq      gap      omega  full diag
   1   -403.1333762 -0.403133E+03  0.301E-02    1.04       0.0  T
   2   -403.1060987  0.272776E-01  0.211E-01    1.01       1.0  T
   3   -403.1328524 -0.267537E-01  0.346E-02    1.03       1.0  T
   4   -403.1175803  0.152722E-01  0.176E-01    1.01       1.0  T
   5   -403.1333414 -0.157612E-01  0.143E-02    1.04       1.0  T
   6   -403.1329390  0.402420E-03  0.305E-02    1.03       1.0  T
   7   -403.1334194 -0.480415E-03  0.782E-03    1.04       1.0  T
   8   -403.1334493 -0.298712E-04  0.195E-03    1.04       3.3  T
   9   -403.1334511 -0.180292E-05  0.778E-04    1.04       8.2  T
  10   -403.1334511  0.138290E-07  0.622E-04    1.04      10.2  T
  11   -403.1334512 -0.178864E-06  0.218E-04    1.04      29.2  T
     SCC iter.                  ...        0 min,  3.722 sec
     gradient                   ...        0 min,  0.301 sec
 * total energy  :  -396.5798556 Eh     change       -0.3700367E-03 Eh
   gradient norm :     0.0029066 Eh/α   predicted    -0.3237263E-03 ( -12.52%)
   displ. norm   :     0.7752253 α      lambda       -0.3848283E-03
   maximum displ.:     0.4270828 α      in ANC's #4, #8, #1, ...

........................................................................
.............................. CYCLE   37 ..............................
........................................................................

 iter      E             dE          RMSdq      gap      omega  full diag
   1   -403.1334214 -0.403133E+03  0.296E-02    1.04       0.0  T
   2   -403.1048322  0.285892E-01  0.214E-01    1.01       1.0  T
   3   -403.1329730 -0.281408E-01  0.330E-02    1.03       1.0  T
   4   -403.1229844  0.998861E-02  0.140E-01    1.02       1.0  T
   5   -403.1332619 -0.102775E-01  0.202E-02    1.04       1.0  T
   6   -403.1325576  0.704386E-03  0.434E-02    1.04       1.0  T
   7   -403.1334867 -0.929158E-03  0.563E-03    1.04       1.1  T
   8   -403.1335008 -0.140822E-04  0.178E-03    1.04       3.6  T
   9   -403.1335024 -0.165755E-05  0.579E-04    1.04      11.0  T
  10   -403.1335024  0.384185E-07  0.477E-04    1.04      13.3  T
  11   -403.1335025 -0.110936E-06  0.149E-04    1.04      42.7  T
     SCC iter.                  ...        0 min,  2.360 sec
     gradient                   ...        0 min,  0.309 sec
 * total energy  :  -396.5802187 Eh     change       -0.3631034E-03 Eh
   gradient norm :     0.0029945 Eh/α   predicted    -0.3080522E-03 ( -15.16%)
   displ. norm   :     0.7764875 α      lambda       -0.3988351E-03
   maximum displ.:     0.4310509 α      in ANC's #4, #8, #1, ...

........................................................................
.............................. CYCLE   38 ..............................
........................................................................

 iter      E             dE          RMSdq      gap      omega  full diag
   1   -403.1343747 -0.403134E+03  0.304E-02    1.04       0.0  T
   2   -403.1053378  0.290369E-01  0.217E-01    1.01       1.0  T
   3   -403.1336306 -0.282928E-01  0.397E-02    1.04       1.0  T
   4   -403.1165516  0.170790E-01  0.186E-01    1.00       1.0  T
   5   -403.1341380 -0.175865E-01  0.239E-02    1.04       1.0  T
   6   -403.1329089  0.122917E-02  0.538E-02    1.04       1.0  T
   7   -403.1344582 -0.154936E-02  0.332E-03    1.04       1.9  T
   8   -403.1344613 -0.306246E-05  0.208E-03    1.04       3.1  T
   9   -403.1344638 -0.247795E-05  0.400E-04    1.04      15.9  T
  10   -403.1344635  0.315010E-06  0.741E-04    1.04       8.6  T
  11   -403.1344638 -0.325663E-06  0.115E-04    1.04      55.3  T
     SCC iter.                  ...        0 min,  2.569 sec
     gradient                   ...        0 min,  0.318 sec
 * total energy  :  -396.5806002 Eh     change       -0.3814990E-03 Eh
   gradient norm :     0.0044041 Eh/α   predicted    -0.3196549E-03 ( -16.21%)
   displ. norm   :     0.7952743 α      lambda       -0.4345758E-03
   maximum displ.:     0.4444178 α      in ANC's #4, #8, #1, ...

........................................................................
.............................. CYCLE   39 ..............................
........................................................................

 iter      E             dE          RMSdq      gap      omega  full diag
   1   -403.1354738 -0.403135E+03  0.340E-02    1.04       0.0  T
   2   -403.1030974  0.323764E-01  0.240E-01    1.00       1.0  T
   3   -403.1346743 -0.315768E-01  0.421E-02    1.04       1.0  T
   4   -403.1153559  0.193184E-01  0.188E-01    1.02       1.0  T
   5   -403.1346968 -0.193409E-01  0.402E-02    1.04       1.0  T
   6   -403.1350526 -0.355817E-03  0.316E-02    1.04       1.0  T
   7   -403.1356119 -0.559225E-03  0.183E-03    1.04       3.5  T
   8   -403.1356101  0.176392E-05  0.227E-03    1.04       2.8  T
   9   -403.1356131 -0.304401E-05  0.444E-04    1.04      14.3  T
  10   -403.1356124  0.740186E-06  0.112E-03    1.04       5.7  T
  11   -403.1356132 -0.771046E-06  0.173E-04    1.04      36.8  T
  12   -403.1356131  0.532594E-07  0.329E-04    1.04      19.3  T
     SCC iter.                  ...        0 min,  3.102 sec
     gradient                   ...        0 min,  0.282 sec
 * total energy  :  -396.5810172 Eh     change       -0.4169282E-03 Eh
   gradient norm :     0.0052015 Eh/α   predicted    -0.3547166E-03 ( -14.92%)
   displ. norm   :     0.8156473 α      lambda       -0.4718420E-03
   maximum displ.:     0.4607856 α      in ANC's #4, #8, #1, ...

........................................................................
.............................. CYCLE   40 ..............................
........................................................................

 iter      E             dE          RMSdq      gap      omega  full diag
   1   -403.1374099 -0.403137E+03  0.399E-02    1.04       0.0  T
   2   -403.0853773  0.520326E-01  0.319E-01    0.98       1.0  T
   3   -403.1371158 -0.517385E-01  0.374E-02    1.04       1.0  T
   4   -403.1080342  0.290816E-01  0.222E-01    1.00       1.0  T
   5   -403.1370144 -0.289802E-01  0.345E-02    1.04       1.0  T
   6   -403.1371407 -0.126312E-03  0.317E-02    1.04       1.0  T
   7   -403.1376702 -0.529468E-03  0.571E-03    1.04       1.1  T
   8   -403.1376903 -0.201343E-04  0.131E-03    1.04       4.9  T
   9   -403.1376905 -0.172612E-06  0.109E-03    1.04       5.8  T
  10   -403.1376908 -0.268752E-06  0.838E-04    1.04       7.6  T
  11   -403.1376911 -0.348142E-06  0.370E-04    1.04      17.1  T
     SCC iter.                  ...        0 min,  3.747 sec
     gradient                   ...        0 min,  0.304 sec
 * total energy  :  -396.5814654 Eh     change       -0.4482788E-03 Eh
   gradient norm :     0.0052116 Eh/α   predicted    -0.3928758E-03 ( -12.36%)
   displ. norm   :     0.8354933 α      lambda       -0.4932500E-03
   maximum displ.:     0.4758746 α      in ANC's #4, #8, #1, ...

........................................................................
.............................. CYCLE   41 ..............................
........................................................................

 iter      E             dE          RMSdq      gap      omega  full diag
   1   -403.1368315 -0.403137E+03  0.487E-02    1.04       0.0  T
   2   -403.0489147  0.879168E-01  0.421E-01    0.96       1.0  T
   3   -403.1356675 -0.867528E-01  0.575E-02    1.04       1.0  T
   4   -403.1203183  0.153492E-01  0.169E-01    1.02       1.0  T
   5   -403.1301314 -0.981308E-02  0.113E-01    1.02       1.0  T
   6   -403.1372535 -0.712211E-02  0.182E-02    1.04       1.0  T
   7   -403.1374134 -0.159821E-03  0.562E-03    1.04       1.1  T
   8   -403.1374254 -0.120658E-04  0.340E-03    1.04       1.9  T
   9   -403.1374315 -0.603688E-05  0.101E-03    1.04       6.3  T
  10   -403.1374271  0.438869E-05  0.289E-03    1.04       2.2  T
  11   -403.1374318 -0.474772E-05  0.249E-04    1.04      25.5  T
  12   -403.1374318  0.322898E-07  0.320E-04    1.04      19.8  T
  13   -403.1374318 -0.171352E-07  0.267E-04    1.04      23.8  T
     SCC iter.                  ...        0 min,  3.458 sec
     gradient                   ...        0 min,  0.317 sec
 * total energy  :  -396.5819243 Eh     change       -0.4589068E-03 Eh
   gradient norm :     0.0037150 Eh/α   predicted    -0.4187828E-03 (  -8.74%)
   displ. norm   :     0.8458883 α      lambda       -0.4890644E-03
   maximum displ.:     0.4882995 α      in ANC's #4, #8, #1, ...

........................................................................
.............................. CYCLE   42 ..............................
........................................................................

 iter      E             dE          RMSdq      gap      omega  full diag
   1   -403.1384650 -0.403138E+03  0.514E-02    1.03       0.0  T
   2   -403.0409127  0.975523E-01  0.444E-01    0.96       1.0  T
   3   -403.1387167 -0.978040E-01  0.354E-02    1.03       1.0  T
   4   -403.1120339  0.266828E-01  0.223E-01    0.99       1.0  T
   5   -403.1314908 -0.194569E-01  0.111E-01    1.03       1.0  T
   6   -403.1389802 -0.748937E-02  0.195E-02    1.04       1.0  T
   7   -403.1391750 -0.194862E-03  0.597E-03    1.04       1.1  T
   8   -403.1391862 -0.111515E-04  0.390E-03    1.04       1.6  T
   9   -403.1391937 -0.749680E-05  0.703E-04    1.04       9.0  T
  10   -403.1391893  0.441137E-05  0.298E-03    1.04       2.1  T
  11   -403.1391938 -0.447245E-05  0.407E-04    1.04      15.6  T
  12   -403.1391938 -0.210264E-09  0.400E-04    1.04      15.9  T
  13   -403.1391938 -0.212152E-07  0.347E-04    1.04      18.3  T
     SCC iter.                  ...        0 min,  3.907 sec
     gradient                   ...        0 min,  0.310 sec
 * total energy  :  -396.5823788 Eh     change       -0.4544671E-03 Eh
   gradient norm :     0.0031952 Eh/α   predicted    -0.4195071E-03 (  -7.69%)
   displ. norm   :     0.8460915 α      lambda       -0.4607382E-03
   maximum displ.:     0.4909181 α      in ANC's #4, #1, #8, ...
 * RMSD in coord.:     0.8279970 α      energy gain  -0.6528238E-02 Eh

generating ANC from model Hessian ...
Using Lindh-Hessian (1995)
 Shifting diagonal of input Hessian by    1.0020403728795127E-002
 Lowest  eigenvalues of input Hessian
    0.010000    0.010012    0.000000    0.000000    0.000000    0.000000
    0.000000    0.000000    0.010025    0.010034    0.010058    0.010076
    0.010084    0.010098    0.010117    0.010126    0.010138    0.010150
 Highest eigenvalues
    2.303488    2.306759    2.490990    2.493522    2.499060    2.504154


........................................................................
.............................. CYCLE   43 ..............................
........................................................................

 iter      E             dE          RMSdq      gap      omega  full diag
   1   -403.1376467 -0.403138E+03  0.499E-02    1.03       0.0  T
   2   -403.0404235  0.972232E-01  0.443E-01    0.96       1.0  T
   3   -403.1381104 -0.976868E-01  0.273E-02    1.03       1.0  T
   4   -403.0933541  0.447562E-01  0.270E-01    1.01       1.0  T
   5   -403.1381784 -0.448243E-01  0.184E-02    1.03       1.0  T
   6   -403.1342263  0.395212E-02  0.854E-02    1.03       1.0  T
   7   -403.1383272 -0.410086E-02  0.634E-03    1.03       1.0  T
   8   -403.1383430 -0.158146E-04  0.330E-03    1.04       1.9  T
   9   -403.1383480 -0.500884E-05  0.876E-04    1.03       7.2  T
  10   -403.1383467  0.128979E-05  0.178E-03    1.03       3.6  T
  11   -403.1383483 -0.161330E-05  0.164E-04    1.03      38.7  T
  12   -403.1383482  0.100656E-06  0.456E-04    1.03      13.9  T
  13   -403.1383483 -0.503168E-07  0.340E-04    1.03      18.7  T
     SCC iter.                  ...        0 min,  2.804 sec
     gradient                   ...        0 min,  0.417 sec
 * total energy  :  -396.5828169 Eh     change       -0.4380693E-03 Eh
   gradient norm :     0.0030083 Eh/α   predicted     0.0000000E+00 (-100.00%)
   displ. norm   :     0.0678272 α      lambda       -0.6635553E-04
   maximum displ.:     0.0342315 α      in ANC's #4, #17, #1, ...

........................................................................
.............................. CYCLE   44 ..............................
........................................................................

 iter      E             dE          RMSdq      gap      omega  full diag
   1   -403.1379656 -0.403138E+03  0.567E-03    1.04       0.0  T
   2   -403.1370260  0.939525E-03  0.396E-02    1.03       1.0  T
   3   -403.1379259 -0.899915E-03  0.872E-03    1.04       1.0  T
   4   -403.1368428  0.108313E-02  0.445E-02    1.03       1.0  T
   5   -403.1379665 -0.112370E-02  0.171E-03    1.04       3.7  T
   6   -403.1378948  0.716749E-04  0.120E-02    1.04       1.0  T
   7   -403.1379677 -0.728151E-04  0.636E-04    1.04      10.0  T
   8   -403.1379678 -0.170011E-06  0.208E-04    1.04      30.5  T
   9   -403.1379678 -0.511540E-08  0.143E-04    1.04      44.5  T
     SCC iter.                  ...        0 min,  3.684 sec
     gradient                   ...        0 min,  0.301 sec
[...]
    18   6 C       19   6 C                                       1.4088008
    16   6 C       20   6 C                                       1.3942272
    19   6 C       20   6 C                                       1.3695571
    17   6 C       21   6 C                                       1.4356115
    21   6 C       22   6 C                                       1.4146825
    22   6 C       23   6 C                                       1.4207505
    18   6 C       24   6 C                                       1.4238400
    23   6 C       24   6 C                                       1.3541262
    25   6 C       26   6 C                                       1.4019971
    22   6 C       27   6 C                                       1.4055505
    26   6 C       27   6 C                                       1.3702475
    21   6 C       28   6 C                                       1.3987411
    25   6 C       28   6 C                                       1.3783784
    29   6 C       31   7 N                                       1.3143797
    32   7 N       33   6 C                                       1.3838877
    33   6 C       34   7 N                                       1.3794398
    29   6 C       35   7 N                                       1.3147671
    33   6 C       36   8 O                                       1.2198603
    30   6 C       37   7 N                                       1.3145577
    38   7 N       39   6 C                                       1.3849322
    39   6 C       40   7 N                                       1.3856853
    30   6 C       41   7 N                                       1.3164042
    39   6 C       42   8 O                                       1.2175533
    12   6 C       43   7 N                                       1.3814578
    16   6 C       43   7 N                                       1.3786803
    44  14 Si      45   6 C                                       1.9072274
    45   6 C       46   6 C                                       1.5186017
    46   6 C       47   8 O                                       1.4049152
    44  14 Si      48   6 C                                       1.9064611
    44  14 Si      49   6 C                                       1.9107796
    44  14 Si      50   6 C                                       1.9148445 (max)
    43   7 N       51   6 C                                       1.4195409
    47   8 O       51   6 C                                       1.4075716
    32   7 N       52   6 C                                       1.3927047
    52   6 C       53   6 C                                       1.4007353
    53   6 C       54   6 C                                       1.3772369
    54   6 C       55   6 C                                       1.3864671
    55   6 C       56   6 C                                       1.3854647
    52   6 C       57   6 C                                       1.3976070
    56   6 C       57   6 C                                       1.3810164
    34   7 N       58   6 C                                       1.3976382
    58   6 C       59   6 C                                       1.3952039
    59   6 C       60   6 C                                       1.3817728
    60   6 C       61   6 C                                       1.3852897
    61   6 C       62   6 C                                       1.3867264
    58   6 C       63   6 C                                       1.3984510
    62   6 C       63   6 C                                       1.3783540
    40   7 N       64   6 C                                       1.3979545
    64   6 C       65   6 C                                       1.3952263
    65   6 C       66   6 C                                       1.3816056
    66   6 C       67   6 C                                       1.3842034
    67   6 C       68   6 C                                       1.3854274
    64   6 C       69   6 C                                       1.3994779
    68   6 C       69   6 C                                       1.3773960
    38   7 N       70   6 C                                       1.3966917
    70   6 C       71   6 C                                       1.3977910
    71   6 C       72   6 C                                       1.3788759
    72   6 C       73   6 C                                       1.3855961
    73   6 C       74   6 C                                       1.3857120
    70   6 C       75   6 C                                       1.3961782
    74   6 C       75   6 C                                       1.3809436
    63   6 C       76   1 H                                       1.0778864
    62   6 C       77   1 H                                       1.0809830
    61   6 C       78   1 H                                       1.0813796
    60   6 C       79   1 H                                       1.0820975
    59   6 C       80   1 H                                       1.0769071
    57   6 C       81   1 H                                       1.0761395
    56   6 C       82   1 H                                       1.0822824
    55   6 C       83   1 H                                       1.0817187
    54   6 C       84   1 H                                       1.0816359
    53   6 C       85   1 H                                       1.0762089
    49   6 C       86   1 H                                       1.0860313
    49   6 C       87   1 H                                       1.0861120
    49   6 C       88   1 H                                       1.0857289
    48   6 C       89   1 H                                       1.0857543
    48   6 C       90   1 H                                       1.0861746
    48   6 C       91   1 H                                       1.0850421
    50   6 C       92   1 H                                       1.0862137
    50   6 C       93   1 H                                       1.0862805
    50   6 C       94   1 H                                       1.0858246
    45   6 C       95   1 H                                       1.0903350
    45   6 C       96   1 H                                       1.0900120
    46   6 C       97   1 H                                       1.1022494
    46   6 C       98   1 H                                       1.1032778
    51   6 C       99   1 H                                       1.1072996
    51   6 C      100   1 H                                       1.1016346
    13   6 C      101   1 H                                       1.0814719
    14   6 C      102   1 H                                       1.0810079
     9   6 C      103   1 H                                       1.0817158
    10   6 C      104   1 H                                       1.0817881
    71   6 C      105   1 H                                       1.0767939
    72   6 C      106   1 H                                       1.0811854
    73   6 C      107   1 H                                       1.0815487
    74   6 C      108   1 H                                       1.0813127
    75   6 C      109   1 H                                       1.0761032
    65   6 C      110   1 H                                       1.0755847
    66   6 C      111   1 H                                       1.0812212
    67   6 C      112   1 H                                       1.0811708
    68   6 C      113   1 H                                       1.0815074
    69   6 C      114   1 H                                       1.0757200
    19   6 C      115   1 H                                       1.0808464
    20   6 C      116   1 H                                       1.0799711
     1   6 C      117   1 H                                       1.0819002
     2   6 C      118   1 H                                       1.0786589
     4   6 C      119   1 H                                       1.0752441
    28   6 C      120   1 H                                       1.0759183
    26   6 C      121   1 H                                       1.0788064
    27   6 C      122   1 H                                       1.0823422
    23   6 C      123   1 H                                       1.0816327
    24   6 C      124   1 H                                       1.0815523
   125   6 C      126   6 C                                       1.3698260
   126   6 C      127   6 C                                       1.4019776
   127   6 C      128   6 C                                       1.3787638
   128   6 C      129   6 C                                       1.3991558
   125   6 C      130   6 C                                       1.4054031
   129   6 C      130   6 C                                       1.4152400
   131   6 C      132   6 C                                       1.4150159
   132   6 C      133   6 C                                       1.4236502
   130   6 C      134   6 C                                       1.4206556
   133   6 C      134   6 C                                       1.3537728
   131   6 C      135   6 C                                       1.4204997
   135   6 C      136   6 C                                       1.4112720
   136   6 C      137   6 C                                       1.3938244
   132   6 C      138   6 C                                       1.4083844
   137   6 C      138   6 C                                       1.3688704
   139   6 C      140   6 C                                       1.4112399
   139   6 C      141   6 C                                       1.4203883
   141   6 C      142   6 C                                       1.4141780
   142   6 C      143   6 C                                       1.4082532
   140   6 C      144   6 C                                       1.3947844
   143   6 C      144   6 C                                       1.3693192
   141   6 C      145   6 C                                       1.4339991
   145   6 C      146   6 C                                       1.4146156
   146   6 C      147   6 C                                       1.4199710
   142   6 C      148   6 C                                       1.4233202
   147   6 C      148   6 C                                       1.3539510
   149   6 C      150   6 C                                       1.4022941
   146   6 C      151   6 C                                       1.4053102
   150   6 C      151   6 C                                       1.3692122
   145   6 C      152   6 C                                       1.3979783
   149   6 C      152   6 C                                       1.3782144
   153   6 C      155   7 N                                       1.3159842
   156   7 N      157   6 C                                       1.3848438
   157   6 C      158   7 N                                       1.3848984
   153   6 C      159   7 N                                       1.3141395
   157   6 C      160   8 O                                       1.2177766
   154   6 C      161   7 N                                       1.3151844
   162   7 N      163   6 C                                       1.3788201
   163   6 C      164   7 N                                       1.3849474
   154   6 C      165   7 N                                       1.3139443
   163   6 C      166   8 O                                       1.2197637
   136   6 C      167   7 N                                       1.3770831
   140   6 C      167   7 N                                       1.3789217
   168  14 Si     169   6 C                                       1.9080267
   169   6 C      170   6 C                                       1.5184963
   170   6 C      171   8 O                                       1.4055051
   168  14 Si     172   6 C                                       1.9098231
   168  14 Si     173   6 C                                       1.9094183
   168  14 Si     174   6 C                                       1.9113520
   167   7 N      175   6 C                                       1.4159106
   171   8 O      175   6 C                                       1.4119892
   156   7 N      176   6 C                                       1.4001888
   176   6 C      177   6 C                                       1.3999824
   177   6 C      178   6 C                                       1.3774360
   178   6 C      179   6 C                                       1.3853804
   179   6 C      180   6 C                                       1.3837614
   176   6 C      181   6 C                                       1.3950873
   180   6 C      181   6 C                                       1.3819662
   158   7 N      182   6 C                                       1.3972407
   182   6 C      183   6 C                                       1.3953419
   183   6 C      184   6 C                                       1.3811794
   184   6 C      185   6 C                                       1.3855701
   185   6 C      186   6 C                                       1.3855656
   182   6 C      187   6 C                                       1.3976964
   186   6 C      187   6 C                                       1.3787686
   164   7 N      188   6 C                                       1.3927986
   188   6 C      189   6 C                                       1.3973673
   189   6 C      190   6 C                                       1.3811433
   190   6 C      191   6 C                                       1.3853871
   191   6 C      192   6 C                                       1.3865354
   188   6 C      193   6 C                                       1.4006388
   192   6 C      193   6 C                                       1.3772171
   162   7 N      194   6 C                                       1.3987461
   194   6 C      195   6 C                                       1.3983768
   195   6 C      196   6 C                                       1.3783728
   196   6 C      197   6 C                                       1.3867371
   197   6 C      198   6 C                                       1.3852628
   194   6 C      199   6 C                                       1.3949111
   198   6 C      199   6 C                                       1.3820127
   187   6 C      200   1 H                                       1.0770634
   186   6 C      201   1 H                                       1.0811137
   185   6 C      202   1 H                                       1.0814961
   184   6 C      203   1 H                                       1.0814340
   183   6 C      204   1 H                                       1.0759747
   181   6 C      205   1 H                                       1.0754077
   180   6 C      206   1 H                                       1.0814761
   179   6 C      207   1 H                                       1.0809840
   178   6 C      208   1 H                                       1.0805345
   177   6 C      209   1 H                                       1.0760260
   173   6 C      210   1 H                                       1.0851999
   173   6 C      211   1 H                                       1.0861451
   173   6 C      212   1 H                                       1.0856958
   172   6 C      213   1 H                                       1.0853440
   172   6 C      214   1 H                                       1.0855445
   172   6 C      215   1 H                                       1.0853715
   174   6 C      216   1 H                                       1.0858744
   174   6 C      217   1 H                                       1.0859455
   174   6 C      218   1 H                                       1.0861344
   169   6 C      219   1 H                                       1.0897977
   169   6 C      220   1 H                                       1.0901650
   170   6 C      221   1 H                                       1.1033769
   170   6 C      222   1 H                                       1.1023082
   175   6 C      223   1 H                                       1.1029235
   175   6 C      224   1 H                                       1.1066496
   137   6 C      225   1 H                                       1.0785360
   138   6 C      226   1 H                                       1.0810383
   133   6 C      227   1 H                                       1.0814672
   134   6 C      228   1 H                                       1.0816116
   195   6 C      229   1 H                                       1.0776834
   196   6 C      230   1 H                                       1.0807929
   197   6 C      231   1 H                                       1.0813923
   198   6 C      232   1 H                                       1.0821099
   199   6 C      233   1 H                                       1.0769235
   189   6 C      234   1 H                                       1.0761970
   190   6 C      235   1 H                                       1.0822899
   191   6 C      236   1 H                                       1.0817181
   192   6 C      237   1 H                                       1.0814662
   193   6 C      238   1 H                                       1.0762340
   143   6 C      239   1 H                                       1.0810120
   144   6 C      240   1 H                                       1.0810013
Note: The following floating-point exceptions are signalling: IEEE_UNDERFLOW_FLAG
normal termination of xtb
   125   6 C      241   1 H                                       1.0823219
   126   6 C      242   1 H                                       1.0786524
   128   6 C      243   1 H                                       1.0759683
   152   6 C      244   1 H                                       1.0745621 (min)
   150   6 C      245   1 H                                       1.0788078
   151   6 C      246   1 H                                       1.0818541
   147   6 C      247   1 H                                       1.0816851
   148   6 C      248   1 H                                       1.0817622

 * 5 distinct bonds (by element types)

   Z      Z             #   av. dist./Å        max./Å        min./Å
   1 H    6 C          98     1.0832172     1.1072996     1.0745621
   6 C    6 C         113     1.3971824     1.5186017     1.3537728
   6 C    7 N          30     1.3704125     1.4195409     1.3139443
   6 C    8 O           8     1.3131169     1.4119892     1.2175533
   6 C   14 Si          8     1.9097416     1.9148445     1.9064611


optimized geometry written to: xtbopt.mol


           -------------------------------------------------
          | TOTAL ENERGY             -396.607347243593 Eh   |
          | GRADIENT NORM               0.000674171186 Eh/α |
          | HOMO-LUMO GAP               0.808537148513 eV   |
           -------------------------------------------------
########################################################################
[WARNING] Runtime exception occurred
-2- restart_readRestart: Multiplicity missmatch in restart file.
-1- restart_readRestart: Number of electron missmatch in restart file.
########################################################################

------------------------------------------------------------------------
 * finished run on 2024/11/14 at 14:44:26.624     
------------------------------------------------------------------------
 total:
 * wall-time:     0 d,  0 h, 13 min, 56.561 sec
 *  cpu-time:     0 d,  0 h, 51 min, 23.865 sec
 * ratio c/w:     3.686 speedup
 SCF:
 * wall-time:     0 d,  0 h,  0 min,  5.217 sec
 *  cpu-time:     0 d,  0 h,  0 min, 19.488 sec
 * ratio c/w:     3.735 speedup
 ANC optimizer:
 * wall-time:     0 d,  0 h, 13 min, 51.251 sec
 *  cpu-time:     0 d,  0 h, 51 min,  4.254 sec
 * ratio c/w:     3.686 speedup

