      -----------------------------------------------------------      
     |                   =====================                   |     
     |                           x T B                           |     
     |                   =====================                   |     
     |                         S. Grimme                         |     
     |          Mulliken Center for Theoretical Chemistry        |     
     |                    University of Bonn                     |     
      -----------------------------------------------------------      

   * xtb version 6.6.1 (8d0f1dd) compiled by 'runner@Mac-1690902418499.local' on 2023-08-01

   xtb is free software: you can redistribute it and/or modify it under
   the terms of the GNU Lesser General Public License as published by
   the Free Software Foundation, either version 3 of the License, or
   (at your option) any later version.
   
   xtb is distributed in the hope that it will be useful,
   but WITHOUT ANY WARRANTY; without even the implied warranty of
   MERCHANTABILITY or FITNESS FOR A PARTICULAR PURPOSE.  See the
   GNU Lesser General Public License for more details.
   
   Cite this work as:
   * C. Bannwarth, E. Caldeweyher, S. Ehlert, A. Hansen, P. Pracht,
     J. Seibert, S. Spicher, S. Grimme, WIREs Comput. Mol. Sci., 2020, 11,
     e01493. DOI: 10.1002/wcms.1493
   
   for GFN2-xTB:
   * C. Bannwarth, S. Ehlert and S. Grimme., J. Chem. Theory Comput., 2019,
     15, 1652-1671. DOI: 10.1021/acs.jctc.8b01176
   for GFN1-xTB:
   * S. Grimme, C. Bannwarth, P. Shushkov, J. Chem. Theory Comput., 2017,
     13, 1989-2009. DOI: 10.1021/acs.jctc.7b00118
   for GFN0-xTB:
   * P. Pracht, E. Caldeweyher, S. Ehlert, S. Grimme, ChemRxiv, 2019, preprint.
     DOI: 10.26434/chemrxiv.8326202.v1
   for GFN-FF:
   * S. Spicher and S. Grimme, Angew. Chem. Int. Ed., 2020, 59, 15665-15673.
     DOI: 10.1002/anie.202004239
   
   for ALPB and GBSA implicit solvation:
   * S. Ehlert, M. Stahn, S. Spicher, S. Grimme, J. Chem. Theory Comput.,
     2021, 17, 4250-4261. DOI: 10.1021/acs.jctc.1c00471
   
   for DFT-D4:
   * E. Caldeweyher, C. Bannwarth and S. Grimme, J. Chem. Phys., 2017,
     147, 034112. DOI: 10.1063/1.4993215
   * E. Caldeweyher, S. Ehlert, A. Hansen, H. Neugebauer, S. Spicher,
     C. Bannwarth and S. Grimme, J. Chem. Phys., 2019, 150, 154122.
     DOI: 10.1063/1.5090222
   * E. Caldeweyher, J.-M. Mewes, S. Ehlert and S. Grimme, Phys. Chem. Chem. Phys.
     2020, 22, 8499-8512. DOI: 10.1039/D0CP00502A
   
   for sTDA-xTB:
   * S. Grimme and C. Bannwarth, J. Chem. Phys., 2016, 145, 054103.
     DOI: 10.1063/1.4959605
   
   in the mass-spec context:
   * V. Asgeirsson, C. Bauer and S. Grimme, Chem. Sci., 2017, 8, 4879.
     DOI: 10.1039/c7sc00601b
   * J. Koopman and S. Grimme, ACS Omega 2019, 4, 12, 15120-15133.
     DOI: 10.1021/acsomega.9b02011
   
   for metadynamics refer to:
   * S. Grimme, J. Chem. Theory Comput., 2019, 155, 2847-2862
     DOI: 10.1021/acs.jctc.9b00143
   
   for SPH calculations refer to:
   * S. Spicher and S. Grimme, J. Chem. Theory Comput., 2021, 17, 1701-1714
     DOI: 10.1021/acs.jctc.0c01306
   
   with help from (in alphabetical order)
   P. Atkinson, C. Bannwarth, F. Bohle, G. Brandenburg, E. Caldeweyher
   M. Checinski, S. Dohm, S. Ehlert, S. Ehrlich, I. Gerasimov, C. Hölzer
   A. Katbashev, J. Koopman, C. Lavigne, S. Lehtola, F. März, M. Müller,
   F. Musil, H. Neugebauer, J. Pisarek, C. Plett, P. Pracht, F. Pultar,
   J. Seibert, P. Shushkov, S. Spicher, M. Stahn, M. Steiner, T. Strunk,
   J. Stückrath, T. Rose, and J. Unsleber
   
 * started run on 2024/11/14 at 14:17:20.409     

           -------------------------------------------------
          |                Calculation Setup                |
           -------------------------------------------------

          program call               : xtb Verdazyl3.mol --opt --gfn2 --chrg -1 --uhf 1 --tight
          coordinate file            : Verdazyl3.mol
          omp threads                :                     8

   ID    Z sym.   atoms
    1    6 C      1-30, 33, 39, 45, 46, 48-75
    2    7 N      31, 32, 34, 35, 37, 38, 40, 41, 43
    3    8 O      36, 42, 47
    4   14 Si     44
    5    1 H      76-124
########################################################################
[WARNING] Please study the warnings concerning your input carefully
-1- prog_main_parseArguments: Unknown option '--tight' provided
########################################################################

           -------------------------------------------------
          |                 G F N 2 - x T B                 |
           -------------------------------------------------

        Reference                      10.1021/acs.jctc.8b01176
      * Hamiltonian:
        H0-scaling (s, p, d)           1.850000    2.230000    2.230000
        zeta-weighting                 0.500000
      * Dispersion:
        s8                             2.700000
        a1                             0.520000
        a2                             5.000000
        s9                             5.000000
      * Repulsion:
        kExp                           1.500000    1.000000
        rExp                           1.000000
      * Coulomb:
        alpha                          2.000000
        third order                    shell-resolved
        anisotropic                    true
        a3                             3.000000
        a5                             4.000000
        cn-shift                       1.200000
        cn-exp                         4.000000
        max-rad                        5.000000

q/qsh data taken from xtbrestart
CAMM data taken from xtbrestart

          ...................................................
          :                      SETUP                      :
          :.................................................:
          :  # basis functions                 355          :
          :  # atomic orbitals                 354          :
          :  # shells                          200          :
          :  # electrons                       365          :
          :  max. iterations                   250          :
          :  Hamiltonian                  GFN2-xTB          :
          :  restarted?                       true          :
          :  GBSA solvation                  false          :
          :  PC potential                    false          :
          :  electronic temp.          300.0000000     K    :
          :  accuracy                    1.0000000          :
          :  -> integral cutoff          0.2500000E+02      :
          :  -> integral neglect         0.1000000E-07      :
          :  -> SCF convergence          0.1000000E-05 Eh   :
          :  -> wf. convergence          0.1000000E-03 e    :
          :  Broyden damping             0.4000000          :
          ...................................................

 iter      E             dE          RMSdq      gap      omega  full diag
   1   -201.0821493 -0.201082E+03  0.294E+00    1.41       0.0  T
   2   -200.6373676  0.444782E+00  0.194E+00    0.37       1.0  T
   3   -199.4951063  0.114226E+01  0.234E+00    0.20       1.0  T
   4   -200.9467578 -0.145165E+01  0.143E+00    1.02       1.0  T
   5   -200.7167128  0.230045E+00  0.132E+00    0.11       1.0  T
   6   -201.0419792 -0.325266E+00  0.114E+00    0.90       1.0  T
   7   -201.0489298 -0.695060E-02  0.995E-01    0.90       1.0  T
   8   -201.0595529 -0.106231E-01  0.871E-01    0.91       1.0  T
   9   -201.0565962  0.295670E-02  0.622E-01    0.52       1.0  T
  10   -201.0678771 -0.112809E-01  0.561E-01    0.71       1.0  T
  11   -201.0777196 -0.984249E-02  0.493E-01    0.68       1.0  T
  12   -201.1177684 -0.400488E-01  0.247E-01    0.57       1.0  T
  13   -201.1051627  0.126057E-01  0.280E-01    0.37       1.0  T
  14   -201.1173035 -0.121408E-01  0.173E-01    0.25       1.0  T
  15   -201.1208583 -0.355486E-02  0.989E-02    0.16       1.0  T
  16   -201.1224538 -0.159545E-02  0.769E-02    0.15       1.0  T
  17   -201.1232861 -0.832305E-03  0.449E-02    0.18       1.0  T
  18   -201.1224788  0.807232E-03  0.679E-02    0.15       1.0  T
  19   -201.1236672 -0.118832E-02  0.125E-02    0.16       1.0  T
  20   -201.1236636  0.356368E-05  0.106E-02    0.16       1.0  T
  21   -201.1236449  0.187260E-04  0.112E-02    0.17       1.0  T
  22   -201.1236774 -0.325578E-04  0.466E-03    0.17       1.9  T
  23   -201.1236749  0.252996E-05  0.446E-03    0.17       2.0  T
  24   -201.1236780 -0.310502E-05  0.204E-03    0.17       4.4  T
  25   -201.1236788 -0.783561E-06  0.774E-04    0.17      11.6  T
  26   -201.1236789 -0.116642E-06  0.285E-04    0.17      31.5  T

   *** convergence criteria satisfied after 26 iterations ***

         #    Occupation            Energy/Eh            Energy/eV
      -------------------------------------------------------------
         1        2.0000           -0.6788583             -18.4727
       ...           ...                  ...                  ...
       177        2.0000           -0.2869211              -7.8075
       178        2.0000           -0.2795124              -7.6059
       179        2.0000           -0.2793485              -7.6015
       180        2.0000           -0.2532932              -6.8925
       181        2.0000           -0.2521932              -6.8625
       182        1.4763           -0.2184394              -5.9440
       183        1.4701           -0.2184180              -5.9435 (HOMO)
       184        0.0536           -0.2122317              -5.7751 (LUMO)
       185                         -0.1930460              -5.2530
       186                         -0.1875809              -5.1043
       187                         -0.1808936              -4.9224
       188                         -0.1610624              -4.3827
       ...                                ...                  ...
       354                          0.9570463              26.0426
      -------------------------------------------------------------
                  HL-Gap            0.0061863 Eh            0.1683 eV
             Fermi-level           -0.2167098 Eh           -5.8970 eV

 SCC (total)                   0 d,  0 h,  0 min,  2.374 sec
 SCC setup                      ...        0 min,  0.000 sec (  0.015%)
 Dispersion                     ...        0 min,  0.002 sec (  0.067%)
 classical contributions        ...        0 min,  0.000 sec (  0.013%)
 integral evaluation            ...        0 min,  0.007 sec (  0.299%)
 iterations                     ...        0 min,  2.287 sec ( 96.313%)
 molecular gradient             ...        0 min,  0.048 sec (  2.018%)
 printout                       ...        0 min,  0.030 sec (  1.274%)

         :::::::::::::::::::::::::::::::::::::::::::::::::::::
         ::                     SUMMARY                     ::
         :::::::::::::::::::::::::::::::::::::::::::::::::::::
         :: total energy            -198.099826894488 Eh    ::
         :: gradient norm              0.253798796116 Eh/a0 ::
         :: HOMO-LUMO gap              0.168338404232 eV    ::
         ::.................................................::
         :: SCC energy              -201.123678907267 Eh    ::
         :: -> isotropic ES            0.220785161905 Eh    ::
         :: -> anisotropic ES          0.024886251933 Eh    ::
         :: -> anisotropic XC          0.111719853577 Eh    ::
         :: -> dispersion             -0.185005466002 Eh    ::
         :: repulsion energy           3.019600891402 Eh    ::
         :: add. restraining           0.000000000000 Eh    ::
         :: total charge              -1.000000087715 e     ::
         :::::::::::::::::::::::::::::::::::::::::::::::::::::

      ----------------------------------------------------------- 
     |                   =====================                   |
     |                        A N C O P T                        |
     |                   =====================                   |
     |               Approximate Normal Coordinate               |
     |                Rational Function Optimizer                |
      ----------------------------------------------------------- 

          ...................................................
          :                      SETUP                      :
          :.................................................:
          :   optimization level            normal          :
          :   max. optcycles                   372          :
          :   ANC micro-cycles                  20          :
          :   degrees of freedom               366          :
          :.................................................:
          :   RF solver                   davidson          :
          :   write xtbopt.log                true          :
          :   linear?                        false          :
          :   energy convergence         0.5000000E-05 Eh   :
          :   grad. convergence          0.1000000E-02 Eh/α :
          :   maxmium RF displ.          1.0000000          :
          :   Hlow (freq-cutoff)         0.1000000E-01      :
          :   Hmax (freq-cutoff)         5.0000000          :
          :   S6 in model hess.         20.0000000          :
          ...................................................

generating ANC from model Hessian ...
Using Lindh-Hessian (1995)
 Shifting diagonal of input Hessian by    9.9882999509042728E-003
 Lowest  eigenvalues of input Hessian
    0.000000    0.000000    0.000000    0.000000    0.000000    0.000000
    0.010000    0.010015    0.010038    0.010040    0.010057    0.010094
    0.010142    0.010256    0.010312    0.010425    0.010584    0.010663
 Highest eigenvalues
    2.148353    2.151349    2.154004    2.179863    2.461078    2.463365


........................................................................
.............................. CYCLE    1 ..............................
........................................................................

 iter      E             dE          RMSdq      gap      omega  full diag
   1   -201.1236789 -0.201124E+03  0.135E-04    0.17       0.0  T
   2   -201.1236775  0.137233E-05  0.221E-03    0.17       4.1  T
   3   -201.1236789 -0.132390E-05  0.473E-04    0.17      19.0  T
   4   -201.1236789 -0.503951E-07  0.109E-04    0.17      82.6  T
   5   -201.1236789 -0.100823E-08  0.260E-05    0.17     344.8  T
     SCC iter.                  ...        0 min,  0.366 sec
     gradient                   ...        0 min,  0.046 sec
 * total energy  :  -198.0998269 Eh     change       -0.1014143E-07 Eh
   gradient norm :     0.2538032 Eh/α   predicted     0.0000000E+00 (-100.00%)
   displ. norm   :     0.5410341 α      lambda       -0.8256590E-01
   maximum displ.:     0.1536103 α      in ANC's #86, #119, #246, ...

........................................................................
.............................. CYCLE    2 ..............................
........................................................................

 iter      E             dE          RMSdq      gap      omega  full diag
   1   -201.2373175 -0.201237E+03  0.335E-01    0.49       0.0  T
   2   -201.2257215  0.115960E-01  0.314E-01    0.28       1.0  T
   3   -201.1005665  0.125155E+00  0.857E-01    0.04       1.0  T
   4   -201.1815155 -0.809491E-01  0.467E-01    0.64       1.0  T
   5   -201.2326264 -0.511109E-01  0.167E-01    0.37       1.0  T
   6   -201.2211716  0.114549E-01  0.252E-01    0.41       1.0  T
   7   -201.2329261 -0.117545E-01  0.146E-01    0.43       1.0  T
   8   -201.2384425 -0.551640E-02  0.505E-02    0.39       1.0  T
   9   -201.2378107  0.631763E-03  0.649E-02    0.38       1.0  T
  10   -201.2381072 -0.296516E-03  0.494E-02    0.36       1.0  T
  11   -201.2384789 -0.371628E-03  0.278E-02    0.35       1.0  T
  12   -201.2380838  0.395046E-03  0.424E-02    0.32       1.0  T
  13   -201.2383892 -0.305342E-03  0.243E-02    0.31       1.0  T
  14   -201.2384741 -0.849731E-04  0.148E-02    0.30       1.0  T
  15   -201.2384924 -0.182297E-04  0.116E-02    0.30       1.0  T
  16   -201.2385123 -0.199467E-04  0.726E-03    0.29       1.2  T
  17   -201.2385214 -0.906087E-05  0.328E-03    0.29       2.7  T
  18   -201.2385239 -0.257154E-05  0.383E-04    0.29      23.4  T
  19   -201.2385239  0.205181E-07  0.475E-04    0.29      18.9  T
  20   -201.2385240 -0.322706E-07  0.231E-04    0.29      38.8  T
     SCC iter.                  ...        0 min,  1.065 sec
     gradient                   ...        0 min,  0.047 sec
 * total energy  :  -198.1598959 Eh     change       -0.6006899E-01 Eh
   gradient norm :     0.1194738 Eh/α   predicted    -0.5346791E-01 ( -10.99%)
   displ. norm   :     0.5972922 α      lambda       -0.3779709E-01
   maximum displ.:     0.1719734 α      in ANC's #56, #58, #54, ...

........................................................................
.............................. CYCLE    3 ..............................
........................................................................

 iter      E             dE          RMSdq      gap      omega  full diag
   1   -201.3266290 -0.201327E+03  0.202E-01    0.38       0.0  T
   2   -201.3197406  0.688834E-02  0.201E-01    0.43       1.0  T
   3   -201.2643539  0.553867E-01  0.492E-01    0.24       1.0  T
   4   -201.3071050 -0.427511E-01  0.271E-01    0.38       1.0  T
   5   -201.3114114 -0.430638E-02  0.240E-01    0.38       1.0  T
   6   -201.3264141 -0.150027E-01  0.530E-02    0.43       1.0  T
   7   -201.3271314 -0.717326E-03  0.957E-03    0.42       1.0  T
   8   -201.3271011  0.303135E-04  0.132E-02    0.42       1.0  T
   9   -201.3271121 -0.110468E-04  0.113E-02    0.42       1.0  T
  10   -201.3271219 -0.978283E-05  0.970E-03    0.42       1.0  T
  11   -201.3271429 -0.209918E-04  0.455E-03    0.42       2.0  T
  12   -201.3271484 -0.551031E-05  0.124E-03    0.42       7.2  T
  13   -201.3271485 -0.584505E-07  0.115E-03    0.42       7.8  T
  14   -201.3271489 -0.370153E-06  0.130E-04    0.42      69.3  T
  15   -201.3271489  0.500989E-09  0.970E-05    0.42      92.6  T
     SCC iter.                  ...        0 min,  0.826 sec
     gradient                   ...        0 min,  0.046 sec
 * total energy  :  -198.1854834 Eh     change       -0.2558750E-01 Eh
   gradient norm :     0.0389064 Eh/α   predicted    -0.2564095E-01 (   0.21%)
   displ. norm   :     0.6717082 α      lambda       -0.1670410E-01
   maximum displ.:     0.2039184 α      in ANC's #56, #54, #58, ...

........................................................................
.............................. CYCLE    4 ..............................
........................................................................

 iter      E             dE          RMSdq      gap      omega  full diag
   1   -201.3671177 -0.201367E+03  0.135E-01    0.48       0.0  T
   2   -201.3671767 -0.589487E-04  0.890E-02    0.58       1.0  T
   3   -201.3358932  0.312835E-01  0.335E-01    0.46       1.0  T
   4   -201.3471171 -0.112239E-01  0.268E-01    0.48       1.0  T
   5   -201.3671642 -0.200471E-01  0.275E-02    0.56       1.0  T
   6   -201.3673547 -0.190450E-03  0.555E-03    0.56       1.6  T
   7   -201.3673542  0.454942E-06  0.481E-03    0.56       1.9  T
   8   -201.3673567 -0.246365E-05  0.333E-03    0.56       2.7  T
   9   -201.3673586 -0.196540E-05  0.186E-03    0.56       4.8  T
  10   -201.3673594 -0.753738E-06  0.711E-04    0.56      12.6  T
  11   -201.3673592  0.135451E-06  0.806E-04    0.56      11.1  T
     SCC iter.                  ...        0 min,  0.728 sec
     gradient                   ...        0 min,  0.045 sec
 * total energy  :  -198.1983928 Eh     change       -0.1290943E-01 Eh
   gradient norm :     0.0259508 Eh/α   predicted    -0.1212043E-01 (  -6.11%)
   displ. norm   :     0.7253464 α      lambda       -0.1163469E-01
   maximum displ.:     0.2209874 α      in ANC's #8, #56, #54, ...

........................................................................
.............................. CYCLE    5 ..............................
........................................................................

 iter      E             dE          RMSdq      gap      omega  full diag
   1   -201.4023405 -0.201402E+03  0.132E-01    0.57       0.0  T
   2   -201.3924655  0.987499E-02  0.206E-01    0.62       1.0  T
   3   -201.3562702  0.361953E-01  0.411E-01    0.55       1.0  T
   4   -201.4006441 -0.443739E-01  0.887E-02    0.56       1.0  T
   5   -201.4024640 -0.181986E-02  0.211E-02    0.62       1.0  T
   6   -201.4024640  0.537019E-07  0.190E-02    0.61       1.0  T
   7   -201.4024190  0.449694E-04  0.222E-02    0.61       1.0  T
   8   -201.4025444 -0.125383E-03  0.708E-03    0.61       1.3  T
   9   -201.4025493 -0.494430E-05  0.580E-03    0.61       1.5  T
  10   -201.4025583 -0.900195E-05  0.156E-03    0.61       5.7  T
  11   -201.4025583  0.547278E-07  0.150E-03    0.61       6.0  T
  12   -201.4025569  0.132564E-05  0.257E-03    0.61       3.5  T
  13   -201.4025587 -0.179875E-05  0.539E-04    0.61      16.7  T
  14   -201.4025588 -0.580418E-07  0.229E-04    0.61      39.3  T
  15   -201.4025588 -0.203897E-09  0.220E-04    0.61      40.8  T
     SCC iter.                  ...        0 min,  1.038 sec
     gradient                   ...        0 min,  0.049 sec
 * total energy  :  -198.2073973 Eh     change       -0.9004448E-02 Eh
   gradient norm :     0.0210593 Eh/α   predicted    -0.8878028E-02 (  -1.40%)
   displ. norm   :     0.7573090 α      lambda       -0.8208328E-02
   maximum displ.:     0.3119247 α      in ANC's #8, #9, #24, ...

........................................................................
.............................. CYCLE    6 ..............................
........................................................................

 iter      E             dE          RMSdq      gap      omega  full diag
   1   -201.4289107 -0.201429E+03  0.145E-01    0.68       0.0  T
   2   -201.4138722  0.150385E-01  0.252E-01    0.73       1.0  T
   3   -201.3887658  0.251064E-01  0.387E-01    0.68       1.0  T
   4   -201.4282827 -0.395170E-01  0.614E-02    0.66       1.0  T
   5   -201.4289278 -0.645022E-03  0.329E-02    0.73       1.0  T
   6   -201.4290557 -0.127980E-03  0.187E-02    0.72       1.0  T
   7   -201.4290958 -0.400554E-04  0.118E-02    0.72       1.0  T
   8   -201.4291220 -0.261819E-04  0.584E-03    0.71       1.5  T
   9   -201.4291072  0.147704E-04  0.917E-03    0.71       1.0  T
  10   -201.4291262 -0.189955E-04  0.422E-03    0.71       2.1  T
  11   -201.4291309 -0.468443E-05  0.127E-03    0.71       7.1  T
  12   -201.4291304  0.493036E-06  0.163E-03    0.71       5.5  T
  13   -201.4291308 -0.392764E-06  0.106E-03    0.71       8.4  T
  14   -201.4291311 -0.333020E-06  0.108E-04    0.71      82.9  T
  15   -201.4291311  0.314202E-09  0.893E-05    0.71     100.6  T
     SCC iter.                  ...        0 min,  0.860 sec
     gradient                   ...        0 min,  0.049 sec
 * total energy  :  -198.2144113 Eh     change       -0.7014048E-02 Eh
   gradient norm :     0.0192672 Eh/α   predicted    -0.6457977E-02 (  -7.93%)
   displ. norm   :     0.8313613 α      lambda       -0.7704949E-02
   maximum displ.:     0.3723533 α      in ANC's #8, #9, #24, ...

........................................................................
.............................. CYCLE    7 ..............................
........................................................................

 iter      E             dE          RMSdq      gap      omega  full diag
   1   -201.4506302 -0.201451E+03  0.195E-01    0.82       0.0  T
   2   -201.4237915  0.268388E-01  0.335E-01    0.85       1.0  T
   3   -201.4032576  0.205339E-01  0.427E-01    0.79       1.0  T
   4   -201.4441626 -0.409050E-01  0.156E-01    0.75       1.0  T
   5   -201.4503300 -0.616737E-02  0.472E-02    0.85       1.0  T
   6   -201.4501637  0.166255E-03  0.500E-02    0.84       1.0  T
   7   -201.4505308 -0.367118E-03  0.344E-02    0.84       1.0  T
   8   -201.4508606 -0.329716E-03  0.460E-03    0.84       2.0  T
   9   -201.4507443  0.116248E-03  0.202E-02    0.84       1.0  T
  10   -201.4508617 -0.117341E-03  0.308E-03    0.84       2.9  T
  11   -201.4508636 -0.196152E-05  0.110E-03    0.84       8.1  T
  12   -201.4508602  0.340169E-05  0.344E-03    0.84       2.6  T
  13   -201.4508636 -0.339859E-05  0.406E-04    0.84      22.1  T
  14   -201.4508637 -0.392422E-07  0.111E-04    0.84      80.7  T
  15   -201.4508637  0.336314E-09  0.949E-05    0.84      94.6  T
     SCC iter.                  ...        0 min,  0.806 sec
     gradient                   ...        0 min,  0.046 sec
 * total energy  :  -198.2216658 Eh     change       -0.7254436E-02 Eh
   gradient norm :     0.0183689 Eh/α   predicted    -0.6515168E-02 ( -10.19%)
   displ. norm   :     0.8981955 α      lambda       -0.8571572E-02
   maximum displ.:     0.4180041 α      in ANC's #8, #9, #22, ...

........................................................................
.............................. CYCLE    8 ..............................
........................................................................

 iter      E             dE          RMSdq      gap      omega  full diag
   1   -201.4675416 -0.201468E+03  0.239E-01    1.01       0.0  T
   2   -201.4307071  0.368346E-01  0.394E-01    0.98       1.0  T
   3   -201.4147710  0.159361E-01  0.457E-01    0.92       1.0  T
   4   -201.4459967 -0.312257E-01  0.278E-01    0.90       1.0  T
   5   -201.4668935 -0.208969E-01  0.587E-02    1.01       1.0  T
   6   -201.4642486  0.264491E-02  0.111E-01    0.99       1.0  T
   7   -201.4671988 -0.295023E-02  0.468E-02    1.00       1.0  T
   8   -201.4678108 -0.611945E-03  0.485E-03    1.00       1.9  T
   9   -201.4676606  0.150190E-03  0.230E-02    1.00       1.0  T
  10   -201.4678143 -0.153735E-03  0.173E-03    1.00       5.2  T
  11   -201.4678145 -0.131674E-06  0.113E-03    1.00       8.0  T
  12   -201.4678118  0.269138E-05  0.310E-03    1.00       2.9  T
  13   -201.4678135 -0.173287E-05  0.188E-03    1.00       4.8  T
  14   -201.4678145 -0.956964E-06  0.421E-04    1.00      21.3  T
  15   -201.4678145 -0.472307E-07  0.740E-05    1.00     121.4  T
     SCC iter.                  ...        0 min,  0.847 sec
     gradient                   ...        0 min,  0.048 sec
 * total energy  :  -198.2299634 Eh     change       -0.8297678E-02 Eh
   gradient norm :     0.0204637 Eh/α   predicted    -0.7743389E-02 (  -6.68%)
   displ. norm   :     0.9204594 α      lambda       -0.9419669E-02
   maximum displ.:     0.4351112 α      in ANC's #8, #9, #22, ...

........................................................................
.............................. CYCLE    9 ..............................
........................................................................

 iter      E             dE          RMSdq      gap      omega  full diag
   1   -201.4799950 -0.201480E+03  0.257E-01    1.02       0.0  T
   2   -201.4409372  0.390577E-01  0.406E-01    0.96       1.0  T
   3   -201.4246722  0.162651E-01  0.470E-01    0.89       1.0  T
   4   -201.4441504 -0.194782E-01  0.357E-01    0.97       1.0  T
   5   -201.4769915 -0.328411E-01  0.105E-01    1.01       1.0  T
   6   -201.4708850  0.610655E-02  0.179E-01    1.00       1.0  T
   7   -201.4800273 -0.914228E-02  0.293E-02    1.02       1.0  T
   8   -201.4802471 -0.219814E-03  0.598E-03    1.02       1.5  T
   9   -201.4801999  0.471635E-04  0.138E-02    1.02       1.0  T
  10   -201.4802553 -0.554188E-04  0.134E-03    1.02       6.7  T
  11   -201.4802553  0.299769E-07  0.125E-03    1.02       7.2  T
  12   -201.4802550  0.322290E-06  0.151E-03    1.02       5.9  T
  13   -201.4802545  0.513703E-06  0.200E-03    1.02       4.5  T
  14   -201.4802555 -0.106667E-05  0.525E-04    1.02      17.1  T
  15   -201.4802556 -0.685534E-07  0.185E-04    1.02      48.4  T
  16   -201.4802556 -0.849658E-08  0.321E-05    1.02     279.8  T
     SCC iter.                  ...        0 min,  1.085 sec
     gradient                   ...        0 min,  0.049 sec
 * total energy  :  -198.2390098 Eh     change       -0.9046360E-02 Eh
   gradient norm :     0.0256569 Eh/α   predicted    -0.8700219E-02 (  -3.83%)
   displ. norm   :     0.9288985 α      lambda       -0.9582228E-02
   maximum displ.:     0.4539338 α      in ANC's #9, #8, #22, ...

........................................................................
.............................. CYCLE   10 ..............................
........................................................................

 iter      E             dE          RMSdq      gap      omega  full diag
   1   -201.4877050 -0.201488E+03  0.233E-01    1.02       0.0  T
   2   -201.4674255  0.202794E-01  0.305E-01    0.98       1.0  T
   3   -201.4300815  0.373440E-01  0.475E-01    0.87       1.0  T
   4   -201.4434708 -0.133893E-01  0.398E-01    0.94       1.0  T
   5   -201.4795233 -0.360525E-01  0.167E-01    1.00       1.0  T
   6   -201.4735577  0.596563E-02  0.221E-01    0.99       1.0  T
   7   -201.4875773 -0.140197E-01  0.311E-02    1.02       1.0  T
   8   -201.4878318 -0.254447E-03  0.438E-03    1.02       2.0  T
   9   -201.4876701  0.161714E-03  0.237E-02    1.02       1.0  T
  10   -201.4878272 -0.157118E-03  0.472E-03    1.02       1.9  T
  11   -201.4878312 -0.398126E-05  0.277E-03    1.02       3.2  T
  12   -201.4878304  0.709544E-06  0.303E-03    1.02       3.0  T
  13   -201.4878314 -0.987630E-06  0.235E-03    1.02       3.8  T
  14   -201.4878325 -0.107737E-05  0.133E-03    1.02       6.7  T
  15   -201.4878330 -0.481592E-06  0.323E-04    1.02      27.8  T
  16   -201.4878330 -0.232726E-07  0.140E-04    1.02      64.1  T
     SCC iter.                  ...        0 min,  0.864 sec
     gradient                   ...        0 min,  0.048 sec
 * total energy  :  -198.2481967 Eh     change       -0.9186947E-02 Eh
   gradient norm :     0.0274345 Eh/α   predicted    -0.8925134E-02 (  -2.85%)
   displ. norm   :     0.9225137 α      lambda       -0.9453634E-02
   maximum displ.:     0.4657460 α      in ANC's #9, #8, #22, ...

........................................................................
.............................. CYCLE   11 ..............................
........................................................................

 iter      E             dE          RMSdq      gap      omega  full diag
   1   -201.4963536 -0.201496E+03  0.217E-01    1.04       0.0  T
   2   -201.4963258  0.278432E-04  0.141E-01    1.04       1.0  T
   3   -201.4440607  0.522651E-01  0.429E-01    0.93       1.0  T
   4   -201.4954025 -0.513419E-01  0.618E-02    1.04       1.0  T
   5   -201.4954110 -0.843472E-05  0.598E-02    1.03       1.0  T
   6   -201.4958482 -0.437190E-03  0.450E-02    1.03       1.0  T
   7   -201.4963855 -0.537376E-03  0.102E-02    1.04       1.0  T
   8   -201.4963718  0.137620E-04  0.124E-02    1.04       1.0  T
   9   -201.4963355  0.363216E-04  0.167E-02    1.04       1.0  T
  10   -201.4964164 -0.809725E-04  0.848E-04    1.04      10.6  T
  11   -201.4964162  0.202128E-06  0.107E-03    1.04       8.4  T
  12   -201.4964148  0.143642E-05  0.244E-03    1.04       3.7  T
  13   -201.4964165 -0.171805E-05  0.134E-04    1.04      67.2  T
  14   -201.4964165  0.271120E-08  0.148E-04    1.04      60.5  T
  15   -201.4964165 -0.282805E-08  0.956E-05    1.04      93.9  T
     SCC iter.                  ...        0 min,  0.954 sec
     gradient                   ...        0 min,  0.050 sec
 * total energy  :  -198.2570737 Eh     change       -0.8876957E-02 Eh
   gradient norm :     0.0221537 Eh/α   predicted    -0.8749499E-02 (  -1.44%)
   displ. norm   :     0.9295783 α      lambda       -0.8715786E-02
   maximum displ.:     0.4938000 α      in ANC's #9, #8, #22, ...

........................................................................
.............................. CYCLE   12 ..............................
........................................................................

 iter      E             dE          RMSdq      gap      omega  full diag
   1   -201.4989309 -0.201499E+03  0.162E-01    1.06       0.0  T
   2   -201.4958659  0.306498E-02  0.150E-01    1.04       1.0  T
   3   -201.4393446  0.565213E-01  0.470E-01    0.90       1.0  T
   4   -201.4735355 -0.341908E-01  0.299E-01    1.01       1.0  T
   5   -201.4965499 -0.230144E-01  0.950E-02    1.04       1.0  T
   6   -201.4984201 -0.187019E-02  0.444E-02    1.05       1.0  T
   7   -201.4977520  0.668052E-03  0.648E-02    1.05       1.0  T
   8   -201.4984913 -0.739327E-03  0.410E-02    1.05       1.0  T
   9   -201.4989239 -0.432522E-03  0.137E-02    1.05       1.0  T
  10   -201.4989592 -0.353072E-04  0.802E-03    1.05       1.1  T
  11   -201.4989767 -0.175545E-04  0.109E-03    1.05       8.2  T
  12   -201.4989766  0.112344E-06  0.906E-04    1.05       9.9  T
  13   -201.4989766  0.379915E-07  0.924E-04    1.05       9.7  T
     SCC iter.                  ...        0 min,  0.750 sec
     gradient                   ...        0 min,  0.049 sec
 * total energy  :  -198.2649631 Eh     change       -0.7889427E-02 Eh
   gradient norm :     0.0200920 Eh/α   predicted    -0.8123620E-02 (   2.97%)
   displ. norm   :     0.8975106 α      lambda       -0.8222318E-02
   maximum displ.:     0.4598590 α      in ANC's #9, #8, #86, ...

........................................................................
.............................. CYCLE   13 ..............................
........................................................................

 iter      E             dE          RMSdq      gap      omega  full diag
   1   -201.5167194 -0.201517E+03  0.187E-01    1.09       0.0  T
   2   -201.5015723  0.151471E-01  0.257E-01    1.05       1.0  T
   3   -201.4607532  0.408191E-01  0.458E-01    0.96       1.0  T
   4   -201.4883140 -0.275607E-01  0.318E-01    1.04       1.0  T
   5   -201.5139895 -0.256756E-01  0.984E-02    1.07       1.0  T
   6   -201.5148261 -0.836604E-03  0.825E-02    1.07       1.0  T
   7   -201.5147543  0.718054E-04  0.850E-02    1.07       1.0  T
   8   -201.5168206 -0.206629E-02  0.679E-03    1.08       1.3  T
   9   -201.5167587  0.618972E-04  0.160E-02    1.08       1.0  T
  10   -201.5168171 -0.583239E-04  0.737E-03    1.08       1.2  T
  11   -201.5168278 -0.107655E-04  0.402E-03    1.08       2.2  T
  12   -201.5168324 -0.454660E-05  0.588E-04    1.08      15.3  T
  13   -201.5168324  0.187997E-07  0.545E-04    1.08      16.5  T
  14   -201.5168324 -0.745610E-07  0.993E-05    1.08      90.4  T
     SCC iter.                  ...        0 min,  0.829 sec
     gradient                   ...        0 min,  0.048 sec
 * total energy  :  -198.2716311 Eh     change       -0.6667959E-02 Eh
   gradient norm :     0.0246466 Eh/α   predicted    -0.7422814E-02 (  11.32%)
   displ. norm   :     0.8708345 α      lambda       -0.6735448E-02
   maximum displ.:     0.4768422 α      in ANC's #9, #8, #22, ...

........................................................................
.............................. CYCLE   14 ..............................
........................................................................

 iter      E             dE          RMSdq      gap      omega  full diag
   1   -201.5161168 -0.201516E+03  0.132E-01    1.07       0.0  T
   2   -201.5148902  0.122660E-02  0.112E-01    1.07       1.0  T
   3   -201.4596783  0.552118E-01  0.453E-01    0.93       1.0  T
   4   -201.5066735 -0.469951E-01  0.183E-01    1.05       1.0  T
   5   -201.5140048 -0.733133E-02  0.892E-02    1.06       1.0  T
   6   -201.5161269 -0.212207E-02  0.166E-02    1.07       1.0  T
   7   -201.5156596  0.467241E-03  0.415E-02    1.07       1.0  T
   8   -201.5158242 -0.164523E-03  0.340E-02    1.07       1.0  T
   9   -201.5159422 -0.118083E-03  0.273E-02    1.07       1.0  T
  10   -201.5161522 -0.209981E-03  0.500E-03    1.07       1.8  T
  11   -201.5161579 -0.570443E-05  0.203E-03    1.07       4.4  T
  12   -201.5161583 -0.364614E-06  0.161E-03    1.07       5.6  T
  13   -201.5161589 -0.593491E-06  0.736E-04    1.07      12.2  T
  14   -201.5161590 -0.142106E-06  0.221E-04    1.07      40.6  T
     SCC iter.                  ...        0 min,  0.776 sec
     gradient                   ...        0 min,  0.049 sec
 * total energy  :  -198.2772740 Eh     change       -0.5642958E-02 Eh
   gradient norm :     0.0212373 Eh/α   predicted    -0.5921649E-02 (   4.94%)
   displ. norm   :     0.8051864 α      lambda       -0.5212260E-02
   maximum displ.:     0.4431773 α      in ANC's #9, #8, #86, ...

........................................................................
.............................. CYCLE   15 ..............................
........................................................................

 iter      E             dE          RMSdq      gap      omega  full diag
   1   -201.5264203 -0.201526E+03  0.113E-01    1.07       0.0  T
   2   -201.5146613  0.117589E-01  0.214E-01    1.04       1.0  T
   3   -201.4958246  0.188368E-01  0.331E-01    1.02       1.0  T
   4   -201.5253757 -0.295511E-01  0.653E-02    1.06       1.0  T
   5   -201.5263345 -0.958783E-03  0.237E-02    1.07       1.0  T
   6   -201.5264345 -0.100033E-03  0.136E-02    1.07       1.0  T
   7   -201.5264757 -0.412426E-04  0.367E-03    1.07       2.4  T
   8   -201.5264730  0.272798E-05  0.424E-03    1.07       2.1  T
   9   -201.5264769 -0.389552E-05  0.153E-03    1.07       5.9  T
  10   -201.5264772 -0.291470E-06  0.554E-04    1.07      16.2  T
  11   -201.5264771  0.136158E-06  0.762E-04    1.07      11.8  T
     SCC iter.                  ...        0 min,  0.767 sec
     gradient                   ...        0 min,  0.052 sec
 * total energy  :  -198.2815911 Eh     change       -0.4317071E-02 Eh
   gradient norm :     0.0187206 Eh/α   predicted    -0.4295750E-02 (  -0.49%)
   displ. norm   :     0.8067154 α      lambda       -0.4941774E-02
   maximum displ.:     0.4185145 α      in ANC's #9, #8, #25, ...

........................................................................
.............................. CYCLE   16 ..............................
........................................................................

 iter      E             dE          RMSdq      gap      omega  full diag
   1   -201.5324473 -0.201532E+03  0.113E-01    1.05       0.0  T
   2   -201.5316930  0.754302E-03  0.879E-02    1.05       1.0  T
   3   -201.4754560  0.562370E-01  0.452E-01    0.93       1.0  T
   4   -201.5289078 -0.534518E-01  0.114E-01    1.04       1.0  T
   5   -201.5306571 -0.174929E-02  0.814E-02    1.04       1.0  T
   6   -201.5324091 -0.175206E-02  0.192E-02    1.05       1.0  T
   7   -201.5316177  0.791479E-03  0.545E-02    1.05       1.0  T
   8   -201.5323153 -0.697679E-03  0.245E-02    1.05       1.0  T
   9   -201.5324838 -0.168419E-03  0.509E-03    1.05       1.8  T
  10   -201.5324899 -0.610136E-05  0.220E-03    1.05       4.1  T
  11   -201.5324912 -0.128910E-05  0.455E-04    1.05      19.7  T
  12   -201.5324911  0.294743E-07  0.505E-04    1.05      17.8  T
  13   -201.5324912 -0.617158E-07  0.134E-04    1.05      67.0  T
     SCC iter.                  ...        0 min,  0.909 sec
     gradient                   ...        0 min,  0.048 sec
 * total energy  :  -198.2846094 Eh     change       -0.3018278E-02 Eh
   gradient norm :     0.0257078 Eh/α   predicted    -0.4078919E-02 (  35.14%)
   displ. norm   :     0.6314552 α      lambda       -0.3687740E-02
   maximum displ.:     0.3469598 α      in ANC's #9, #8, #86, ...

........................................................................
.............................. CYCLE   17 ..............................
........................................................................

 iter      E             dE          RMSdq      gap      omega  full diag
   1   -201.5413978 -0.201541E+03  0.719E-02    1.05       0.0  T
   2   -201.5406446  0.753173E-03  0.689E-02    1.05       1.0  T
   3   -201.5003278  0.403168E-01  0.378E-01    0.98       1.0  T
   4   -201.5410188 -0.406910E-01  0.418E-02    1.05       1.0  T
   5   -201.5414215 -0.402673E-03  0.102E-02    1.05       1.0  T
   6   -201.5413507  0.708289E-04  0.169E-02    1.05       1.0  T
   7   -201.5412781  0.725368E-04  0.224E-02    1.05       1.0  T
   8   -201.5414243 -0.146191E-03  0.239E-03    1.05       3.8  T
   9   -201.5413999  0.244193E-04  0.928E-03    1.05       1.0  T
  10   -201.5414220 -0.221190E-04  0.335E-03    1.05       2.7  T
  11   -201.5414251 -0.304078E-05  0.794E-04    1.05      11.3  T
  12   -201.5414252 -0.832179E-07  0.591E-04    1.05      15.2  T
  13   -201.5414252 -0.844674E-07  0.247E-04    1.05      36.4  T
     SCC iter.                  ...        0 min,  1.078 sec
     gradient                   ...        0 min,  0.048 sec
 * total energy  :  -198.2870368 Eh     change       -0.2427459E-02 Eh
   gradient norm :     0.0186771 Eh/α   predicted    -0.2579090E-02 (   6.25%)
   displ. norm   :     0.6144612 α      lambda       -0.2673295E-02
   maximum displ.:     0.3627867 α      in ANC's #9, #86, #8, ...

........................................................................
.............................. CYCLE   18 ..............................
........................................................................

 iter      E             dE          RMSdq      gap      omega  full diag
   1   -201.5474387 -0.201547E+03  0.858E-02    1.05       0.0  T
   2   -201.5432728  0.416589E-02  0.131E-01    1.04       1.0  T
   3   -201.5139785  0.292943E-01  0.343E-01    1.00       1.0  T
   4   -201.5469557 -0.329773E-01  0.483E-02    1.05       1.0  T
   5   -201.5473837 -0.427927E-03  0.205E-02    1.06       1.0  T
   6   -201.5474749 -0.912137E-04  0.831E-03    1.06       1.1  T
   7   -201.5474511  0.238318E-04  0.100E-02    1.06       1.0  T
   8   -201.5474726 -0.215640E-04  0.469E-03    1.06       1.9  T
   9   -201.5474775 -0.489707E-05  0.227E-03    1.06       4.0  T
  10   -201.5474789 -0.138931E-05  0.357E-04    1.06      25.1  T
  11   -201.5474787  0.224101E-06  0.922E-04    1.06       9.7  T
  12   -201.5474789 -0.234288E-06  0.195E-04    1.06      46.1  T
     SCC iter.                  ...        0 min,  0.643 sec
     gradient                   ...        0 min,  0.050 sec
 * total energy  :  -198.2882125 Eh     change       -0.1175672E-02 Eh
   gradient norm :     0.0226318 Eh/α   predicted    -0.1841319E-02 (  56.62%)
   displ. norm   :     0.5151459 α      lambda       -0.2141587E-02
   maximum displ.:     0.2594435 α      in ANC's #9, #25, #10, ...

........................................................................
.............................. CYCLE   19 ..............................
........................................................................

 iter      E             dE          RMSdq      gap      omega  full diag
   1   -201.5440003 -0.201544E+03  0.736E-02    1.06       0.0  T
   2   -201.5366192  0.738113E-02  0.165E-01    1.04       1.0  T
   3   -201.5270573  0.956194E-02  0.244E-01    1.03       1.0  T
   4   -201.5439812 -0.169240E-01  0.238E-02    1.06       1.0  T
   5   -201.5440072 -0.259498E-04  0.138E-02    1.06       1.0  T
   6   -201.5440261 -0.188610E-04  0.909E-03    1.06       1.0  T
   7   -201.5440399 -0.138780E-04  0.322E-03    1.06       2.8  T
   8   -201.5440411 -0.120367E-05  0.190E-03    1.06       4.7  T
   9   -201.5440418 -0.653791E-06  0.835E-04    1.06      10.8  T
  10   -201.5440419 -0.123296E-06  0.288E-04    1.06      31.2  T
     SCC iter.                  ...        0 min,  0.663 sec
     gradient                   ...        0 min,  0.048 sec
 * total energy  :  -198.2891424 Eh     change       -0.9298366E-03 Eh
   gradient norm :     0.0207306 Eh/α   predicted    -0.1354957E-02 (  45.72%)
   displ. norm   :     0.4163221 α      lambda       -0.2154752E-02
   maximum displ.:     0.2157137 α      in ANC's #9, #10, #30, ...

........................................................................
.............................. CYCLE   20 ..............................
........................................................................

 iter      E             dE          RMSdq      gap      omega  full diag
   1   -201.5478723 -0.201548E+03  0.908E-02    1.06       0.0  T
   2   -201.5474004  0.471921E-03  0.806E-02    1.05       1.0  T
   3   -201.5011566  0.462438E-01  0.406E-01    0.98       1.0  T
   4   -201.5478946 -0.467380E-01  0.246E-02    1.06       1.0  T
   5   -201.5478989 -0.426797E-05  0.147E-02    1.06       1.0  T
   6   -201.5476657  0.233205E-03  0.296E-02    1.05       1.0  T
   7   -201.5478163 -0.150618E-03  0.180E-02    1.06       1.0  T
   8   -201.5479080 -0.917147E-04  0.164E-03    1.06       5.5  T
   9   -201.5478890  0.190109E-04  0.810E-03    1.06       1.1  T
  10   -201.5479054 -0.163856E-04  0.318E-03    1.06       2.8  T
  11   -201.5479075 -0.213947E-05  0.154E-03    1.06       5.8  T
  12   -201.5479079 -0.377555E-06  0.103E-03    1.06       8.7  T
  13   -201.5479082 -0.305662E-06  0.162E-04    1.06      55.5  T
  14   -201.5479082 -0.573471E-08  0.653E-05    1.06     137.5  T
     SCC iter.                  ...        0 min,  1.133 sec
     gradient                   ...        0 min,  0.049 sec
 * total energy  :  -198.2891825 Eh     change       -0.4017568E-04 Eh
   gradient norm :     0.0312606 Eh/α   predicted    -0.1264112E-02 (3046.46%)
   displ. norm   :     0.2391455 α      lambda       -0.2248577E-02
   maximum displ.:     0.0997498 α      in ANC's #9, #10, #12, ...
 * RMSD in coord.:     1.0742414 α      energy gain  -0.1893556E+00 Eh

generating ANC from model Hessian ...
Using Lindh-Hessian (1995)
 Shifting diagonal of input Hessian by    9.9706591129690592E-003
 Lowest  eigenvalues of input Hessian
    0.000000    0.000000    0.000000    0.000000    0.000000    0.000000
    0.010000    0.010027    0.010037    0.010051    0.010058    0.010117
    0.010172    0.010369    0.010500    0.010619    0.010779    0.010857
 Highest eigenvalues
    2.168027    2.171969    2.294035    2.294953    2.490815    2.500088


........................................................................
.............................. CYCLE   21 ..............................
........................................................................

 iter      E             dE          RMSdq      gap      omega  full diag
   1   -201.5500611 -0.201550E+03  0.101E-01    1.05       0.0  T
   2   -201.5398676  0.101935E-01  0.200E-01    1.03       1.0  T
   3   -201.5296058  0.102618E-01  0.273E-01    1.02       1.0  T
   4   -201.5496878 -0.200821E-01  0.485E-02    1.05       1.0  T
   5   -201.5500468 -0.358928E-03  0.220E-02    1.05       1.0  T
   6   -201.5498886  0.158133E-03  0.277E-02    1.05       1.0  T
   7   -201.5501156 -0.226973E-03  0.189E-03    1.05       4.8  T
   8   -201.5501159 -0.270242E-06  0.100E-03    1.05       8.9  T
   9   -201.5501159 -0.586417E-08  0.540E-04    1.05      16.6  T
  10   -201.5501159 -0.287333E-07  0.231E-04    1.05      38.8  T
     SCC iter.                  ...        0 min,  1.510 sec
     gradient                   ...        0 min,  0.047 sec
 * total energy  :  -198.2899186 Eh     change       -0.7360467E-03 Eh
   gradient norm :     0.0210183 Eh/α   predicted     0.0000000E+00 (-100.00%)
   displ. norm   :     0.1609723 α      lambda       -0.1119584E-02
   maximum displ.:     0.0595679 α      in ANC's #26, #11, #10, ...

........................................................................
.............................. CYCLE   22 ..............................
........................................................................

 iter      E             dE          RMSdq      gap      omega  full diag
   1   -201.5514150 -0.201551E+03  0.425E-02    1.06       0.0  T
   2   -201.5503069  0.110810E-02  0.666E-02    1.05       1.0  T
   3   -201.5392033  0.111037E-01  0.206E-01    1.03       1.0  T
   4   -201.5514180 -0.122147E-01  0.127E-02    1.06       1.0  T
   5   -201.5514206 -0.255304E-05  0.853E-03    1.06       1.1  T
   6   -201.5514176  0.302558E-05  0.612E-03    1.05       1.5  T
   7   -201.5514235 -0.591018E-05  0.142E-03    1.06       6.3  T
   8   -201.5514235 -0.845051E-08  0.106E-03    1.06       8.5  T
   9   -201.5514236 -0.171693E-06  0.358E-04    1.06      25.1  T
  10   -201.5514236 -0.539058E-08  0.159E-04    1.06      56.6  T
     SCC iter.                  ...        0 min,  1.204 sec
     gradient                   ...        0 min,  0.047 sec
 * total energy  :  -198.2906952 Eh     change       -0.7766057E-03 Eh
   gradient norm :     0.0058273 Eh/α   predicted    -0.5743041E-03 ( -26.05%)
   displ. norm   :     0.2683267 α      lambda       -0.6023725E-03
   maximum displ.:     0.1017498 α      in ANC's #11, #26, #10, ...

........................................................................
.............................. CYCLE   23 ..............................
........................................................................

 iter      E             dE          RMSdq      gap      omega  full diag
   1   -201.5518634 -0.201552E+03  0.398E-02    1.06       0.0  T
   2   -201.5514646  0.398835E-03  0.440E-02    1.05       1.0  T
   3   -201.5332501  0.182145E-01  0.254E-01    1.02       1.0  T
   4   -201.5518552 -0.186051E-01  0.125E-02    1.06       1.0  T
   5   -201.5518641 -0.890231E-05  0.755E-03    1.06       1.2  T
   6   -201.5518641  0.179436E-07  0.527E-03    1.06       1.7  T
   7   -201.5518677 -0.361034E-05  0.123E-03    1.06       7.3  T
   8   -201.5518676  0.853593E-07  0.108E-03    1.06       8.3  T
   9   -201.5518679 -0.247339E-06  0.276E-04    1.06      32.6  T
  10   -201.5518679  0.337815E-08  0.176E-04    1.06      50.9  T
     SCC iter.                  ...        0 min,  0.694 sec
     gradient                   ...        0 min,  0.047 sec
 * total energy  :  -198.2911490 Eh     change       -0.4537758E-03 Eh
   gradient norm :     0.0059934 Eh/α   predicted    -0.3229353E-03 ( -28.83%)
   displ. norm   :     0.4472872 α      lambda       -0.6704715E-03
   maximum displ.:     0.1688614 α      in ANC's #11, #26, #10, ...

........................................................................
.............................. CYCLE   24 ..............................
........................................................................

 iter      E             dE          RMSdq      gap      omega  full diag
   1   -201.5510911 -0.201551E+03  0.453E-02    1.06       0.0  T
   2   -201.5510396  0.515015E-04  0.302E-02    1.06       1.0  T
   3   -201.5190510  0.319886E-01  0.333E-01    1.01       1.0  T
   4   -201.5510891 -0.320381E-01  0.779E-03    1.06       1.2  T
   5   -201.5510921 -0.301168E-05  0.487E-03    1.06       1.8  T
   6   -201.5510932 -0.113933E-05  0.342E-03    1.06       2.6  T
   7   -201.5510938 -0.539009E-06  0.141E-03    1.06       6.4  T
   8   -201.5510937  0.783240E-07  0.120E-03    1.06       7.5  T
   9   -201.5510940 -0.337126E-06  0.246E-04    1.06      36.5  T
  10   -201.5510940  0.125758E-07  0.259E-04    1.06      34.7  T
     SCC iter.                  ...        0 min,  0.596 sec
     gradient                   ...        0 min,  0.047 sec
 * total energy  :  -198.2917156 Eh     change       -0.5666247E-03 Eh
   gradient norm :     0.0122963 Eh/α   predicted    -0.4023648E-03 ( -28.99%)
   displ. norm   :     0.6318448 α      lambda       -0.9114462E-03
   maximum displ.:     0.2337447 α      in ANC's #11, #26, #10, ...

........................................................................
.............................. CYCLE   25 ..............................
........................................................................

 iter      E             dE          RMSdq      gap      omega  full diag
   1   -201.5491191 -0.201549E+03  0.590E-02    1.06       0.0  T
   2   -201.5488620  0.257071E-03  0.465E-02    1.06       1.0  T
   3   -201.5082793  0.405827E-01  0.377E-01    0.99       1.0  T
   4   -201.5488727 -0.405934E-01  0.300E-02    1.06       1.0  T
   5   -201.5491177 -0.244996E-03  0.518E-03    1.06       1.7  T
   6   -201.5491109  0.681657E-05  0.672E-03    1.06       1.3  T
   7   -201.5490844  0.264711E-04  0.116E-02    1.06       1.0  T
   8   -201.5491221 -0.376713E-04  0.209E-03    1.06       4.3  T
   9   -201.5491224 -0.320957E-06  0.183E-03    1.06       4.9  T
  10   -201.5491227 -0.299912E-06  0.152E-03    1.06       5.9  T
  11   -201.5491234 -0.662337E-06  0.157E-04    1.06      57.3  T
  12   -201.5491234 -0.233626E-08  0.128E-04    1.06      70.3  T
     SCC iter.                  ...        0 min,  0.723 sec
     gradient                   ...        0 min,  0.049 sec
 * total energy  :  -198.2925020 Eh     change       -0.7863900E-03 Eh
   gradient norm :     0.0132354 Eh/α   predicted    -0.6376617E-03 ( -18.91%)
   displ. norm   :     0.6756101 α      lambda       -0.9944312E-03
   maximum displ.:     0.2491662 α      in ANC's #11, #10, #3, ...

........................................................................
.............................. CYCLE   26 ..............................
........................................................................

 iter      E             dE          RMSdq      gap      omega  full diag
   1   -201.5486054 -0.201549E+03  0.623E-02    1.06       0.0  T
   2   -201.5482691  0.336355E-03  0.508E-02    1.06       1.0  T
   3   -201.5070471  0.412219E-01  0.381E-01    0.99       1.0  T
   4   -201.5482944 -0.412473E-01  0.341E-02    1.06       1.0  T
   5   -201.5485990 -0.304603E-03  0.779E-03    1.06       1.2  T
   6   -201.5485923  0.674871E-05  0.843E-03    1.06       1.1  T
   7   -201.5485341  0.582189E-04  0.163E-02    1.06       1.0  T
   8   -201.5486094 -0.753514E-04  0.220E-03    1.06       4.1  T
   9   -201.5486088  0.662677E-06  0.267E-03    1.06       3.4  T
  10   -201.5486103 -0.156160E-05  0.134E-03    1.06       6.7  T
  11   -201.5486107 -0.400575E-06  0.624E-04    1.06      14.4  T
  12   -201.5486108 -0.796713E-07  0.349E-04    1.06      25.7  T
     SCC iter.                  ...        0 min,  1.517 sec
     gradient                   ...        0 min,  0.056 sec
 * total energy  :  -198.2933230 Eh     change       -0.8210209E-03 Eh
   gradient norm :     0.0082389 Eh/α   predicted    -0.7241696E-03 ( -11.80%)
   displ. norm   :     0.6440790 α      lambda       -0.7972426E-03
   maximum displ.:     0.2407842 α      in ANC's #3, #9, #11, ...

........................................................................
.............................. CYCLE   27 ..............................
........................................................................

 iter      E             dE          RMSdq      gap      omega  full diag
   1   -201.5508890 -0.201551E+03  0.589E-02    1.06       0.0  T
   2   -201.5508847  0.431323E-05  0.357E-02    1.06       1.0  T
   3   -201.5370772  0.138075E-01  0.218E-01    1.03       1.0  T
   4   -201.5508075 -0.137303E-01  0.186E-02    1.06       1.0  T
   5   -201.5508922 -0.847301E-04  0.503E-03    1.06       1.8  T
   6   -201.5508932 -0.926554E-06  0.329E-03    1.06       2.7  T
   7   -201.5508931  0.102816E-06  0.153E-03    1.06       5.9  T
   8   -201.5508935 -0.393685E-06  0.558E-04    1.06      16.1  T
   9   -201.5508935 -0.110518E-07  0.303E-04    1.06      29.7  T
     SCC iter.                  ...        0 min,  0.781 sec
     gradient                   ...        0 min,  0.061 sec
 * total energy  :  -198.2939612 Eh     change       -0.6381675E-03 Eh
   gradient norm :     0.0050011 Eh/α   predicted    -0.5639915E-03 ( -11.62%)
   displ. norm   :     0.6746048 α      lambda       -0.6136148E-03
   maximum displ.:     0.2648713 α      in ANC's #3, #9, #11, ...

........................................................................
.............................. CYCLE   28 ..............................
........................................................................

 iter      E             dE          RMSdq      gap      omega  full diag
   1   -201.5516243 -0.201552E+03  0.601E-02    1.06       0.0  T
   2   -201.5515998  0.244709E-04  0.370E-02    1.06       1.0  T
   3   -201.5220614  0.295384E-01  0.320E-01    1.01       1.0  T
   4   -201.5516075 -0.295460E-01  0.952E-03    1.06       1.0  T
   5   -201.5516239 -0.164013E-04  0.436E-03    1.06       2.1  T
   6   -201.5516279 -0.401654E-05  0.172E-03    1.06       5.2  T
   7   -201.5516280 -0.177670E-06  0.992E-04    1.06       9.1  T
   8   -201.5516281 -0.488741E-07  0.691E-04    1.06      13.0  T
     SCC iter.                  ...        0 min,  0.425 sec
     gradient                   ...        0 min,  0.049 sec
 * total energy  :  -198.2944884 Eh     change       -0.5272108E-03 Eh
   gradient norm :     0.0059865 Eh/α   predicted    -0.4464369E-03 ( -15.32%)
   displ. norm   :     0.6558508 α      lambda       -0.6334474E-03
   maximum displ.:     0.2834699 α      in ANC's #3, #9, #8, ...

........................................................................
.............................. CYCLE   29 ..............................
........................................................................

 iter      E             dE          RMSdq      gap      omega  full diag
   1   -201.5570472 -0.201557E+03  0.598E-02    1.06       0.0  T
   2   -201.5561892  0.857989E-03  0.651E-02    1.05       1.0  T
   3   -201.5251607  0.310285E-01  0.334E-01    1.01       1.0  T
   4   -201.5566882 -0.315276E-01  0.360E-02    1.05       1.0  T
   5   -201.5570259 -0.337655E-03  0.100E-02    1.06       1.0  T
   6   -201.5570532 -0.272485E-04  0.211E-03    1.06       4.3  T
   7   -201.5570519  0.122698E-05  0.260E-03    1.06       3.5  T
   8   -201.5570505  0.146930E-05  0.328E-03    1.06       2.7  T
   9   -201.5570535 -0.307614E-05  0.305E-04    1.06      29.4  T
  10   -201.5570534  0.115880E-06  0.659E-04    1.06      13.6  T
  11   -201.5570535 -0.964034E-07  0.316E-04    1.06      28.4  T
     SCC iter.                  ...        0 min,  0.614 sec
     gradient                   ...        0 min,  0.048 sec
 * total energy  :  -198.2949936 Eh     change       -0.5052445E-03 Eh
   gradient norm :     0.0057043 Eh/α   predicted    -0.4529765E-03 ( -10.35%)
   displ. norm   :     0.7269954 α      lambda       -0.5600440E-03
   maximum displ.:     0.3165815 α      in ANC's #3, #9, #8, ...

........................................................................
.............................. CYCLE   30 ..............................
........................................................................

 iter      E             dE          RMSdq      gap      omega  full diag
   1   -201.5547004 -0.201555E+03  0.702E-02    1.06       0.0  T
   2   -201.5482588  0.644160E-02  0.155E-01    1.04       1.0  T
   3   -201.5408735  0.738525E-02  0.222E-01    1.03       1.0  T
   4   -201.5546714 -0.137979E-01  0.152E-02    1.06       1.0  T
   5   -201.5547101 -0.386516E-04  0.762E-03    1.06       1.2  T
   6   -201.5547212 -0.110632E-04  0.357E-03    1.06       2.5  T
   7   -201.5547209  0.310817E-06  0.252E-03    1.06       3.6  T
   8   -201.5547223 -0.141145E-05  0.729E-04    1.06      12.3  T
   9   -201.5547221  0.196081E-06  0.925E-04    1.06       9.7  T
  10   -201.5547223 -0.220626E-06  0.154E-04    1.06      58.3  T
     SCC iter.                  ...        0 min,  0.770 sec
     gradient                   ...        0 min,  0.047 sec
 * total energy  :  -198.2954223 Eh     change       -0.4287159E-03 Eh
   gradient norm :     0.0046612 Eh/α   predicted    -0.4280213E-03 (  -0.16%)
   displ. norm   :     0.5861371 α      lambda       -0.4065204E-03
   maximum displ.:     0.2839650 α      in ANC's #3, #9, #8, ...

........................................................................
.............................. CYCLE   31 ..............................
........................................................................

 iter      E             dE          RMSdq      gap      omega  full diag
   1   -201.5569769 -0.201557E+03  0.592E-02    1.06       0.0  T
   2   -201.5363419  0.206349E-01  0.271E-01    1.03       1.0  T
   3   -201.5553906 -0.190487E-01  0.820E-02    1.06       1.0  T
   4   -201.5569573 -0.156674E-02  0.183E-02    1.06       1.0  T
   5   -201.5570426 -0.852808E-04  0.471E-03    1.06       1.9  T
   6   -201.5570472 -0.458678E-05  0.228E-03    1.06       3.9  T
   7   -201.5570484 -0.113689E-05  0.799E-04    1.06      11.2  T
   8   -201.5570480  0.313631E-06  0.115E-03    1.06       7.8  T
   9   -201.5570484 -0.348219E-06  0.206E-04    1.06      43.5  T
  10   -201.5570484  0.262114E-07  0.322E-04    1.06      27.9  T
     SCC iter.                  ...        0 min,  0.731 sec
     gradient                   ...        0 min,  0.049 sec
 * total energy  :  -198.2957605 Eh     change       -0.3381635E-03 Eh
   gradient norm :     0.0036991 Eh/α   predicted    -0.2730919E-03 ( -19.24%)
   displ. norm   :     0.5786858 α      lambda       -0.3506728E-03
   maximum displ.:     0.2970157 α      in ANC's #3, #9, #8, ...

........................................................................
.............................. CYCLE   32 ..............................
........................................................................

 iter      E             dE          RMSdq      gap      omega  full diag
   1   -201.5577357 -0.201558E+03  0.620E-02    1.07       0.0  T
   2   -201.5341495  0.235862E-01  0.289E-01    1.03       1.0  T
   3   -201.5560094 -0.218599E-01  0.859E-02    1.06       1.0  T
   4   -201.5576524 -0.164300E-02  0.247E-02    1.06       1.0  T
   5   -201.5578130 -0.160585E-03  0.580E-03    1.07       1.5  T
   6   -201.5578187 -0.566835E-05  0.358E-03    1.07       2.5  T
   7   -201.5578220 -0.329796E-05  0.825E-04    1.07      10.9  T
   8   -201.5578215  0.415125E-06  0.131E-03    1.07       6.8  T
   9   -201.5578220 -0.477703E-06  0.206E-04    1.07      43.5  T
  10   -201.5578220  0.263514E-07  0.342E-04    1.07      26.3  T
     SCC iter.                  ...        0 min,  0.860 sec
     gradient                   ...        0 min,  0.050 sec
 * total energy  :  -198.2960610 Eh     change       -0.3005035E-03 Eh
   gradient norm :     0.0032515 Eh/α   predicted    -0.2340533E-03 ( -22.11%)
   displ. norm   :     0.5784752 α      lambda       -0.3463667E-03
   maximum displ.:     0.3139927 α      in ANC's #3, #9, #8, ...

........................................................................
.............................. CYCLE   33 ..............................
........................................................................

 iter      E             dE          RMSdq      gap      omega  full diag
   1   -201.5591033 -0.201559E+03  0.665E-02    1.07       0.0  T
   2   -201.5357578  0.233455E-01  0.288E-01    1.03       1.0  T
   3   -201.5566178 -0.208600E-01  0.101E-01    1.06       1.0  T
   4   -201.5590010 -0.238321E-02  0.261E-02    1.07       1.0  T
   5   -201.5591730 -0.171955E-03  0.765E-03    1.07       1.2  T
   6   -201.5591885 -0.155638E-04  0.191E-03    1.07       4.7  T
   7   -201.5591886 -0.354551E-07  0.164E-03    1.07       5.5  T
   8   -201.5591886 -0.325627E-07  0.147E-03    1.07       6.1  T
   9   -201.5591892 -0.595497E-06  0.204E-04    1.07      44.1  T
  10   -201.5591892 -0.357275E-08  0.107E-04    1.07      84.0  T
     SCC iter.                  ...        0 min,  0.753 sec
     gradient                   ...        0 min,  0.050 sec
 * total energy  :  -198.2963569 Eh     change       -0.2959018E-03 Eh
   gradient norm :     0.0043264 Eh/α   predicted    -0.2311387E-03 ( -21.89%)
   displ. norm   :     0.6208097 α      lambda       -0.3858322E-03
   maximum displ.:     0.3446613 α      in ANC's #3, #9, #8, ...

........................................................................
.............................. CYCLE   34 ..............................
........................................................................

 iter      E             dE          RMSdq      gap      omega  full diag
   1   -201.5574730 -0.201557E+03  0.740E-02    1.08       0.0  T
   2   -201.5401944  0.172786E-01  0.250E-01    1.05       1.0  T
   3   -201.5513557 -0.111613E-01  0.152E-01    1.06       1.0  T
   4   -201.5574593 -0.610364E-02  0.169E-02    1.07       1.0  T
   5   -201.5575204 -0.610633E-04  0.653E-03    1.08       1.4  T
   6   -201.5575315 -0.111672E-04  0.155E-03    1.08       5.8  T
   7   -201.5575317 -0.134244E-06  0.870E-04    1.08      10.3  T
   8   -201.5575315  0.184947E-06  0.957E-04    1.08       9.4  T
     SCC iter.                  ...        0 min,  0.580 sec
     gradient                   ...        0 min,  0.049 sec
 * total energy  :  -198.2966871 Eh     change       -0.3302104E-03 Eh
   gradient norm :     0.0049395 Eh/α   predicted    -0.2672682E-03 ( -19.06%)
   displ. norm   :     0.6297889 α      lambda       -0.4334902E-03
   maximum displ.:     0.3620411 α      in ANC's #3, #9, #8, ...

........................................................................
.............................. CYCLE   35 ..............................
........................................................................

 iter      E             dE          RMSdq      gap      omega  full diag
   1   -201.5587111 -0.201559E+03  0.784E-02    1.08       0.0  T
   2   -201.5536498  0.506125E-02  0.141E-01    1.07       1.0  T
   3   -201.5364854  0.171644E-01  0.282E-01    1.04       1.0  T
   4   -201.5583550 -0.218696E-01  0.364E-02    1.08       1.0  T
   5   -201.5586915 -0.336467E-03  0.114E-02    1.08       1.0  T
   6   -201.5587254 -0.339599E-04  0.331E-03    1.08       2.7  T
   7   -201.5587265 -0.106794E-05  0.257E-03    1.08       3.5  T
   8   -201.5587283 -0.181708E-05  0.394E-04    1.08      22.8  T
   9   -201.5587283  0.286732E-07  0.415E-04    1.08      21.6  T
  10   -201.5587281  0.147830E-06  0.805E-04    1.08      11.2  T
     SCC iter.                  ...        0 min,  0.663 sec
     gradient                   ...        0 min,  0.049 sec
 * total energy  :  -198.2970772 Eh     change       -0.3900865E-03 Eh
   gradient norm :     0.0056778 Eh/α   predicted    -0.3027143E-03 ( -22.40%)
   displ. norm   :     0.6764386 α      lambda       -0.5161986E-03
   maximum displ.:     0.3933848 α      in ANC's #3, #9, #8, ...

........................................................................
.............................. CYCLE   36 ..............................
........................................................................

 iter      E             dE          RMSdq      gap      omega  full diag
   1   -201.5585699 -0.201559E+03  0.847E-02    1.09       0.0  T
   2   -201.5585441  0.257876E-04  0.509E-02    1.09       1.0  T
   3   -201.5258703  0.326738E-01  0.339E-01    1.03       1.0  T
   4   -201.5585225 -0.326522E-01  0.141E-02    1.08       1.0  T
   5   -201.5585584 -0.359699E-04  0.771E-03    1.09       1.2  T
   6   -201.5585740 -0.156075E-04  0.205E-03    1.09       4.4  T
   7   -201.5585729  0.115000E-05  0.260E-03    1.09       3.5  T
   8   -201.5585743 -0.141947E-05  0.114E-03    1.09       7.9  T
   9   -201.5585746 -0.296786E-06  0.400E-04    1.09      22.5  T
  10   -201.5585744  0.246225E-06  0.987E-04    1.09       9.1  T
     SCC iter.                  ...        0 min,  0.557 sec
     gradient                   ...        0 min,  0.055 sec
 * total energy  :  -198.2975402 Eh     change       -0.4630125E-03 Eh
   gradient norm :     0.0052659 Eh/α   predicted    -0.3761993E-03 ( -18.75%)
   displ. norm   :     0.7123594 α      lambda       -0.5697245E-03
   maximum displ.:     0.4123420 α      in ANC's #3, #9, #10, ...

........................................................................
.............................. CYCLE   37 ..............................
........................................................................

 iter      E             dE          RMSdq      gap      omega  full diag
   1   -201.5612364 -0.201561E+03  0.903E-02    1.09       0.0  T
   2   -201.5604788  0.757560E-03  0.745E-02    1.08       1.0  T
   3   -201.5102090  0.502699E-01  0.428E-01    0.99       1.0  T
   4   -201.5589554 -0.487464E-01  0.902E-02    1.07       1.0  T
   5   -201.5612411 -0.228571E-02  0.504E-03    1.09       1.8  T
   6   -201.5611800  0.611233E-04  0.149E-02    1.08       1.0  T
   7   -201.5611851 -0.517427E-05  0.145E-02    1.09       1.0  T
   8   -201.5612397 -0.545792E-04  0.431E-03    1.09       2.1  T
   9   -201.5612382  0.154783E-05  0.474E-03    1.09       1.9  T
  10   -201.5612437 -0.551475E-05  0.178E-03    1.09       5.0  T
  11   -201.5612446 -0.887652E-06  0.159E-04    1.09      56.6  T
  12   -201.5612446 -0.374934E-08  0.720E-05    1.09     124.8  T
     SCC iter.                  ...        0 min,  0.707 sec
     gradient                   ...        0 min,  0.049 sec
 * total energy  :  -198.2980292 Eh     change       -0.4889487E-03 Eh
   gradient norm :     0.0054678 Eh/α   predicted    -0.4294186E-03 ( -12.18%)
   displ. norm   :     0.7513654 α      lambda       -0.5407414E-03
   maximum displ.:     0.4396650 α      in ANC's #3, #9, #10, ...

........................................................................
.............................. CYCLE   38 ..............................
........................................................................

 iter      E             dE          RMSdq      gap      omega  full diag
   1   -201.5571270 -0.201557E+03  0.941E-02    1.09       0.0  T
   2   -201.5570330  0.940330E-04  0.585E-02    1.09       1.0  T
   3   -201.5093831  0.476499E-01  0.412E-01    0.99       1.0  T
   4   -201.5569474 -0.475643E-01  0.265E-02    1.08       1.0  T
   5   -201.5571333 -0.185933E-03  0.350E-03    1.09       2.6  T
   6   -201.5571211  0.122286E-04  0.701E-03    1.08       1.3  T
   7   -201.5571022  0.188854E-04  0.107E-02    1.08       1.0  T
   8   -201.5571338 -0.316053E-04  0.104E-03    1.09       8.6  T
   9   -201.5571313  0.252942E-05  0.313E-03    1.09       2.9  T
  10   -201.5571328 -0.151414E-05  0.214E-03    1.09       4.2  T
  11   -201.5571341 -0.126940E-05  0.272E-04    1.09      33.0  T
  12   -201.5571341  0.266289E-08  0.287E-04    1.09      31.3  T
  13   -201.5571341 -0.189962E-07  0.127E-04    1.09      70.8  T
     SCC iter.                  ...        0 min,  0.993 sec
     gradient                   ...        0 min,  0.059 sec
 * total energy  :  -198.2984685 Eh     change       -0.4392983E-03 Eh
   gradient norm :     0.0056449 Eh/α   predicted    -0.4230145E-03 (  -3.71%)
   displ. norm   :     0.6770795 α      lambda       -0.4910519E-03
   maximum displ.:     0.3971367 α      in ANC's #3, #10, #19, ...

........................................................................
.............................. CYCLE   39 ..............................
........................................................................

 iter      E             dE          RMSdq      gap      omega  full diag
   1   -201.5607821 -0.201561E+03  0.824E-02    1.08       0.0  T
   2   -201.5556847  0.509740E-02  0.142E-01    1.07       1.0  T
   3   -201.5342431  0.214416E-01  0.309E-01    1.04       1.0  T
   4   -201.5599731 -0.257300E-01  0.542E-02    1.08       1.0  T
   5   -201.5607409 -0.767766E-03  0.146E-02    1.08       1.0  T
   6   -201.5607959 -0.549672E-04  0.454E-03    1.08       2.0  T
   7   -201.5608010 -0.517237E-05  0.113E-03    1.08       7.9  T
   8   -201.5608003  0.776029E-06  0.186E-03    1.08       4.8  T
   9   -201.5608012 -0.955084E-06  0.281E-04    1.08      32.0  T
  10   -201.5608011  0.641144E-07  0.517E-04    1.08      17.4  T
     SCC iter.                  ...        0 min,  0.721 sec
     gradient                   ...        0 min,  0.050 sec
 * total energy  :  -198.2988642 Eh     change       -0.3957434E-03 Eh
   gradient norm :     0.0051764 Eh/α   predicted    -0.3580876E-03 (  -9.52%)
   displ. norm   :     0.7319452 α      lambda       -0.4415440E-03
   maximum displ.:     0.4449328 α      in ANC's #3, #9, #10, ...

........................................................................
.............................. CYCLE   40 ..............................
........................................................................

 iter      E             dE          RMSdq      gap      omega  full diag
   1   -201.5576122 -0.201558E+03  0.902E-02    1.09       0.0  T
   2   -201.5527576  0.485454E-02  0.142E-01    1.07       1.0  T
   3   -201.5263621  0.263955E-01  0.335E-01    1.03       1.0  T
   4   -201.5572199 -0.308577E-01  0.397E-02    1.08       1.0  T
   5   -201.5574618 -0.241939E-03  0.244E-02    1.08       1.0  T
   6   -201.5576284 -0.166572E-03  0.380E-03    1.08       2.4  T
   7   -201.5576310 -0.263158E-05  0.133E-03    1.08       6.8  T
   8   -201.5576239  0.713093E-05  0.501E-03    1.08       1.8  T
   9   -201.5576311 -0.718828E-05  0.406E-04    1.08      22.1  T
  10   -201.5576310  0.366304E-07  0.480E-04    1.08      18.7  T
  11   -201.5576311 -0.187525E-07  0.384E-04    1.08      23.4  T
     SCC iter.                  ...        0 min,  0.834 sec
     gradient                   ...        0 min,  0.048 sec
 * total energy  :  -198.2992270 Eh     change       -0.3628270E-03 Eh
   gradient norm :     0.0063168 Eh/α   predicted    -0.3390534E-03 (  -6.55%)
   displ. norm   :     0.6254113 α      lambda       -0.4960749E-03
   maximum displ.:     0.3934477 α      in ANC's #3, #10, #19, ...

........................................................................
.............................. CYCLE   41 ..............................
........................................................................

 iter      E             dE          RMSdq      gap      omega  full diag
   1   -201.5645353 -0.201565E+03  0.726E-02    1.09       0.0  T
   2   -201.5628840  0.165126E-02  0.882E-02    1.07       1.0  T
   3   -201.5312497  0.316343E-01  0.344E-01    1.03       1.0  T
   4   -201.5644895 -0.332397E-01  0.168E-02    1.08       1.0  T
   5   -201.5644093  0.801176E-04  0.219E-02    1.08       1.0  T
   6   -201.5645447 -0.135389E-03  0.250E-03    1.08       3.6  T
   7   -201.5645435  0.123009E-05  0.276E-03    1.08       3.3  T
   8   -201.5645371  0.635956E-05  0.538E-03    1.08       1.7  T
   9   -201.5645450 -0.787245E-05  0.110E-03    1.08       8.2  T
  10   -201.5645452 -0.190994E-06  0.703E-04    1.08      12.8  T
  11   -201.5645453 -0.121927E-06  0.234E-04    1.08      38.5  T
     SCC iter.                  ...        0 min,  0.852 sec
     gradient                   ...        0 min,  0.045 sec
 * total energy  :  -198.2995794 Eh     change       -0.3523347E-03 Eh
   gradient norm :     0.0061092 Eh/α   predicted    -0.3450554E-03 (  -2.07%)
   displ. norm   :     0.7132032 α      lambda       -0.4489725E-03
   maximum displ.:     0.4540792 α      in ANC's #3, #9, #8, ...

........................................................................
.............................. CYCLE   42 ..............................
........................................................................

 iter      E             dE          RMSdq      gap      omega  full diag
   1   -201.5591829 -0.201559E+03  0.863E-02    1.09       0.0  T
   2   -201.5525570  0.662593E-02  0.162E-01    1.07       1.0  T
   3   -201.5358167  0.167403E-01  0.290E-01    1.05       1.0  T
   4   -201.5591873 -0.233706E-01  0.124E-02    1.09       1.0  T
   5   -201.5590956  0.916887E-04  0.202E-02    1.08       1.0  T
   6   -201.5592031 -0.107447E-03  0.514E-03    1.09       1.7  T
   7   -201.5592049 -0.182095E-05  0.368E-03    1.09       2.4  T
   8   -201.5592062 -0.131823E-05  0.273E-03    1.09       3.3  T
   9   -201.5592075 -0.132106E-05  0.156E-03    1.09       5.8  T
  10   -201.5592082 -0.649412E-06  0.293E-04    1.09      30.6  T
  11   -201.5592082 -0.166238E-07  0.635E-05    1.09     141.5  T
     SCC iter.                  ...        0 min,  0.714 sec
     gradient                   ...        0 min,  0.049 sec
 * total energy  :  -198.2999128 Eh     change       -0.3334127E-03 Eh
   gradient norm :     0.0063538 Eh/α   predicted    -0.3386784E-03 (   1.58%)
   displ. norm   :     0.5746425 α      lambda       -0.3071176E-03
   maximum displ.:     0.3812090 α      in ANC's #3, #9, #8, ...
 * RMSD in coord.:     1.0162112 α      energy gain  -0.1073025E-01 Eh

generating ANC from model Hessian ...
Using Lindh-Hessian (1995)
 Shifting diagonal of input Hessian by    9.9802231090040921E-003
 Lowest  eigenvalues of input Hessian
    0.000000    0.000000    0.000000    0.000000    0.000000    0.000000
    0.010000    0.010040    0.010056    0.010065    0.010073    0.010132
    0.010278    0.010429    0.010588    0.010766    0.010804    0.010941
 Highest eigenvalues
    2.169457    2.171643    2.296519    2.296694    2.496554    2.497967


........................................................................
.............................. CYCLE   43 ..............................
........................................................................

 iter      E             dE          RMSdq      gap      omega  full diag
   1   -201.5578407 -0.201558E+03  0.661E-02    1.09       0.0  T
   2   -201.5558445  0.199618E-02  0.920E-02    1.08       1.0  T
   3   -201.5316916  0.241529E-01  0.306E-01    1.04       1.0  T
   4   -201.5571065 -0.254149E-01  0.508E-02    1.08       1.0  T
   5   -201.5578399 -0.733426E-03  0.610E-03    1.09       1.5  T
   6   -201.5578464 -0.646974E-05  0.361E-03    1.09       2.5  T
   7   -201.5578496 -0.322586E-05  0.114E-03    1.09       7.9  T
   8   -201.5578497 -0.710438E-07  0.842E-04    1.09      10.7  T
   9   -201.5578498 -0.135870E-06  0.391E-04    1.09      23.0  T
     SCC iter.                  ...        0 min,  0.479 sec
     gradient                   ...        0 min,  0.050 sec
 * total energy  :  -198.3001682 Eh     change       -0.2554674E-03 Eh
   gradient norm :     0.0061109 Eh/α   predicted     0.0000000E+00 (-100.00%)
   displ. norm   :     0.0760119 α      lambda       -0.1348392E-03
   maximum displ.:     0.0331235 α      in ANC's #3, #13, #22, ...

........................................................................
.............................. CYCLE   44 ..............................
........................................................................

 iter      E             dE          RMSdq      gap      omega  full diag
   1   -201.5619350 -0.201562E+03  0.131E-02    1.09       0.0  T
   2   -201.5616760  0.259024E-03  0.314E-02    1.08       1.0  T
   3   -201.5615046  0.171374E-03  0.396E-02    1.08       1.0  T
   4   -201.5619346 -0.429976E-03  0.339E-03    1.09       2.6  T
   5   -201.5619361 -0.155000E-05  0.136E-03    1.09       6.6  T
   6   -201.5619363 -0.173365E-06  0.876E-04    1.09      10.3  T
   7   -201.5619363  0.305425E-07  0.715E-04    1.09      12.6  T
     SCC iter.                  ...        0 min,  0.428 sec
     gradient                   ...        0 min,  0.050 sec
 * total energy  :  -198.3002777 Eh     change       -0.1094792E-03 Eh
   gradient norm :     0.0024675 Eh/α   predicted    -0.6958297E-04 ( -36.44%)
   displ. norm   :     0.1998398 α      lambda       -0.1959602E-03
   maximum displ.:     0.0897372 α      in ANC's #3, #13, #22, ...

[...]
    25   6 C    3.979 --    28 C    1.449    26 C    1.313    29 C    1.031
    26   6 C    3.978 --    27 C    1.529    25 C    1.313   121 H    0.967
    27   6 C    3.982 --    26 C    1.529    22 C    1.305   122 H    0.968
                            28 C    0.102
    28   6 C    3.983 --    25 C    1.449    21 C    1.328   120 H    0.956
                            27 C    0.102
    29   6 C    3.971 --    35 N    1.406    31 N    1.401    25 C    1.031
    30   6 C    3.971 --    37 N    1.406    41 N    1.400     3 C    1.032
    31   7 N    2.751 --    29 C    1.401    32 N    1.052    35 N    0.128
    32   7 N    3.547 --    33 C    1.118    52 C    1.083    31 N    1.052
                            36 O    0.118
    33   6 C    3.959 --    36 O    1.590    32 N    1.118    34 N    1.117
    34   7 N    3.533 --    33 C    1.117    58 C    1.069    35 N    1.053
                            36 O    0.122
    35   7 N    2.754 --    29 C    1.406    34 N    1.053    31 N    0.128
    36   8 O    1.959 --    33 C    1.590    34 N    0.122    32 N    0.118
    37   7 N    2.754 --    30 C    1.406    38 N    1.055    41 N    0.127
    38   7 N    3.534 --    39 C    1.116    70 C    1.069    37 N    1.055
                            42 O    0.122
    39   6 C    3.959 --    42 O    1.589    40 N    1.120    38 N    1.116
    40   7 N    3.546 --    39 C    1.120    64 C    1.080    41 N    1.054
                            42 O    0.119
    41   7 N    2.751 --    30 C    1.400    40 N    1.054    37 N    0.127
    42   8 O    1.958 --    39 C    1.589    38 N    0.122    40 N    0.119
    43   7 N    3.532 --    12 C    1.129    16 C    1.129    51 C    1.017
    44  14 Si   3.617 --    50 C    0.901    49 C    0.900    48 C    0.892
                            45 C    0.853
    45   6 C    3.972 --    46 C    1.022    96 H    0.980    95 H    0.980
                            44 Si   0.853
    46   6 C    3.949 --    45 C    1.022    47 O    0.973    97 H    0.971
                            98 H    0.970
    47   8 O    2.070 --    46 C    0.973    51 C    0.972
    48   6 C    3.979 --    90 H    0.992    91 H    0.988    89 H    0.988
                            44 Si   0.892
    49   6 C    3.980 --    87 H    0.988    86 H    0.988    88 H    0.987
                            44 Si   0.900
    50   6 C    3.981 --    94 H    0.988    92 H    0.988    93 H    0.986
                            44 Si   0.901
    51   6 C    3.957 --    43 N    1.017    47 O    0.972    99 H    0.955
                           100 H    0.954
    52   6 C    3.956 --    57 C    1.355    53 C    1.339    32 N    1.083
    53   6 C    3.970 --    54 C    1.471    52 C    1.339    85 H    0.962
                            56 C    0.102
    54   6 C    3.991 --    53 C    1.471    55 C    1.417    84 H    0.971
                            57 C    0.101
    55   6 C    3.965 --    56 C    1.427    54 C    1.417    83 H    0.972
    56   6 C    3.990 --    57 C    1.458    55 C    1.427    82 H    0.972
                            53 C    0.102
    57   6 C    3.968 --    56 C    1.458    52 C    1.355    81 H    0.958
                            54 C    0.101
    58   6 C    3.958 --    59 C    1.362    63 C    1.352    34 N    1.069
    59   6 C    3.973 --    60 C    1.456    58 C    1.362    80 H    0.965
                            62 C    0.103
    60   6 C    3.990 --    59 C    1.456    61 C    1.429    79 H    0.972
                            63 C    0.104
    61   6 C    3.968 --    60 C    1.429    62 C    1.421    78 H    0.972
    62   6 C    3.991 --    63 C    1.467    61 C    1.421    77 H    0.971
                            59 C    0.103
    63   6 C    3.972 --    62 C    1.467    58 C    1.352    76 H    0.963
                            60 C    0.104
    64   6 C    3.956 --    65 C    1.356    69 C    1.342    40 N    1.080
    65   6 C    3.969 --    66 C    1.457    64 C    1.356   110 H    0.959
                            68 C    0.101
    66   6 C    3.990 --    65 C    1.457    67 C    1.427   111 H    0.972
                            69 C    0.103
    67   6 C    3.965 --    66 C    1.427    68 C    1.418   112 H    0.972
    68   6 C    3.991 --    69 C    1.470    67 C    1.418   113 H    0.971
                            65 C    0.101
    69   6 C    3.970 --    68 C    1.470    64 C    1.342   114 H    0.962
                            66 C    0.103
    70   6 C    3.958 --    75 C    1.362    71 C    1.351    38 N    1.069
    71   6 C    3.972 --    72 C    1.467    70 C    1.351   105 H    0.963
                            74 C    0.104
    72   6 C    3.991 --    71 C    1.467    73 C    1.420   106 H    0.971
                            75 C    0.103
    73   6 C    3.968 --    74 C    1.429    72 C    1.420   107 H    0.972
    74   6 C    3.990 --    75 C    1.456    73 C    1.429   108 H    0.972
                            71 C    0.104
    75   6 C    3.972 --    74 C    1.456    70 C    1.362   109 H    0.965
                            72 C    0.103
    76   1 H    0.996 --    63 C    0.963
    77   1 H    0.999 --    62 C    0.971
    78   1 H    1.000 --    61 C    0.972
    79   1 H    0.999 --    60 C    0.972
    80   1 H    0.997 --    59 C    0.965
    81   1 H    0.996 --    57 C    0.958
    82   1 H    0.999 --    56 C    0.972
    83   1 H    1.000 --    55 C    0.972
    84   1 H    0.999 --    54 C    0.971
    85   1 H    0.997 --    53 C    0.962
    86   1 H    0.999 --    49 C    0.988
    87   1 H    0.999 --    49 C    0.988
    88   1 H    0.999 --    49 C    0.987
    89   1 H    0.999 --    48 C    0.988
    90   1 H    0.999 --    48 C    0.992
    91   1 H    0.999 --    48 C    0.988
    92   1 H    0.999 --    50 C    0.988
    93   1 H    0.999 --    50 C    0.986
    94   1 H    0.999 --    50 C    0.988
    95   1 H    0.998 --    45 C    0.980
    96   1 H    0.998 --    45 C    0.980
    97   1 H    1.000 --    46 C    0.971
    98   1 H    1.000 --    46 C    0.970
    99   1 H    0.999 --    51 C    0.955
   100   1 H    0.999 --    51 C    0.954
   101   1 H    0.998 --    13 C    0.964
   102   1 H    0.998 --    14 C    0.968
   103   1 H    0.998 --     9 C    0.967
   104   1 H    0.998 --    10 C    0.968
   105   1 H    0.996 --    71 C    0.963
   106   1 H    0.999 --    72 C    0.971
   107   1 H    1.000 --    73 C    0.972
   108   1 H    0.999 --    74 C    0.972
   109   1 H    0.997 --    75 C    0.965
   110   1 H    0.996 --    65 C    0.959
   111   1 H    0.999 --    66 C    0.972
   112   1 H    1.000 --    67 C    0.972
   113   1 H    0.999 --    68 C    0.971
   114   1 H    0.997 --    69 C    0.962
   115   1 H    0.998 --    19 C    0.969
   116   1 H    0.998 --    20 C    0.966
   117   1 H    0.998 --     1 C    0.968
   118   1 H    0.997 --     2 C    0.967
   119   1 H    0.996 --     4 C    0.956
   120   1 H    0.996 --    28 C    0.956
   121   1 H    0.997 --    26 C    0.967
   122   1 H    0.998 --    27 C    0.968
   123   1 H    0.998 --    23 C    0.968
   124   1 H    0.998 --    24 C    0.967
 ---------------------------------------------------------------------------

Topologies differ in bond orders
Writing corrected topology to xtbtopo.mol

molecular dipole:
                 x           y           z       tot (Debye)
 q only:        2.976       0.891       3.435
   full:        3.045       1.060       3.250      11.635
molecular quadrupole (traceless):
                xx          xy          yy          xz          yz          zz
 q only:       17.010      60.733     -42.083     -21.536      20.576      25.073
  q+dip:       23.838      59.753     -26.961     -25.124      20.874       3.123
   full:       14.167      59.647     -36.383     -27.569      16.351      22.216

           -------------------------------------------------
          |                Geometry Summary                 |
           -------------------------------------------------

      molecular mass/u    :      996.1987649
   center of mass at/Å    :        0.8460310       0.9480308      -1.0662635
  moments of inertia/u·Å² :        0.1441119E+05   0.2285138E+05   0.3447869E+05
rotational constants/cm⁻¹ :        0.1169760E-02   0.7377075E-03   0.4889291E-03

 * 128 selected distances

     #   Z          #   Z                                           value/Å
     1   6 C        2   6 C                                       1.3698092
     2   6 C        3   6 C                                       1.4021510
     3   6 C        4   6 C                                       1.3784973
     4   6 C        5   6 C                                       1.3983822
     1   6 C        6   6 C                                       1.4058862
     5   6 C        6   6 C                                       1.4152579
     7   6 C        8   6 C                                       1.4139976
     8   6 C        9   6 C                                       1.4233462
     6   6 C       10   6 C                                       1.4204908
     9   6 C       10   6 C                                       1.3542943
     7   6 C       11   6 C                                       1.4208751
    11   6 C       12   6 C                                       1.4123693
    12   6 C       13   6 C                                       1.3954901
     8   6 C       14   6 C                                       1.4086641
    13   6 C       14   6 C                                       1.3686816
    15   6 C       16   6 C                                       1.4112825
    15   6 C       17   6 C                                       1.4210933
    17   6 C       18   6 C                                       1.4140122
    18   6 C       19   6 C                                       1.4091194
    16   6 C       20   6 C                                       1.3952832
    19   6 C       20   6 C                                       1.3686598
    17   6 C       21   6 C                                       1.4352109
    21   6 C       22   6 C                                       1.4150598
    22   6 C       23   6 C                                       1.4202747
    18   6 C       24   6 C                                       1.4232434
    23   6 C       24   6 C                                       1.3543768
    25   6 C       26   6 C                                       1.4020396
    22   6 C       27   6 C                                       1.4059469
    26   6 C       27   6 C                                       1.3699245
    21   6 C       28   6 C                                       1.3982120
    25   6 C       28   6 C                                       1.3783242
    29   6 C       31   7 N                                       1.3153359
    32   7 N       33   6 C                                       1.3829532
    33   6 C       34   7 N                                       1.3831874
    29   6 C       35   7 N                                       1.3138815
    33   6 C       36   8 O                                       1.2186442
    30   6 C       37   7 N                                       1.3141424
    38   7 N       39   6 C                                       1.3833984
    39   6 C       40   7 N                                       1.3821161
    30   6 C       41   7 N                                       1.3155835
    39   6 C       42   8 O                                       1.2185866
    12   6 C       43   7 N                                       1.3772741
    16   6 C       43   7 N                                       1.3769654
    44  14 Si      45   6 C                                       1.9104394
    45   6 C       46   6 C                                       1.5173117
    46   6 C       47   8 O                                       1.4077536
    44  14 Si      48   6 C                                       1.9078881
    44  14 Si      49   6 C                                       1.9106548 (max)
    44  14 Si      50   6 C                                       1.9106196
    43   7 N       51   6 C                                       1.4182185
    47   8 O       51   6 C                                       1.4083489
    32   7 N       52   6 C                                       1.3979075
    52   6 C       53   6 C                                       1.4008532
    53   6 C       54   6 C                                       1.3775332
    54   6 C       55   6 C                                       1.3857961
    55   6 C       56   6 C                                       1.3846084
    52   6 C       57   6 C                                       1.3965072
    56   6 C       57   6 C                                       1.3817562
    34   7 N       58   6 C                                       1.3987083
    58   6 C       59   6 C                                       1.3945667
    59   6 C       60   6 C                                       1.3817606
    60   6 C       61   6 C                                       1.3851437
    61   6 C       62   6 C                                       1.3863123
    58   6 C       63   6 C                                       1.3975677
    62   6 C       63   6 C                                       1.3787445
    40   7 N       64   6 C                                       1.3984931
    64   6 C       65   6 C                                       1.3960752
    65   6 C       66   6 C                                       1.3818219
    66   6 C       67   6 C                                       1.3846454
    67   6 C       68   6 C                                       1.3858910
    64   6 C       69   6 C                                       1.4001400
    68   6 C       69   6 C                                       1.3777197
    38   7 N       70   6 C                                       1.3987021
    70   6 C       71   6 C                                       1.3977320
    71   6 C       72   6 C                                       1.3786523
    72   6 C       73   6 C                                       1.3863309
    73   6 C       74   6 C                                       1.3850797
    70   6 C       75   6 C                                       1.3945865
    74   6 C       75   6 C                                       1.3818161
    63   6 C       76   1 H                                       1.0780663
    62   6 C       77   1 H                                       1.0810270
    61   6 C       78   1 H                                       1.0809126
    60   6 C       79   1 H                                       1.0813448
    59   6 C       80   1 H                                       1.0767897
    57   6 C       81   1 H                                       1.0755192 (min)
    56   6 C       82   1 H                                       1.0816793
    55   6 C       83   1 H                                       1.0811593
    54   6 C       84   1 H                                       1.0812692
    53   6 C       85   1 H                                       1.0764137
    49   6 C       86   1 H                                       1.0859907
    49   6 C       87   1 H                                       1.0859605
    49   6 C       88   1 H                                       1.0859486
    48   6 C       89   1 H                                       1.0854160
    48   6 C       90   1 H                                       1.0854072
    48   6 C       91   1 H                                       1.0853574
    50   6 C       92   1 H                                       1.0860117
    50   6 C       93   1 H                                       1.0859368
    50   6 C       94   1 H                                       1.0859744
    45   6 C       95   1 H                                       1.0898613
    45   6 C       96   1 H                                       1.0897953
    46   6 C       97   1 H                                       1.1020015
    46   6 C       98   1 H                                       1.1023462
Note: The following floating-point exceptions are signalling: IEEE_UNDERFLOW_FLAG
normal termination of xtb
    51   6 C       99   1 H                                       1.1055813
    51   6 C      100   1 H                                       1.1037692
    13   6 C      101   1 H                                       1.0800854
    14   6 C      102   1 H                                       1.0805096
     9   6 C      103   1 H                                       1.0812719
    10   6 C      104   1 H                                       1.0817466
    71   6 C      105   1 H                                       1.0780597
    72   6 C      106   1 H                                       1.0810294
    73   6 C      107   1 H                                       1.0809078
    74   6 C      108   1 H                                       1.0813393
    75   6 C      109   1 H                                       1.0766742
    65   6 C      110   1 H                                       1.0756578
    66   6 C      111   1 H                                       1.0817130
    67   6 C      112   1 H                                       1.0812009
    68   6 C      113   1 H                                       1.0809828
    69   6 C      114   1 H                                       1.0766266
    19   6 C      115   1 H                                       1.0804434
    20   6 C      116   1 H                                       1.0797928
     1   6 C      117   1 H                                       1.0821784
     2   6 C      118   1 H                                       1.0785205
     4   6 C      119   1 H                                       1.0756782
    28   6 C      120   1 H                                       1.0756263
    26   6 C      121   1 H                                       1.0785587
    27   6 C      122   1 H                                       1.0821876
    23   6 C      123   1 H                                       1.0817610
    24   6 C      124   1 H                                       1.0812468

 * 5 distinct bonds (by element types)

   Z      Z             #   av. dist./Å        max./Å        min./Å
   1 H    6 C          49     1.0831293     1.1055813     1.0755192
   6 C    6 C          56     1.3969502     1.5173117     1.3542943
   6 C    7 N          15     1.3704578     1.4182185     1.3138815
   6 C    8 O           4     1.3133333     1.4083489     1.2185866
   6 C   14 Si          4     1.9099005     1.9106548     1.9078881


optimized geometry written to: xtbopt.mol


           -------------------------------------------------
          | TOTAL ENERGY             -198.304045696494 Eh   |
          | GRADIENT NORM               0.000372683594 Eh/α |
          | HOMO-LUMO GAP               1.065202884678 eV   |
           -------------------------------------------------
########################################################################
[WARNING] Runtime exception occurred
-2- restart_readRestart: Multiplicity missmatch in restart file.
-1- restart_readRestart: Number of electron missmatch in restart file.
########################################################################

------------------------------------------------------------------------
 * finished run on 2024/11/14 at 14:18:47.356     
------------------------------------------------------------------------
 total:
 * wall-time:     0 d,  0 h,  1 min, 26.946 sec
 *  cpu-time:     0 d,  0 h,  5 min,  8.366 sec
 * ratio c/w:     3.547 speedup
 SCF:
 * wall-time:     0 d,  0 h,  0 min,  2.375 sec
 *  cpu-time:     0 d,  0 h,  0 min,  9.392 sec
 * ratio c/w:     3.955 speedup
 ANC optimizer:
 * wall-time:     0 d,  0 h,  1 min, 24.514 sec
 *  cpu-time:     0 d,  0 h,  4 min, 58.928 sec
 * ratio c/w:     3.537 speedup

