      -----------------------------------------------------------      
     |                   =====================                   |     
     |                           x T B                           |     
     |                   =====================                   |     
     |                         S. Grimme                         |     
     |          Mulliken Center for Theoretical Chemistry        |     
     |                    University of Bonn                     |     
      -----------------------------------------------------------      

   * xtb version 6.6.1 (8d0f1dd) compiled by 'runner@Mac-1690902418499.local' on 2023-08-01

   xtb is free software: you can redistribute it and/or modify it under
   the terms of the GNU Lesser General Public License as published by
   the Free Software Foundation, either version 3 of the License, or
   (at your option) any later version.
   
   xtb is distributed in the hope that it will be useful,
   but WITHOUT ANY WARRANTY; without even the implied warranty of
   MERCHANTABILITY or FITNESS FOR A PARTICULAR PURPOSE.  See the
   GNU Lesser General Public License for more details.
   
   Cite this work as:
   * C. Bannwarth, E. Caldeweyher, S. Ehlert, A. Hansen, P. Pracht,
     J. Seibert, S. Spicher, S. Grimme, WIREs Comput. Mol. Sci., 2020, 11,
     e01493. DOI: 10.1002/wcms.1493
   
   for GFN2-xTB:
   * C. Bannwarth, S. Ehlert and S. Grimme., J. Chem. Theory Comput., 2019,
     15, 1652-1671. DOI: 10.1021/acs.jctc.8b01176
   for GFN1-xTB:
   * S. Grimme, C. Bannwarth, P. Shushkov, J. Chem. Theory Comput., 2017,
     13, 1989-2009. DOI: 10.1021/acs.jctc.7b00118
   for GFN0-xTB:
   * P. Pracht, E. Caldeweyher, S. Ehlert, S. Grimme, ChemRxiv, 2019, preprint.
     DOI: 10.26434/chemrxiv.8326202.v1
   for GFN-FF:
   * S. Spicher and S. Grimme, Angew. Chem. Int. Ed., 2020, 59, 15665-15673.
     DOI: 10.1002/anie.202004239
   
   for ALPB and GBSA implicit solvation:
   * S. Ehlert, M. Stahn, S. Spicher, S. Grimme, J. Chem. Theory Comput.,
     2021, 17, 4250-4261. DOI: 10.1021/acs.jctc.1c00471
   
   for DFT-D4:
   * E. Caldeweyher, C. Bannwarth and S. Grimme, J. Chem. Phys., 2017,
     147, 034112. DOI: 10.1063/1.4993215
   * E. Caldeweyher, S. Ehlert, A. Hansen, H. Neugebauer, S. Spicher,
     C. Bannwarth and S. Grimme, J. Chem. Phys., 2019, 150, 154122.
     DOI: 10.1063/1.5090222
   * E. Caldeweyher, J.-M. Mewes, S. Ehlert and S. Grimme, Phys. Chem. Chem. Phys.
     2020, 22, 8499-8512. DOI: 10.1039/D0CP00502A
   
   for sTDA-xTB:
   * S. Grimme and C. Bannwarth, J. Chem. Phys., 2016, 145, 054103.
     DOI: 10.1063/1.4959605
   
   in the mass-spec context:
   * V. Asgeirsson, C. Bauer and S. Grimme, Chem. Sci., 2017, 8, 4879.
     DOI: 10.1039/c7sc00601b
   * J. Koopman and S. Grimme, ACS Omega 2019, 4, 12, 15120-15133.
     DOI: 10.1021/acsomega.9b02011
   
   for metadynamics refer to:
   * S. Grimme, J. Chem. Theory Comput., 2019, 155, 2847-2862
     DOI: 10.1021/acs.jctc.9b00143
   
   for SPH calculations refer to:
   * S. Spicher and S. Grimme, J. Chem. Theory Comput., 2021, 17, 1701-1714
     DOI: 10.1021/acs.jctc.0c01306
   
   with help from (in alphabetical order)
   P. Atkinson, C. Bannwarth, F. Bohle, G. Brandenburg, E. Caldeweyher
   M. Checinski, S. Dohm, S. Ehlert, S. Ehrlich, I. Gerasimov, C. Hölzer
   A. Katbashev, J. Koopman, C. Lavigne, S. Lehtola, F. März, M. Müller,
   F. Musil, H. Neugebauer, J. Pisarek, C. Plett, P. Pracht, F. Pultar,
   J. Seibert, P. Shushkov, S. Spicher, M. Stahn, M. Steiner, T. Strunk,
   J. Stückrath, T. Rose, and J. Unsleber
   
 * started run on 2024/11/14 at 14:21:29.251     

           -------------------------------------------------
          |                Calculation Setup                |
           -------------------------------------------------

          program call               : xtb opt_radical_Verdazyl3.mol --gfn2 --sp --chrg -1 --uhf 1
          coordinate file            : opt_radical_Verdazyl3.mol
          omp threads                :                     8

   ID    Z sym.   atoms
    1    6 C      1-30, 33, 39, 45, 46, 48-75
    2    7 N      31, 32, 34, 35, 37, 38, 40, 41, 43
    3    8 O      36, 42, 47
    4   14 Si     44
    5    1 H      76-124

           -------------------------------------------------
          |                 G F N 2 - x T B                 |
           -------------------------------------------------

        Reference                      10.1021/acs.jctc.8b01176
      * Hamiltonian:
        H0-scaling (s, p, d)           1.850000    2.230000    2.230000
        zeta-weighting                 0.500000
      * Dispersion:
        s8                             2.700000
        a1                             0.520000
        a2                             5.000000
        s9                             5.000000
      * Repulsion:
        kExp                           1.500000    1.000000
        rExp                           1.000000
      * Coulomb:
        alpha                          2.000000
        third order                    shell-resolved
        anisotropic                    true
        a3                             3.000000
        a5                             4.000000
        cn-shift                       1.200000
        cn-exp                         4.000000
        max-rad                        5.000000

q/qsh data taken from xtbrestart
CAMM data taken from xtbrestart

          ...................................................
          :                      SETUP                      :
          :.................................................:
          :  # basis functions                 355          :
          :  # atomic orbitals                 354          :
          :  # shells                          200          :
          :  # electrons                       365          :
          :  max. iterations                   250          :
          :  Hamiltonian                  GFN2-xTB          :
          :  restarted?                       true          :
          :  GBSA solvation                  false          :
          :  PC potential                    false          :
          :  electronic temp.          300.0000000     K    :
          :  accuracy                    1.0000000          :
          :  -> integral cutoff          0.2500000E+02      :
          :  -> integral neglect         0.1000000E-07      :
          :  -> SCF convergence          0.1000000E-05 Eh   :
          :  -> wf. convergence          0.1000000E-03 e    :
          :  Broyden damping             0.4000000          :
          ...................................................

 iter      E             dE          RMSdq      gap      omega  full diag
   1   -201.5472895 -0.201547E+03  0.629E-01    1.59       0.0  T
   2   -201.5086985  0.385910E-01  0.620E-01    0.75       1.0  T
   3   -201.4935567  0.151419E-01  0.641E-01    0.54       1.0  T
   4   -201.5496697 -0.561130E-01  0.351E-01    0.94       1.0  T
   5   -201.5255701  0.240996E-01  0.452E-01    0.76       1.0  T
   6   -201.5601017 -0.345316E-01  0.234E-01    0.82       1.0  T
   7   -201.5514697  0.863199E-02  0.285E-01    0.84       1.0  T
   8   -201.5496227  0.184695E-02  0.295E-01    0.84       1.0  T
   9   -201.5703866 -0.207638E-01  0.104E-01    0.87       1.0  T
  10   -201.5729271 -0.254054E-02  0.384E-02    0.88       1.0  T
  11   -201.5732960 -0.368912E-03  0.968E-03    0.88       1.0  T
  12   -201.5733141 -0.180628E-04  0.456E-03    0.88       2.0  T
  13   -201.5733181 -0.406192E-05  0.225E-03    0.88       4.0  T
  14   -201.5733194 -0.124350E-05  0.376E-04    0.88      23.9  T
  15   -201.5733193  0.115749E-06  0.691E-04    0.88      13.0  T
  16   -201.5733194 -0.884217E-07  0.379E-04    0.88      23.7  T

   *** convergence criteria satisfied after 16 iterations ***

         #    Occupation            Energy/Eh            Energy/eV
      -------------------------------------------------------------
         1        2.0000           -0.7004217             -19.0594
       ...           ...                  ...                  ...
       177        2.0000           -0.2882555              -7.8438
       178        2.0000           -0.2760298              -7.5112
       179        2.0000           -0.2698452              -7.3429
       180        2.0000           -0.2552206              -6.9449
       181        2.0000           -0.2550761              -6.9410
       182        1.5208           -0.2142957              -5.8313
       183        1.4792           -0.2141375              -5.8270 (HOMO)
       184                         -0.1817155              -4.9447 (LUMO)
       185                         -0.1766412              -4.8067
       186                         -0.1640162              -4.4631
       187                         -0.1537930              -4.1849
       188                         -0.1478674              -4.0237
       ...                                ...                  ...
       354                          0.8266039              22.4930
      -------------------------------------------------------------
                  HL-Gap            0.0324220 Eh            0.8822 eV
             Fermi-level           -0.2059270 Eh           -5.6036 eV

 SCC (total)                   0 d,  0 h,  0 min,  1.518 sec
 SCC setup                      ...        0 min,  0.000 sec (  0.026%)
 Dispersion                     ...        0 min,  0.002 sec (  0.105%)
 classical contributions        ...        0 min,  0.000 sec (  0.021%)
 integral evaluation            ...        0 min,  0.008 sec (  0.499%)
 iterations                     ...        0 min,  1.435 sec ( 94.549%)
 molecular gradient             ...        0 min,  0.049 sec (  3.216%)
 printout                       ...        0 min,  0.024 sec (  1.583%)

         :::::::::::::::::::::::::::::::::::::::::::::::::::::
         ::                     SUMMARY                     ::
         :::::::::::::::::::::::::::::::::::::::::::::::::::::
         :: total energy            -198.300037081319 Eh    ::
         :: gradient norm              0.074444754703 Eh/a0 ::
         :: HOMO-LUMO gap              0.882246423395 eV    ::
         ::.................................................::
         :: SCC energy              -201.573319363928 Eh    ::
         :: -> isotropic ES            0.219501000129 Eh    ::
         :: -> anisotropic ES          0.020398637733 Eh    ::
         :: -> anisotropic XC          0.107632570056 Eh    ::
         :: -> dispersion             -0.210117440829 Eh    ::
         :: repulsion energy           3.266216099688 Eh    ::
         :: add. restraining           0.000000000000 Eh    ::
         :: total charge              -0.999989290284 e     ::
         :::::::::::::::::::::::::::::::::::::::::::::::::::::

           -------------------------------------------------
          |                Property Printout                |
           -------------------------------------------------

    * Orbital Energies and Occupations

         #    Occupation            Energy/Eh            Energy/eV
      -------------------------------------------------------------
         1        2.0000           -0.7004217             -19.0594
       ...           ...                  ...                  ...
       171        2.0000           -0.3084871              -8.3944
       172        2.0000           -0.3082652              -8.3883
       173        2.0000           -0.3046838              -8.2909
       174        2.0000           -0.2975098              -8.0957
       175        2.0000           -0.2949995              -8.0273
       176        2.0000           -0.2885396              -7.8516
       177        2.0000           -0.2882555              -7.8438
       178        2.0000           -0.2760298              -7.5112
       179        2.0000           -0.2698452              -7.3429
       180        2.0000           -0.2552206              -6.9449
       181        2.0000           -0.2550761              -6.9410
       182        1.5208           -0.2142957              -5.8313
       183        1.4792           -0.2141375              -5.8270 (HOMO)
       184                         -0.1817155              -4.9447 (LUMO)
       185                         -0.1766412              -4.8067
       186                         -0.1640162              -4.4631
       187                         -0.1537930              -4.1849
       188                         -0.1478674              -4.0237
       189                         -0.1462838              -3.9806
       190                         -0.1378143              -3.7501
       191                         -0.1375626              -3.7433
       192                         -0.1358346              -3.6962
       193                         -0.1343575              -3.6561
       194                         -0.1318357              -3.5874
       ...                                ...                  ...
       354                          0.8266039              22.4930
      -------------------------------------------------------------
                  HL-Gap            0.0324220 Eh            0.8822 eV
             Fermi-level           -0.2059270 Eh           -5.6036 eV

     #   Z          covCN         q      C6AA      α(0)
     1   6 C        2.921    -0.034    28.847     8.808
     2   6 C        2.918    -0.028    28.711     8.787
     3   6 C        2.987     0.000    28.010     8.682
     4   6 C        2.930    -0.035    28.862     8.810
     5   6 C        2.984     0.011    27.764     8.643
     6   6 C        2.989     0.014    27.697     8.633
     7   6 C        2.979     0.011    27.771     8.644
     8   6 C        2.986     0.004    27.929     8.669
     9   6 C        2.918    -0.035    28.877     8.812
    10   6 C        2.913    -0.033    28.833     8.805
    11   6 C        3.057    -0.019    28.422     8.743
    12   6 C        3.090     0.043    26.930     8.506
    13   6 C        2.908    -0.054    29.334     8.881
    14   6 C        2.927    -0.039    28.969     8.827
    15   6 C        3.055    -0.020    28.443     8.746
    16   6 C        3.095     0.044    26.913     8.503
    17   6 C        2.979     0.010    27.791     8.647
    18   6 C        2.986     0.004    27.934     8.670
    19   6 C        2.928    -0.039    28.974     8.827
    20   6 C        2.908    -0.053    29.315     8.878
    21   6 C        2.984     0.010    27.776     8.645
    22   6 C        2.988     0.014    27.700     8.633
    23   6 C        2.913    -0.034    28.836     8.806
    24   6 C        2.918    -0.035    28.874     8.812
    25   6 C        2.987     0.000    28.011     8.682
    26   6 C        2.918    -0.029    28.713     8.787
    27   6 C        2.921    -0.034    28.850     8.808
    28   6 C        2.930    -0.035    28.874     8.812
    29   6 C        2.876     0.161    24.512     8.116
    30   6 C        2.876     0.162    24.510     8.116
    31   7 N        1.933    -0.305    28.742     7.949
    32   7 N        2.843     0.010    21.078     6.819
    33   6 C        2.700     0.304    21.836     7.648
    34   7 N        2.851     0.007    21.137     6.828
    35   7 N        1.929    -0.299    28.579     7.927
    36   8 O        0.858    -0.472    23.181     6.455
    37   7 N        1.929    -0.298    28.570     7.925
    38   7 N        2.851     0.007    21.136     6.828
    39   6 C        2.700     0.304    21.836     7.648
    40   7 N        2.843     0.010    21.071     6.818
    41   7 N        1.933    -0.304    28.704     7.944
    42   8 O        0.858    -0.472    23.178     6.455
    43   7 N        2.795    -0.056    22.319     7.017
    44  14 Si       3.505     0.483   100.816    19.418
    45   6 C        3.698    -0.170    23.995     7.006
    46   6 C        3.714     0.094    19.149     6.252
    47   8 O        1.702    -0.320    19.350     5.939
    48   6 C        3.649    -0.209    25.019     7.186
    49   6 C        3.648    -0.207    24.983     7.181
    50   6 C        3.648    -0.207    24.984     7.181
    51   6 C        3.643     0.160    18.340     6.157
    52   6 C        2.929     0.067    26.497     8.442
    53   6 C        2.925    -0.042    29.055     8.840
    54   6 C        2.920    -0.032    28.793     8.799
    55   6 C        2.918    -0.045    29.122     8.849
    56   6 C        2.921    -0.035    28.861     8.810
    57   6 C        2.919    -0.050    29.251     8.869
    58   6 C        2.933     0.068    26.468     8.437
    59   6 C        2.919    -0.043    29.072     8.842
    60   6 C        2.922    -0.034    28.837     8.806
    61   6 C        2.919    -0.043    29.077     8.843
    62   6 C        2.920    -0.033    28.813     8.802
    63   6 C        2.924    -0.040    28.997     8.831
    64   6 C        2.929     0.067    26.503     8.443
    65   6 C        2.919    -0.051    29.260     8.870
    66   6 C        2.921    -0.035    28.867     8.811
    67   6 C        2.918    -0.045    29.117     8.849
    68   6 C        2.920    -0.031    28.785     8.798
    69   6 C        2.925    -0.042    29.041     8.837
    70   6 C        2.932     0.068    26.470     8.438
    71   6 C        2.924    -0.040    29.001     8.831
    72   6 C        2.920    -0.033    28.813     8.802
    73   6 C        2.919    -0.043    29.079     8.843
    74   6 C        2.922    -0.034    28.838     8.806
    75   6 C        2.918    -0.043    29.078     8.843
    76   1 H        0.926     0.058     2.227     2.334
    77   1 H        0.926     0.024     2.667     2.554
    78   1 H        0.926     0.015     2.807     2.620
    79   1 H        0.926     0.020     2.736     2.586
    80   1 H        0.926     0.051     2.303     2.373
    81   1 H        0.926     0.062     2.172     2.305
    82   1 H        0.926     0.018     2.763     2.600
    83   1 H        0.926     0.011     2.868     2.648
    84   1 H        0.926     0.017     2.778     2.607
    85   1 H        0.926     0.052     2.298     2.371
    86   1 H        0.925     0.031     2.571     2.507
    87   1 H        0.925     0.034     2.529     2.487
    88   1 H        0.925     0.038     2.480     2.463
    89   1 H        0.925     0.035     2.513     2.479
    90   1 H        0.925     0.028     2.613     2.528
    91   1 H        0.925     0.036     2.506     2.476
    92   1 H        0.925     0.032     2.564     2.504
    93   1 H        0.925     0.039     2.467     2.456
    94   1 H        0.925     0.034     2.529     2.487
    95   1 H        0.925     0.043     2.404     2.425
    96   1 H        0.925     0.043     2.412     2.429
    97   1 H        0.923     0.003     3.009     2.713
    98   1 H        0.923     0.002     3.018     2.717
    99   1 H        0.922     0.020     2.737     2.587
   100   1 H        0.923     0.023     2.690     2.565
   101   1 H        0.926     0.015     2.814     2.623
   102   1 H        0.926     0.025     2.660     2.550
   103   1 H        0.926     0.022     2.708     2.573
   104   1 H        0.925     0.022     2.699     2.569
   105   1 H        0.926     0.058     2.227     2.334
   106   1 H        0.926     0.024     2.669     2.555
   107   1 H        0.926     0.015     2.809     2.621
   108   1 H        0.926     0.020     2.737     2.587
   109   1 H        0.926     0.052     2.295     2.369
   110   1 H        0.926     0.062     2.175     2.306
   111   1 H        0.926     0.018     2.770     2.603
   112   1 H        0.926     0.011     2.867     2.648
   113   1 H        0.926     0.020     2.728     2.583
   114   1 H        0.926     0.053     2.281     2.362
   115   1 H        0.926     0.025     2.660     2.550
   116   1 H        0.926     0.019     2.747     2.592
   117   1 H        0.925     0.024     2.666     2.554
   118   1 H        0.926     0.047     2.356     2.400
   119   1 H        0.926     0.059     2.215     2.327
   120   1 H        0.926     0.057     2.229     2.335
   121   1 H        0.926     0.047     2.357     2.401
   122   1 H        0.925     0.024     2.667     2.554
   123   1 H        0.925     0.022     2.704     2.571
   124   1 H        0.926     0.022     2.708     2.573

 Mol. C6AA /au·bohr⁶  :     222381.998037
 Mol. C8AA /au·bohr⁸  :    5638072.640210
 Mol. α(0) /au        :        754.620718


Wiberg/Mayer (AO) data.
largest (>0.10) Wiberg bond orders for each atom

 ---------------------------------------------------------------------------
     #   Z sym  total        # sym  WBO       # sym  WBO       # sym  WBO
 ---------------------------------------------------------------------------
     1   6 C    3.981 --     2 C    1.531     6 C    1.304   117 H    0.968
                             4 C    0.101
     2   6 C    3.978 --     1 C    1.531     3 C    1.310   118 H    0.967
     3   6 C    3.980 --     4 C    1.445     2 C    1.310    30 C    1.041
     4   6 C    3.982 --     3 C    1.445     5 C    1.329   119 H    0.956
                             1 C    0.101
     5   6 C    3.987 --     4 C    1.329     6 C    1.266     7 C    1.178
     6   6 C    3.981 --     1 C    1.304     5 C    1.266    10 C    1.222
     7   6 C    3.978 --     8 C    1.298    11 C    1.254     5 C    1.178
     8   6 C    3.984 --     7 C    1.298    14 C    1.284     9 C    1.216
     9   6 C    3.979 --    10 C    1.627     8 C    1.216   103 H    0.967
    10   6 C    3.979 --     9 C    1.627     6 C    1.222   104 H    0.968
    11   6 C    3.974 --    12 C    1.293     7 C    1.254    15 C    1.173
    12   6 C    3.945 --    13 C    1.301    11 C    1.293    43 N    1.133
    13   6 C    3.977 --    14 C    1.533    12 C    1.301   101 H    0.964
    14   6 C    3.961 --    13 C    1.533     8 C    1.284   102 H    0.969
    15   6 C    3.974 --    16 C    1.294    17 C    1.252    11 C    1.173
    16   6 C    3.945 --    20 C    1.300    15 C    1.294    43 N    1.133
    17   6 C    3.978 --    18 C    1.299    15 C    1.252    21 C    1.179
    18   6 C    3.984 --    17 C    1.299    19 C    1.282    24 C    1.217
    19   6 C    3.961 --    20 C    1.534    18 C    1.282   115 H    0.969
    20   6 C    3.977 --    19 C    1.534    16 C    1.300   116 H    0.966
    21   6 C    3.987 --    28 C    1.329    22 C    1.266    17 C    1.179
    22   6 C    3.981 --    27 C    1.304    21 C    1.266    23 C    1.222
    23   6 C    3.979 --    24 C    1.626    22 C    1.222   123 H    0.968
    24   6 C    3.979 --    23 C    1.626    18 C    1.217   124 H    0.967
    25   6 C    3.979 --    28 C    1.445    26 C    1.310    29 C    1.041
    26   6 C    3.978 --    27 C    1.531    25 C    1.310   121 H    0.967
    27   6 C    3.981 --    26 C    1.531    22 C    1.304   122 H    0.968
                            28 C    0.101
    28   6 C    3.982 --    25 C    1.445    21 C    1.329   120 H    0.956
                            27 C    0.101
    29   6 C    3.971 --    35 N    1.392    31 N    1.389    25 C    1.041
    30   6 C    3.971 --    37 N    1.391    41 N    1.390     3 C    1.041
    31   7 N    2.763 --    29 C    1.389    32 N    1.076    35 N    0.124
    32   7 N    3.544 --    33 C    1.104    31 N    1.076    52 C    1.070
                            36 O    0.119
    33   6 C    3.959 --    36 O    1.606    34 N    1.108    32 N    1.104
    34   7 N    3.533 --    33 C    1.108    35 N    1.076    58 C    1.054
                            36 O    0.124
    35   7 N    2.762 --    29 C    1.392    34 N    1.076    31 N    0.124
    36   8 O    1.969 --    33 C    1.606    34 N    0.124    32 N    0.119
    37   7 N    2.762 --    30 C    1.391    38 N    1.077    41 N    0.124
    38   7 N    3.533 --    39 C    1.107    37 N    1.077    70 C    1.054
                            42 O    0.124
    39   6 C    3.959 --    42 O    1.606    38 N    1.107    40 N    1.105
    40   7 N    3.544 --    39 C    1.105    41 N    1.076    64 C    1.068
                            42 O    0.119
    41   7 N    2.765 --    30 C    1.390    40 N    1.076    37 N    0.124
    42   8 O    1.969 --    39 C    1.606    38 N    0.124    40 N    0.119
    43   7 N    3.535 --    16 C    1.133    12 C    1.133    51 C    1.012
    44  14 Si   3.618 --    50 C    0.901    49 C    0.900    48 C    0.893
                            45 C    0.852
    45   6 C    3.971 --    46 C    1.023    96 H    0.980    95 H    0.980
                            44 Si   0.852
    46   6 C    3.948 --    45 C    1.023    97 H    0.971    98 H    0.971
                            47 O    0.970
    47   8 O    2.070 --    51 C    0.977    46 C    0.970
    48   6 C    3.979 --    90 H    0.992    91 H    0.988    89 H    0.988
                            44 Si   0.893
    49   6 C    3.981 --    87 H    0.988    86 H    0.988    88 H    0.986
                            44 Si   0.900
    50   6 C    3.981 --    94 H    0.988    92 H    0.987    93 H    0.986
                            44 Si   0.901
    51   6 C    3.957 --    43 N    1.012    47 O    0.977    99 H    0.955
                           100 H    0.954
    52   6 C    3.955 --    57 C    1.358    53 C    1.344    32 N    1.070
    53   6 C    3.971 --    54 C    1.469    52 C    1.344    85 H    0.964
                            56 C    0.103
    54   6 C    3.991 --    53 C    1.469    55 C    1.418    84 H    0.972
                            57 C    0.102
    55   6 C    3.963 --    56 C    1.427    54 C    1.418    83 H    0.972
    56   6 C    3.989 --    57 C    1.456    55 C    1.427    82 H    0.972
                            53 C    0.103
    57   6 C    3.970 --    56 C    1.456    52 C    1.358    81 H    0.961
                            54 C    0.102
    58   6 C    3.957 --    59 C    1.368    63 C    1.357    34 N    1.054
    59   6 C    3.974 --    60 C    1.453    58 C    1.368    80 H    0.966
                            62 C    0.103
    60   6 C    3.990 --    59 C    1.453    61 C    1.430    79 H    0.972
                            63 C    0.105
    61   6 C    3.968 --    60 C    1.430    62 C    1.421    78 H    0.972
    62   6 C    3.990 --    63 C    1.465    61 C    1.421    77 H    0.971
                            59 C    0.103
    63   6 C    3.973 --    62 C    1.465    58 C    1.357    76 H    0.964
                            60 C    0.105
    64   6 C    3.955 --    65 C    1.359    69 C    1.345    40 N    1.068
    65   6 C    3.970 --    66 C    1.456    64 C    1.359   110 H    0.961
                            68 C    0.102
    66   6 C    3.989 --    65 C    1.456    67 C    1.427   111 H    0.972
                            69 C    0.103
    67   6 C    3.964 --    66 C    1.427    68 C    1.418   112 H    0.972
    68   6 C    3.991 --    69 C    1.469    67 C    1.418   113 H    0.971
                            65 C    0.102
    69   6 C    3.971 --    68 C    1.469    64 C    1.345   114 H    0.963
                            66 C    0.103
    70   6 C    3.957 --    75 C    1.367    71 C    1.356    38 N    1.054
    71   6 C    3.973 --    72 C    1.466    70 C    1.356   105 H    0.964
                            74 C    0.105
    72   6 C    3.990 --    71 C    1.466    73 C    1.420   106 H    0.971
                            75 C    0.103
    73   6 C    3.967 --    74 C    1.430    72 C    1.420   107 H    0.972
    74   6 C    3.990 --    75 C    1.453    73 C    1.430   108 H    0.972
                            71 C    0.105
    75   6 C    3.973 --    74 C    1.453    70 C    1.367   109 H    0.966
                            72 C    0.103
    76   1 H    0.997 --    63 C    0.964
    77   1 H    0.999 --    62 C    0.971
    78   1 H    1.000 --    61 C    0.972
    79   1 H    0.999 --    60 C    0.972
    80   1 H    0.997 --    59 C    0.966
    81   1 H    0.996 --    57 C    0.961
    82   1 H    0.999 --    56 C    0.972
    83   1 H    1.000 --    55 C    0.972
    84   1 H    0.999 --    54 C    0.972
    85   1 H    0.997 --    53 C    0.964
    86   1 H    0.999 --    49 C    0.988
    87   1 H    0.999 --    49 C    0.988
    88   1 H    0.999 --    49 C    0.986
    89   1 H    0.999 --    48 C    0.988
    90   1 H    0.999 --    48 C    0.992
    91   1 H    0.999 --    48 C    0.988
    92   1 H    0.999 --    50 C    0.987
    93   1 H    0.999 --    50 C    0.986
    94   1 H    0.999 --    50 C    0.988
    95   1 H    0.998 --    45 C    0.980
    96   1 H    0.998 --    45 C    0.980
    97   1 H    1.000 --    46 C    0.971
    98   1 H    1.000 --    46 C    0.971
    99   1 H    0.999 --    51 C    0.955
   100   1 H    0.999 --    51 C    0.954
   101   1 H    0.998 --    13 C    0.964
Note: The following floating-point exceptions are signalling: IEEE_UNDERFLOW_FLAG
normal termination of xtb
   102   1 H    0.998 --    14 C    0.969
   103   1 H    0.998 --     9 C    0.967
   104   1 H    0.998 --    10 C    0.968
   105   1 H    0.997 --    71 C    0.964
   106   1 H    0.999 --    72 C    0.971
   107   1 H    1.000 --    73 C    0.972
   108   1 H    0.999 --    74 C    0.972
   109   1 H    0.997 --    75 C    0.966
   110   1 H    0.996 --    65 C    0.961
   111   1 H    0.999 --    66 C    0.972
   112   1 H    1.000 --    67 C    0.972
   113   1 H    0.999 --    68 C    0.971
   114   1 H    0.997 --    69 C    0.963
   115   1 H    0.999 --    19 C    0.969
   116   1 H    0.998 --    20 C    0.966
   117   1 H    0.998 --     1 C    0.968
   118   1 H    0.997 --     2 C    0.967
   119   1 H    0.996 --     4 C    0.956
   120   1 H    0.996 --    28 C    0.956
   121   1 H    0.997 --    26 C    0.967
   122   1 H    0.998 --    27 C    0.968
   123   1 H    0.998 --    23 C    0.968
   124   1 H    0.998 --    24 C    0.967
 ---------------------------------------------------------------------------

Topologies differ in bond orders
Writing corrected topology to xtbtopo.mol

molecular dipole:
                 x           y           z       tot (Debye)
 q only:        3.047       0.935       3.513
   full:        3.122       1.111       3.324      11.929
molecular quadrupole (traceless):
                xx          xy          yy          xz          yz          zz
 q only:       16.804      60.188     -40.440     -21.902      21.765      23.635
  q+dip:       23.335      60.277     -26.332     -26.128      21.783       2.997
   full:       14.140      59.847     -35.245     -28.076      17.606      21.105


           -------------------------------------------------
          | TOTAL ENERGY             -198.300037081319 Eh   |
          | GRADIENT NORM               0.074444754703 Eh/α |
          | HOMO-LUMO GAP               0.882246423395 eV   |
           -------------------------------------------------
########################################################################
[WARNING] Runtime exception occurred
-2- restart_readRestart: Multiplicity missmatch in restart file.
-1- restart_readRestart: Number of electron missmatch in restart file.
########################################################################

------------------------------------------------------------------------
 * finished run on 2024/11/14 at 14:21:30.787     
------------------------------------------------------------------------
 total:
 * wall-time:     0 d,  0 h,  0 min,  1.535 sec
 *  cpu-time:     0 d,  0 h,  0 min,  6.021 sec
 * ratio c/w:     3.924 speedup
 SCF:
 * wall-time:     0 d,  0 h,  0 min,  1.518 sec
 *  cpu-time:     0 d,  0 h,  0 min,  5.984 sec
 * ratio c/w:     3.941 speedup

