      -----------------------------------------------------------      
     |                   =====================                   |     
     |                           x T B                           |     
     |                   =====================                   |     
     |                         S. Grimme                         |     
     |          Mulliken Center for Theoretical Chemistry        |     
     |                    University of Bonn                     |     
      -----------------------------------------------------------      

   * xtb version 6.6.1 (8d0f1dd) compiled by 'runner@Mac-1690902418499.local' on 2023-08-01

   xtb is free software: you can redistribute it and/or modify it under
   the terms of the GNU Lesser General Public License as published by
   the Free Software Foundation, either version 3 of the License, or
   (at your option) any later version.
   
   xtb is distributed in the hope that it will be useful,
   but WITHOUT ANY WARRANTY; without even the implied warranty of
   MERCHANTABILITY or FITNESS FOR A PARTICULAR PURPOSE.  See the
   GNU Lesser General Public License for more details.
   
   Cite this work as:
   * C. Bannwarth, E. Caldeweyher, S. Ehlert, A. Hansen, P. Pracht,
     J. Seibert, S. Spicher, S. Grimme, WIREs Comput. Mol. Sci., 2020, 11,
     e01493. DOI: 10.1002/wcms.1493
   
   for GFN2-xTB:
   * C. Bannwarth, S. Ehlert and S. Grimme., J. Chem. Theory Comput., 2019,
     15, 1652-1671. DOI: 10.1021/acs.jctc.8b01176
   for GFN1-xTB:
   * S. Grimme, C. Bannwarth, P. Shushkov, J. Chem. Theory Comput., 2017,
     13, 1989-2009. DOI: 10.1021/acs.jctc.7b00118
   for GFN0-xTB:
   * P. Pracht, E. Caldeweyher, S. Ehlert, S. Grimme, ChemRxiv, 2019, preprint.
     DOI: 10.26434/chemrxiv.8326202.v1
   for GFN-FF:
   * S. Spicher and S. Grimme, Angew. Chem. Int. Ed., 2020, 59, 15665-15673.
     DOI: 10.1002/anie.202004239
   
   for ALPB and GBSA implicit solvation:
   * S. Ehlert, M. Stahn, S. Spicher, S. Grimme, J. Chem. Theory Comput.,
     2021, 17, 4250-4261. DOI: 10.1021/acs.jctc.1c00471
   
   for DFT-D4:
   * E. Caldeweyher, C. Bannwarth and S. Grimme, J. Chem. Phys., 2017,
     147, 034112. DOI: 10.1063/1.4993215
   * E. Caldeweyher, S. Ehlert, A. Hansen, H. Neugebauer, S. Spicher,
     C. Bannwarth and S. Grimme, J. Chem. Phys., 2019, 150, 154122.
     DOI: 10.1063/1.5090222
   * E. Caldeweyher, J.-M. Mewes, S. Ehlert and S. Grimme, Phys. Chem. Chem. Phys.
     2020, 22, 8499-8512. DOI: 10.1039/D0CP00502A
   
   for sTDA-xTB:
   * S. Grimme and C. Bannwarth, J. Chem. Phys., 2016, 145, 054103.
     DOI: 10.1063/1.4959605
   
   in the mass-spec context:
   * V. Asgeirsson, C. Bauer and S. Grimme, Chem. Sci., 2017, 8, 4879.
     DOI: 10.1039/c7sc00601b
   * J. Koopman and S. Grimme, ACS Omega 2019, 4, 12, 15120-15133.
     DOI: 10.1021/acsomega.9b02011
   
   for metadynamics refer to:
   * S. Grimme, J. Chem. Theory Comput., 2019, 155, 2847-2862
     DOI: 10.1021/acs.jctc.9b00143
   
   for SPH calculations refer to:
   * S. Spicher and S. Grimme, J. Chem. Theory Comput., 2021, 17, 1701-1714
     DOI: 10.1021/acs.jctc.0c01306
   
   with help from (in alphabetical order)
   P. Atkinson, C. Bannwarth, F. Bohle, G. Brandenburg, E. Caldeweyher
   M. Checinski, S. Dohm, S. Ehlert, S. Ehrlich, I. Gerasimov, C. Hölzer
   A. Katbashev, J. Koopman, C. Lavigne, S. Lehtola, F. März, M. Müller,
   F. Musil, H. Neugebauer, J. Pisarek, C. Plett, P. Pracht, F. Pultar,
   J. Seibert, P. Shushkov, S. Spicher, M. Stahn, M. Steiner, T. Strunk,
   J. Stückrath, T. Rose, and J. Unsleber
   
 * started run on 2024/11/14 at 14:44:26.673     

           -------------------------------------------------
          |                Calculation Setup                |
           -------------------------------------------------

          program call               : xtb stacked_dimer_Verdazyl3.mol --opt --gfn2 --chrg 2 --uhf 2 --tight
          coordinate file            : stacked_dimer_Verdazyl3.mol
          omp threads                :                     8

   ID    Z sym.   atoms
    1    6 C      1-30, 33, 39, 45, 46, 48-75, 125-154, 157, 163, 169, 170,
                  172-199
    2    7 N      31, 32, 34, 35, 37, 38, 40, 41, 43, 155, 156, 158, 159,
                  161, 162, 164, 165, 167
    3    8 O      36, 42, 47, 160, 166, 171
    4   14 Si     44, 168
    5    1 H      76-124, 200-248

molecular fragmentation (1/2 indicates fragments):
111111111111111111111111111111111111111111111111111111111111111111111111
111111111111111111111111111111111111111111111111111122222222222222222222
222222222222222222222222222222222222222222222222222222222222222222222222
22222222222222222222222222222222
# atoms in fragment 1/2:   124   124
 fragment masses (1/2) :      996.20      996.20
CMA distance (Bohr)    :  11.338
constraining FC (au)   :  0.0500
########################################################################
[WARNING] Please study the warnings concerning your input carefully
-1- prog_main_parseArguments: Unknown option '--tight' provided
########################################################################

           -------------------------------------------------
          |                 G F N 2 - x T B                 |
           -------------------------------------------------

        Reference                      10.1021/acs.jctc.8b01176
      * Hamiltonian:
        H0-scaling (s, p, d)           1.850000    2.230000    2.230000
        zeta-weighting                 0.500000
      * Dispersion:
        s8                             2.700000
        a1                             0.520000
        a2                             5.000000
        s9                             5.000000
      * Repulsion:
        kExp                           1.500000    1.000000
        rExp                           1.000000
      * Coulomb:
        alpha                          2.000000
        third order                    shell-resolved
        anisotropic                    true
        a3                             3.000000
        a5                             4.000000
        cn-shift                       1.200000
        cn-exp                         4.000000
        max-rad                        5.000000

q/qsh data taken from xtbrestart
CAMM data taken from xtbrestart

          ...................................................
          :                      SETUP                      :
          :.................................................:
          :  # basis functions                 710          :
          :  # atomic orbitals                 708          :
          :  # shells                          400          :
          :  # electrons                       726          :
          :  max. iterations                   250          :
          :  Hamiltonian                  GFN2-xTB          :
          :  restarted?                       true          :
          :  GBSA solvation                  false          :
          :  PC potential                    false          :
          :  electronic temp.          300.0000000     K    :
          :  accuracy                    1.0000000          :
          :  -> integral cutoff          0.2500000E+02      :
          :  -> integral neglect         0.1000000E-07      :
          :  -> SCF convergence          0.1000000E-05 Eh   :
          :  -> wf. convergence          0.1000000E-03 e    :
          :  Broyden damping             0.4000000          :
          ...................................................

 iter      E             dE          RMSdq      gap      omega  full diag
   1   -401.4161225 -0.401416E+03  0.228E+00    0.36       0.0  T
   2   -400.8334757  0.582647E+00  0.185E+00    0.65       1.0  T
   3   -400.5429251  0.290551E+00  0.167E+00    0.67       1.0  T
   4   -401.0051332 -0.462208E+00  0.118E+00    0.94       1.0  T
   5   -400.6210823  0.384051E+00  0.125E+00    0.14       1.0  T
   6   -401.7210943 -0.110001E+01  0.527E-01    0.04       1.0  T
   7   -401.6948665  0.262278E-01  0.471E-01    0.10       1.0  T
   8   -401.2974988  0.397368E+00  0.905E-01    0.11       1.0  T
   9   -401.7739013 -0.476402E+00  0.232E-01    0.02       1.0  T
  10   -401.3487034  0.425198E+00  0.777E-01    0.27       1.0  T
  11   -401.7597082 -0.411005E+00  0.259E-01    0.01       1.0  T
  12   -401.1598622  0.599846E+00  0.866E-01    0.01       1.0  T
  13   -401.7639300 -0.604068E+00  0.208E-01    0.02       1.0  T
  14   -401.7711412 -0.721113E-02  0.186E-01    0.01       1.0  T
  15   -401.7842497 -0.131085E-01  0.829E-02    0.00       1.0  T
  16   -401.7845414 -0.291713E-03  0.831E-02    0.01       1.0  T
  17   -401.7870324 -0.249104E-02  0.471E-02    0.00       1.0  T
  18   -401.7870280  0.443193E-05  0.460E-02    0.01       1.0  T
  19   -401.7871501 -0.122065E-03  0.427E-02    0.00       1.0  T
  20   -401.7871042  0.458767E-04  0.427E-02    0.01       1.0  T
  21   -401.7872013 -0.971241E-04  0.411E-02    0.01       1.0  T
  22   -401.7872999 -0.985753E-04  0.390E-02    0.00       1.0  T
  23   -401.7875145 -0.214589E-03  0.346E-02    0.00       1.0  T
  24   -401.7875221 -0.765165E-05  0.344E-02    0.00       1.0  T
  25   -401.7874313  0.907941E-04  0.364E-02    0.01       1.0  T
  26   -401.7874329 -0.157975E-05  0.363E-02    0.00       1.0  T
  27   -401.7875619 -0.128957E-03  0.334E-02    0.00       1.0  T
  28   -401.7878414 -0.279504E-03  0.264E-02    0.00       1.0  T
  29   -401.7880019 -0.160534E-03  0.215E-02    0.00       1.0  T
  30   -401.7880659 -0.639673E-04  0.195E-02    0.00       1.0  T
  31   -401.7882649 -0.199012E-03  0.131E-02    0.00       1.0  T
  32   -401.7883144 -0.494644E-04  0.581E-03    0.00       1.1  T
  33   -401.7881568  0.157587E-03  0.184E-02    0.00       1.0  T
  34   -401.7883387 -0.181943E-03  0.264E-03    0.00       2.4  T
  35   -401.7883373  0.145428E-05  0.287E-03    0.00       2.2  T
  36   -401.7883314  0.587527E-05  0.409E-03    0.00       1.6  T
  37   -401.7883404 -0.903669E-05  0.101E-03    0.00       6.3  T
  38   -401.7883405 -0.227543E-07  0.954E-04    0.00       6.7  T
  39   -401.7883407 -0.198227E-06  0.661E-04    0.00       9.6  T

   *** convergence criteria satisfied after 39 iterations ***

         #    Occupation            Energy/Eh            Energy/eV
      -------------------------------------------------------------
         1        2.0000           -0.8788119             -23.9137
       ...           ...                  ...                  ...
       358        1.9992           -0.4974753             -13.5370
       359        1.9961           -0.4959456             -13.4954
       360        1.9913           -0.4951846             -13.4747
       361        1.9815           -0.4944637             -13.4550
       362        1.8909           -0.4926920             -13.4068
       363        0.6098           -0.4877160             -13.2714
       364        0.5438           -0.4874965             -13.2655 (HOMO)
       365        0.5095           -0.4873808             -13.2623 (LUMO)
       366        0.4784           -0.4872741             -13.2594
       367                         -0.4200267             -11.4295
       368                         -0.4156163             -11.3095
       369                         -0.4095647             -11.1448
       ...                                ...                  ...
       708                          0.6051612              16.4673
      -------------------------------------------------------------
                  HL-Gap            0.0001157 Eh            0.0031 eV
             Fermi-level           -0.4890593 Eh          -13.3080 eV

 transition dipole moment (au) for excitation:         363         364
     X       Y       Z   
   0.9142  -1.5562   1.1706  total (au/Debye):    2.151   5.468
 dE (eV)             :    0.006
 oscillator strength :  0.95793E-03

 SCC (total)                   0 d,  0 h,  0 min, 13.353 sec
 SCC setup                      ...        0 min,  0.001 sec (  0.011%)
 Dispersion                     ...        0 min,  0.006 sec (  0.048%)
 classical contributions        ...        0 min,  0.001 sec (  0.008%)
 integral evaluation            ...        0 min,  0.030 sec (  0.227%)
 iterations                     ...        0 min, 12.907 sec ( 96.658%)
 molecular gradient             ...        0 min,  0.294 sec (  2.203%)
 printout                       ...        0 min,  0.113 sec (  0.845%)

         :::::::::::::::::::::::::::::::::::::::::::::::::::::
         ::                     SUMMARY                     ::
         :::::::::::::::::::::::::::::::::::::::::::::::::::::
         :: total energy            -395.205427981949 Eh    ::
         :: gradient norm              0.109700055283 Eh/a0 ::
         :: HOMO-LUMO gap              0.003148257611 eV    ::
         ::.................................................::
         :: SCC energy              -401.788340653948 Eh    ::
         :: -> isotropic ES            0.383701389617 Eh    ::
         :: -> anisotropic ES         -0.000528067241 Eh    ::
         :: -> anisotropic XC          0.226557706335 Eh    ::
         :: -> dispersion             -0.454110157403 Eh    ::
         :: repulsion energy           6.537719935637 Eh    ::
         :: add. restraining           0.000000000000 Eh    ::
         :: total charge               1.999999168350 e     ::
         :::::::::::::::::::::::::::::::::::::::::::::::::::::

      ----------------------------------------------------------- 
     |                   =====================                   |
     |                        A N C O P T                        |
     |                   =====================                   |
     |               Approximate Normal Coordinate               |
     |                Rational Function Optimizer                |
      ----------------------------------------------------------- 

          ...................................................
          :                      SETUP                      :
          :.................................................:
          :   optimization level            normal          :
          :   max. optcycles                   744          :
          :   ANC micro-cycles                  20          :
          :   degrees of freedom               738          :
          :.................................................:
          :   RF solver                   davidson          :
          :   write xtbopt.log                true          :
          :   linear?                        false          :
          :   energy convergence         0.5000000E-05 Eh   :
          :   grad. convergence          0.1000000E-02 Eh/α :
          :   maxmium RF displ.          1.0000000          :
          :   Hlow (freq-cutoff)         0.1000000E-01      :
          :   Hmax (freq-cutoff)         5.0000000          :
          :   S6 in model hess.         20.0000000          :
          ...................................................

generating ANC from model Hessian ...
Using Lindh-Hessian (1995)
 Shifting diagonal of input Hessian by    1.0006073464166602E-002
 Lowest  eigenvalues of input Hessian
    0.010000    0.000000    0.000000    0.000000    0.000000    0.000000
    0.000000    0.010023    0.010028    0.010051    0.010076    0.010082
    0.010097    0.010104    0.010127    0.010137    0.010162    0.010169
 Highest eigenvalues
    2.299300    2.299469    2.530764    2.530917    2.531314    2.531487


........................................................................
.............................. CYCLE    1 ..............................
........................................................................

 iter      E             dE          RMSdq      gap      omega  full diag
   1   -401.7883408 -0.401788E+03  0.333E-04    0.00       0.0  T
   2   -401.7883343  0.644659E-05  0.329E-03    0.00       1.9  T
   3   -401.7883386 -0.422675E-05  0.188E-03    0.00       3.4  T
   4   -401.7883405 -0.197042E-05  0.666E-04    0.00       9.5  T
   5   -401.7883408 -0.262041E-06  0.259E-04    0.00      24.5  T
   6   -401.7883408 -0.294752E-07  0.156E-04    0.00      40.7  T
     SCC iter.                  ...        0 min,  1.993 sec
     gradient                   ...        0 min,  0.355 sec
 * total energy  :  -395.2054282 Eh     change       -0.1693473E-06 Eh
   gradient norm :     0.1097251 Eh/α   predicted     0.0000000E+00 (-100.00%)
   displ. norm   :     0.6840622 α      lambda       -0.4246263E-01
   maximum displ.:     0.1976612 α      in ANC's #186, #90, #85, ...

........................................................................
.............................. CYCLE    2 ..............................
........................................................................

 iter      E             dE          RMSdq      gap      omega  full diag
   1   -401.8255351 -0.401826E+03  0.166E-01    0.01       0.0  T
   2   -401.2297623  0.595773E+00  0.101E+00    0.08       1.0  T
   3   -401.7996990 -0.569937E+00  0.250E-01    0.01       1.0  T
   4   -401.7406544  0.590446E-01  0.392E-01    0.05       1.0  T
   5   -401.4618079  0.278846E+00  0.820E-01    0.01       1.0  T
   6   -401.7992892 -0.337481E+00  0.214E-01    0.03       1.0  T
   7   -401.7140757  0.852135E-01  0.413E-01    0.07       1.0  T
   8   -401.8172991 -0.103223E+00  0.141E-01    0.01       1.0  T
   9   -401.8270849 -0.978581E-02  0.596E-02    0.00       1.0  T
  10   -401.8283628 -0.127781E-02  0.351E-02    0.01       1.0  T
  11   -401.8284628 -0.100077E-03  0.302E-02    0.01       1.0  T
  12   -401.8285496 -0.868088E-04  0.293E-02    0.00       1.0  T
  13   -401.8285308  0.187964E-04  0.283E-02    0.00       1.0  T
  14   -401.8286447 -0.113863E-03  0.235E-02    0.00       1.0  T
  15   -401.8287205 -0.757644E-04  0.203E-02    0.00       1.0  T
  16   -401.8287992 -0.787589E-04  0.165E-02    0.00       1.0  T
  17   -401.8288822 -0.829796E-04  0.109E-02    0.00       1.0  T
  18   -401.8289003 -0.181255E-04  0.947E-03    0.00       1.0  T
  19   -401.8289332 -0.329034E-04  0.603E-03    0.00       1.1  T
  20   -401.8289498 -0.165445E-04  0.279E-03    0.00       2.3  T
  21   -401.8289523 -0.253672E-05  0.215E-03    0.00       3.0  T
  22   -401.8289544 -0.203272E-05  0.806E-04    0.00       7.9  T
  23   -401.8289545 -0.111740E-06  0.687E-04    0.00       9.2  T
  24   -401.8289547 -0.238481E-06  0.134E-04    0.00      47.3  T
     SCC iter.                  ...        0 min,  6.885 sec
     gradient                   ...        0 min,  0.301 sec
 * total energy  :  -395.2334277 Eh     change       -0.2799951E-01 Eh
   gradient norm :     0.0550113 Eh/α   predicted    -0.3116633E-01 (  11.31%)
   displ. norm   :     0.6360979 α      lambda       -0.1554364E-01
   maximum displ.:     0.1954966 α      in ANC's #55, #90, #61, ...

........................................................................
.............................. CYCLE    3 ..............................
........................................................................

 iter      E             dE          RMSdq      gap      omega  full diag
   1   -401.8395458 -0.401840E+03  0.989E-02    0.01       0.0  T
   2   -401.4994440  0.340102E+00  0.817E-01    0.14       1.0  T
   3   -401.8229569 -0.323513E+00  0.191E-01    0.02       1.0  T
   4   -401.8087035  0.142533E-01  0.233E-01    0.02       1.0  T
   5   -401.6753655  0.133338E+00  0.521E-01    0.05       1.0  T
   6   -401.8379649 -0.162599E+00  0.815E-02    0.01       1.0  T
   7   -401.8123107  0.256542E-01  0.221E-01    0.04       1.0  T
   8   -401.8412079 -0.288972E-01  0.316E-02    0.01       1.0  T
   9   -401.8415061 -0.298238E-03  0.192E-02    0.00       1.0  T
  10   -401.8415524 -0.462203E-04  0.172E-02    0.00       1.0  T
  11   -401.8416082 -0.558211E-04  0.130E-02    0.00       1.0  T
  12   -401.8416436 -0.354124E-04  0.981E-03    0.00       1.0  T
  13   -401.8416460 -0.242397E-05  0.918E-03    0.00       1.0  T
  14   -401.8416611 -0.150281E-04  0.737E-03    0.00       1.0  T
  15   -401.8416795 -0.184048E-04  0.405E-03    0.00       1.6  T
  16   -401.8416838 -0.434291E-05  0.262E-03    0.00       2.4  T
  17   -401.8416859 -0.205212E-05  0.148E-03    0.00       4.3  T
  18   -401.8416870 -0.113433E-05  0.228E-04    0.00      27.8  T
  19   -401.8416870  0.408988E-08  0.230E-04    0.00      27.6  T
  20   -401.8416870 -0.223736E-07  0.872E-05    0.00      72.8  T
     SCC iter.                  ...        0 min,  4.162 sec
     gradient                   ...        0 min,  0.289 sec
 * total energy  :  -395.2457598 Eh     change       -0.1233213E-01 Eh
   gradient norm :     0.0243296 Eh/α   predicted    -0.1091650E-01 ( -11.48%)
   displ. norm   :     0.6759505 α      lambda       -0.9970728E-02
   maximum displ.:     0.2086995 α      in ANC's #90, #55, #72, ...

........................................................................
.............................. CYCLE    4 ..............................
........................................................................

 iter      E             dE          RMSdq      gap      omega  full diag
   1   -401.8443203 -0.401844E+03  0.891E-02    0.01       0.0  T
   2   -401.6338314  0.210489E+00  0.641E-01    0.10       1.0  T
   3   -401.8420310 -0.208200E+00  0.881E-02    0.00       1.0  T
   4   -401.7699413  0.720896E-01  0.357E-01    0.08       1.0  T
   5   -401.8103526 -0.404112E-01  0.233E-01    0.03       1.0  T
   6   -401.8409860 -0.306334E-01  0.896E-02    0.01       1.0  T
   7   -401.8377677  0.321833E-02  0.117E-01    0.01       1.0  T
   8   -401.8448412 -0.707358E-02  0.326E-02    0.00       1.0  T
   9   -401.8450571 -0.215817E-03  0.242E-02    0.00       1.0  T
  10   -401.8450791 -0.220752E-04  0.208E-02    0.01       1.0  T
  11   -401.8452634 -0.184320E-03  0.101E-02    0.00       1.0  T
  12   -401.8452772 -0.137859E-04  0.783E-03    0.00       1.0  T
  13   -401.8452481  0.291731E-04  0.983E-03    0.01       1.0  T
  14   -401.8452996 -0.515252E-04  0.380E-03    0.00       1.7  T
  15   -401.8453031 -0.352587E-05  0.255E-03    0.00       2.5  T
  16   -401.8453058 -0.264116E-05  0.936E-04    0.01       6.8  T
  17   -401.8453060 -0.288088E-06  0.426E-04    0.00      14.9  T
  18   -401.8453061 -0.593049E-07  0.282E-04    0.00      22.5  T
     SCC iter.                  ...        0 min,  2.896 sec
     gradient                   ...        0 min,  0.286 sec
 * total energy  :  -395.2535243 Eh     change       -0.7764491E-02 Eh
   gradient norm :     0.0134220 Eh/α   predicted    -0.7263230E-02 (  -6.46%)
   displ. norm   :     0.6498975 α      lambda       -0.5674607E-02
   maximum displ.:     0.2135475 α      in ANC's #24, #72, #55, ...

........................................................................
.............................. CYCLE    5 ..............................
........................................................................

 iter      E             dE          RMSdq      gap      omega  full diag
   1   -401.8446277 -0.401845E+03  0.700E-02    0.01       0.0  T
   2   -401.8141839  0.304438E-01  0.233E-01    0.01       1.0  T
   3   -401.8249075 -0.107236E-01  0.181E-01    0.01       1.0  T
   4   -401.8097783  0.151292E-01  0.237E-01    0.02       1.0  T
   5   -401.8298735 -0.200952E-01  0.166E-01    0.01       1.0  T
   6   -401.8391975 -0.932399E-02  0.960E-02    0.01       1.0  T
   7   -401.8394613 -0.263827E-03  0.997E-02    0.01       1.0  T
   8   -401.8444078 -0.494649E-02  0.295E-02    0.01       1.0  T
   9   -401.8445755 -0.167697E-03  0.230E-02    0.01       1.0  T
  10   -401.8445775 -0.202566E-05  0.193E-02    0.01       1.0  T
  11   -401.8447758 -0.198298E-03  0.592E-03    0.01       1.1  T
  12   -401.8447633  0.125711E-04  0.717E-03    0.00       1.0  T
  13   -401.8447877 -0.244327E-04  0.339E-03    0.01       1.9  T
  14   -401.8447915 -0.384657E-05  0.213E-03    0.01       3.0  T
  15   -401.8447928 -0.122891E-05  0.162E-03    0.01       3.9  T
  16   -401.8447943 -0.155686E-05  0.276E-04    0.01      23.0  T
  17   -401.8447943 -0.357880E-08  0.236E-04    0.01      26.9  T
  18   -401.8447944 -0.134102E-07  0.178E-04    0.01      35.8  T
     SCC iter.                  ...        0 min,  2.820 sec
     gradient                   ...        0 min,  0.291 sec
 * total energy  :  -395.2579851 Eh     change       -0.4460804E-02 Eh
   gradient norm :     0.0169665 Eh/α   predicted    -0.4035685E-02 (  -9.53%)
   displ. norm   :     0.6357507 α      lambda       -0.3586041E-02
   maximum displ.:     0.2457236 α      in ANC's #24, #72, #55, ...

........................................................................
.............................. CYCLE    6 ..............................
........................................................................

 iter      E             dE          RMSdq      gap      omega  full diag
   1   -401.8441188 -0.401844E+03  0.557E-02    0.01       0.0  T
   2   -401.8241165  0.200024E-01  0.185E-01    0.00       1.0  T
   3   -401.8340724 -0.995594E-02  0.132E-01    0.01       1.0  T
   4   -401.7862222  0.478502E-01  0.300E-01    0.01       1.0  T
   5   -401.8424204 -0.561982E-01  0.580E-02    0.00       1.0  T
   6   -401.8421948  0.225675E-03  0.609E-02    0.01       1.0  T
   7   -401.8440507 -0.185594E-02  0.163E-02    0.00       1.0  T
   8   -401.8441242 -0.735124E-04  0.121E-02    0.01       1.0  T
   9   -401.8441835 -0.592465E-04  0.585E-03    0.01       1.1  T
  10   -401.8441821  0.133721E-05  0.531E-03    0.01       1.2  T
  11   -401.8441943 -0.121712E-04  0.236E-03    0.01       2.7  T
  12   -401.8441968 -0.247796E-05  0.103E-03    0.01       6.2  T
  13   -401.8441971 -0.291372E-06  0.721E-04    0.01       8.8  T
  14   -401.8441968  0.291441E-06  0.929E-04    0.01       6.8  T
     SCC iter.                  ...        0 min,  3.024 sec
     gradient                   ...        0 min,  0.293 sec
 * total energy  :  -395.2608408 Eh     change       -0.2855748E-02 Eh
   gradient norm :     0.0136571 Eh/α   predicted    -0.2517722E-02 ( -11.84%)
   displ. norm   :     0.6427417 α      lambda       -0.2448668E-02
   maximum displ.:     0.2702272 α      in ANC's #24, #42, #17, ...

........................................................................
.............................. CYCLE    7 ..............................
........................................................................

 iter      E             dE          RMSdq      gap      omega  full diag
   1   -401.8436156 -0.401844E+03  0.503E-02    0.01       0.0  T
   2   -401.8174435  0.261721E-01  0.214E-01    0.03       1.0  T
   3   -401.8383584 -0.209150E-01  0.982E-02    0.02       1.0  T
   4   -401.7847939  0.535645E-01  0.320E-01    0.02       1.0  T
   5   -401.8330767 -0.482828E-01  0.127E-01    0.02       1.0  T
   6   -401.8384240 -0.534735E-02  0.947E-02    0.01       1.0  T
   7   -401.8433148 -0.489073E-02  0.275E-02    0.00       1.0  T
   8   -401.8436567 -0.341953E-03  0.127E-02    0.01       1.0  T
   9   -401.8437060 -0.492879E-04  0.800E-03    0.01       1.0  T
  10   -401.8437265 -0.204900E-04  0.392E-03    0.01       1.6  T
  11   -401.8437318 -0.527916E-05  0.187E-03    0.01       3.4  T
  12   -401.8437332 -0.139112E-05  0.110E-03    0.01       5.8  T
  13   -401.8437336 -0.469484E-06  0.509E-04    0.01      12.5  T
  14   -401.8437337 -0.556241E-07  0.344E-04    0.01      18.5  T
     SCC iter.                  ...        0 min,  4.228 sec
     gradient                   ...        0 min,  0.295 sec
 * total energy  :  -395.2628192 Eh     change       -0.1978360E-02 Eh
   gradient norm :     0.0078622 Eh/α   predicted    -0.1730130E-02 ( -12.55%)
   displ. norm   :     0.6564933 α      lambda       -0.1776635E-02
   maximum displ.:     0.2840790 α      in ANC's #24, #42, #17, ...

........................................................................
.............................. CYCLE    8 ..............................
........................................................................

 iter      E             dE          RMSdq      gap      omega  full diag
   1   -401.8441182 -0.401844E+03  0.454E-02    0.01       0.0  T
   2   -401.8318246  0.122937E-01  0.147E-01    0.01       1.0  T
   3   -401.8373914 -0.556683E-02  0.110E-01    0.00       1.0  T
   4   -401.8094336  0.279578E-01  0.240E-01    0.01       1.0  T
   5   -401.8393116 -0.298780E-01  0.841E-02    0.00       1.0  T
   6   -401.8404877 -0.117607E-02  0.799E-02    0.01       1.0  T
   7   -401.8438380 -0.335034E-02  0.241E-02    0.00       1.0  T
   8   -401.8441373 -0.299299E-03  0.830E-03    0.01       1.0  T
   9   -401.8441558 -0.184814E-04  0.539E-03    0.01       1.2  T
  10   -401.8441659 -0.101078E-04  0.254E-03    0.01       2.5  T
  11   -401.8441670 -0.110625E-05  0.171E-03    0.01       3.7  T
  12   -401.8441681 -0.107594E-05  0.912E-04    0.01       7.0  T
  13   -401.8441684 -0.364114E-06  0.417E-04    0.01      15.2  T
  14   -401.8441685 -0.673077E-07  0.199E-04    0.01      32.0  T
     SCC iter.                  ...        0 min,  3.435 sec
     gradient                   ...        0 min,  0.278 sec
 * total energy  :  -395.2642804 Eh     change       -0.1461179E-02 Eh
   gradient norm :     0.0047901 Eh/α   predicted    -0.1271173E-02 ( -13.00%)
   displ. norm   :     0.6773707 α      lambda       -0.1387684E-02
   maximum displ.:     0.2928411 α      in ANC's #24, #42, #17, ...

........................................................................
.............................. CYCLE    9 ..............................
........................................................................

 iter      E             dE          RMSdq      gap      omega  full diag
   1   -401.8445093 -0.401845E+03  0.449E-02    0.01       0.0  T
   2   -401.8397139  0.479542E-02  0.935E-02    0.00       1.0  T
   3   -401.8296908  0.100231E-01  0.160E-01    0.01       1.0  T
   4   -401.8404974 -0.108066E-01  0.777E-02    0.01       1.0  T
   5   -401.8373930  0.310442E-02  0.104E-01    0.01       1.0  T
   6   -401.8442964 -0.690338E-02  0.210E-02    0.01       1.0  T
   7   -401.8437645  0.531882E-03  0.379E-02    0.01       1.0  T
   8   -401.8445125 -0.748013E-03  0.612E-03    0.01       1.0  T
   9   -401.8445286 -0.161388E-04  0.280E-03    0.01       2.3  T
  10   -401.8445290 -0.355895E-06  0.199E-03    0.01       3.2  T
  11   -401.8445291 -0.934396E-07  0.150E-03    0.01       4.2  T
  12   -401.8445301 -0.101092E-05  0.639E-04    0.01       9.9  T
  13   -401.8445302 -0.132802E-06  0.304E-04    0.01      20.9  T
  14   -401.8445303 -0.393050E-07  0.105E-04    0.01      60.5  T
     SCC iter.                  ...        0 min,  3.102 sec
     gradient                   ...        0 min,  0.332 sec
 * total energy  :  -395.2654430 Eh     change       -0.1162570E-02 Eh
   gradient norm :     0.0063552 Eh/α   predicted    -0.1012205E-02 ( -12.93%)
   displ. norm   :     0.6960948 α      lambda       -0.1163001E-02
   maximum displ.:     0.2980918 α      in ANC's #24, #42, #17, ...

........................................................................
.............................. CYCLE   10 ..............................
........................................................................

 iter      E             dE          RMSdq      gap      omega  full diag
   1   -401.8461853 -0.401846E+03  0.459E-02    0.01       0.0  T
   2   -401.8420828  0.410252E-02  0.906E-02    0.00       1.0  T
   3   -401.8328711  0.921165E-02  0.158E-01    0.01       1.0  T
   4   -401.8376250 -0.475390E-02  0.124E-01    0.00       1.0  T
   5   -401.8341318  0.349316E-02  0.144E-01    0.01       1.0  T
   6   -401.8450319 -0.109001E-01  0.429E-02    0.00       1.0  T
   7   -401.8447133  0.318634E-03  0.474E-02    0.01       1.0  T
   8   -401.8461630 -0.144973E-02  0.959E-03    0.01       1.0  T
   9   -401.8462012 -0.382263E-04  0.491E-03    0.01       1.3  T
  10   -401.8462098 -0.853428E-05  0.198E-03    0.01       3.2  T
  11   -401.8462107 -0.928818E-06  0.117E-03    0.01       5.4  T
  12   -401.8462110 -0.267409E-06  0.654E-04    0.01       9.7  T
  13   -401.8462110 -0.445316E-07  0.545E-04    0.01      11.7  T
     SCC iter.                  ...        0 min,  3.080 sec
     gradient                   ...        0 min,  0.304 sec
 * total energy  :  -395.2664126 Eh     change       -0.9696406E-03 Eh
   gradient norm :     0.0071972 Eh/α   predicted    -0.8632779E-03 ( -10.97%)
   displ. norm   :     0.7130155 α      lambda       -0.9841021E-03
   maximum displ.:     0.2962207 α      in ANC's #24, #42, #17, ...

........................................................................
.............................. CYCLE   11 ..............................
........................................................................

 iter      E             dE          RMSdq      gap      omega  full diag
   1   -401.8444633 -0.401844E+03  0.523E-02    0.01       0.0  T
   2   -401.8305885  0.138749E-01  0.166E-01    0.02       1.0  T
   3   -401.8378446 -0.725618E-02  0.116E-01    0.02       1.0  T
   4   -401.8371249  0.719754E-03  0.112E-01    0.02       1.0  T
   5   -401.8165955  0.205294E-01  0.209E-01    0.03       1.0  T
   6   -401.8431975 -0.266020E-01  0.466E-02    0.01       1.0  T
   7   -401.8413576  0.183983E-02  0.710E-02    0.01       1.0  T
   8   -401.8444685 -0.311090E-02  0.116E-02    0.01       1.0  T
   9   -401.8445160 -0.474998E-04  0.707E-03    0.01       1.0  T
  10   -401.8445304 -0.143486E-04  0.334E-03    0.01       1.9  T
  11   -401.8445308 -0.449104E-06  0.210E-03    0.01       3.0  T
  12   -401.8445323 -0.144056E-05  0.846E-04    0.01       7.5  T
  13   -401.8445324 -0.848227E-07  0.592E-04    0.01      10.7  T
  14   -401.8445325 -0.115520E-06  0.257E-04    0.01      24.7  T
     SCC iter.                  ...        0 min,  2.253 sec
     gradient                   ...        0 min,  0.275 sec
 * total energy  :  -395.2671689 Eh     change       -0.7563535E-03 Eh
   gradient norm :     0.0076410 Eh/α   predicted    -0.7422075E-03 (  -1.87%)
   displ. norm   :     0.6731742 α      lambda       -0.8210049E-03
   maximum displ.:     0.2737117 α      in ANC's #24, #42, #17, ...

........................................................................
.............................. CYCLE   12 ..............................
........................................................................

 iter      E             dE          RMSdq      gap      omega  full diag
   1   -401.8474745 -0.401847E+03  0.501E-02    0.01       0.0  T
   2   -401.8290584  0.184160E-01  0.190E-01    0.03       1.0  T
   3   -401.8434549 -0.143964E-01  0.911E-02    0.02       1.0  T
   4   -401.8219201  0.215348E-01  0.193E-01    0.02       1.0  T
   5   -401.8384825 -0.165625E-01  0.119E-01    0.01       1.0  T
   6   -401.8461953 -0.771278E-02  0.489E-02    0.00       1.0  T
   7   -401.8462199 -0.245582E-04  0.477E-02    0.00       1.0  T
   8   -401.8475256 -0.130567E-02  0.790E-03    0.01       1.0  T
   9   -401.8475505 -0.249226E-04  0.396E-03    0.01       1.6  T
  10   -401.8475550 -0.451515E-05  0.181E-03    0.01       3.5  T
  11   -401.8475552 -0.248781E-06  0.124E-03    0.01       5.1  T
  12   -401.8475556 -0.319216E-06  0.658E-04    0.01       9.7  T
  13   -401.8475557 -0.130422E-06  0.293E-04    0.01      21.7  T
     SCC iter.                  ...        0 min,  2.115 sec
     gradient                   ...        0 min,  0.278 sec
 * total energy  :  -395.2677174 Eh     change       -0.5484650E-03 Eh
   gradient norm :     0.0064403 Eh/α   predicted    -0.5965370E-03 (   8.76%)
   displ. norm   :     0.5628745 α      lambda       -0.4418506E-03
   maximum displ.:     0.2249637 α      in ANC's #24, #17, #42, ...

........................................................................
.............................. CYCLE   13 ..............................
........................................................................

 iter      E             dE          RMSdq      gap      omega  full diag
   1   -401.8453576 -0.401845E+03  0.422E-02    0.01       0.0  T
   2   -401.8339404  0.114172E-01  0.143E-01    0.01       1.0  T
   3   -401.8405404 -0.660005E-02  0.909E-02    0.01       1.0  T
   4   -401.8105941  0.299463E-01  0.235E-01    0.02       1.0  T
   5   -401.8425129 -0.319188E-01  0.682E-02    0.01       1.0  T
   6   -401.8414864  0.102654E-02  0.825E-02    0.01       1.0  T
   7   -401.8452597 -0.377328E-02  0.162E-02    0.01       1.0  T
   8   -401.8453869 -0.127258E-03  0.533E-03    0.01       1.2  T
   9   -401.8453964 -0.946527E-05  0.276E-03    0.01       2.3  T
  10   -401.8453782  0.182212E-04  0.569E-03    0.01       1.1  T
  11   -401.8453968 -0.185670E-04  0.144E-03    0.01       4.4  T
  12   -401.8453973 -0.585289E-06  0.894E-04    0.01       7.1  T
  13   -401.8453970  0.306544E-06  0.114E-03    0.01       5.6  T
  14   -401.8453977 -0.682856E-06  0.469E-04    0.01      13.5  T
     SCC iter.                  ...        0 min,  2.193 sec
     gradient                   ...        0 min,  0.286 sec
 * total energy  :  -395.2680489 Eh     change       -0.3315132E-03 Eh
   gradient norm :     0.0035905 Eh/α   predicted    -0.2909243E-03 ( -12.24%)
   displ. norm   :     0.4755830 α      lambda       -0.2734645E-03
   maximum displ.:     0.1797461 α      in ANC's #24, #6, #17, ...

........................................................................
.............................. CYCLE   14 ..............................
........................................................................

 iter      E             dE          RMSdq      gap      omega  full diag
   1   -401.8460316 -0.401846E+03  0.356E-02    0.01       0.0  T
   2   -401.8371747  0.885696E-02  0.117E-01    0.01       1.0  T
   3   -401.8406778 -0.350307E-02  0.908E-02    0.01       1.0  T
   4   -401.8225217  0.181561E-01  0.211E-01    0.04       1.0  T
   5   -401.8458785 -0.233568E-01  0.167E-02    0.01       1.0  T
   6   -401.8455136  0.364870E-03  0.302E-02    0.00       1.0  T
   7   -401.8458727 -0.359083E-03  0.178E-02    0.01       1.0  T
   8   -401.8460485 -0.175839E-03  0.348E-03    0.01       1.8  T
   9   -401.8460514 -0.289747E-05  0.239E-03    0.01       2.7  T
  10   -401.8460525 -0.108630E-05  0.152E-03    0.01       4.2  T
  11   -401.8460533 -0.761994E-06  0.875E-04    0.01       7.3  T
  12   -401.8460536 -0.295132E-06  0.383E-04    0.01      16.6  T
     SCC iter.                  ...        0 min,  1.800 sec
     gradient                   ...        0 min,  0.275 sec
 * total energy  :  -395.2682676 Eh     change       -0.2186545E-03 Eh
   gradient norm :     0.0031036 Eh/α   predicted    -0.1676598E-03 ( -23.32%)
   displ. norm   :     0.4605972 α      lambda       -0.2646810E-03
   maximum displ.:     0.1803515 α      in ANC's #6, #24, #17, ...

........................................................................
.............................. CYCLE   15 ..............................
........................................................................

 iter      E             dE          RMSdq      gap      omega  full diag
   1   -401.8468914 -0.401847E+03  0.360E-02    0.01       0.0  T
   2   -401.8424503  0.444112E-02  0.843E-02    0.02       1.0  T
   3   -401.8356292  0.682107E-02  0.131E-01    0.02       1.0  T
   4   -401.8280752  0.755398E-02  0.184E-01    0.01       1.0  T
   5   -401.8467060 -0.186307E-01  0.183E-02    0.01       1.0  T
   6   -401.8459609  0.745048E-03  0.407E-02    0.00       1.0  T
   7   -401.8468810 -0.920051E-03  0.635E-03    0.01       1.0  T
   8   -401.8468991 -0.180943E-04  0.324E-03    0.01       2.0  T
   9   -401.8469032 -0.416417E-05  0.162E-03    0.01       3.9  T
  10   -401.8469037 -0.446201E-06  0.114E-03    0.01       5.6  T
  11   -401.8469040 -0.355564E-06  0.686E-04    0.01       9.3  T
  12   -401.8469042 -0.145326E-06  0.361E-04    0.01      17.6  T
     SCC iter.                  ...        0 min,  1.890 sec
     gradient                   ...        0 min,  0.285 sec
 * total energy  :  -395.2684881 Eh     change       -0.2205555E-03 Eh
   gradient norm :     0.0033338 Eh/α   predicted    -0.1604167E-03 ( -27.27%)
   displ. norm   :     0.5065846 α      lambda       -0.3154553E-03
   maximum displ.:     0.2216074 α      in ANC's #6, #16, #7, ...

........................................................................
.............................. CYCLE   16 ..............................
........................................................................

 iter      E             dE          RMSdq      gap      omega  full diag
   1   -401.8481762 -0.401848E+03  0.431E-02    0.01       0.0  T
   2   -401.8471425  0.103369E-02  0.485E-02    0.01       1.0  T
   3   -401.8102755  0.368670E-01  0.248E-01    0.04       1.0  T
   4   -401.8111461 -0.870599E-03  0.243E-01    0.01       1.0  T
   5   -401.8474001 -0.362540E-01  0.342E-02    0.00       1.0  T
   6   -401.8463427  0.105741E-02  0.569E-02    0.01       1.0  T
   7   -401.8479023 -0.155957E-02  0.224E-02    0.00       1.0  T
   8   -401.8481793 -0.277086E-03  0.340E-03    0.01       1.9  T
   9   -401.8481808 -0.147871E-05  0.283E-03    0.01       2.2  T
  10   -401.8481844 -0.360355E-05  0.116E-03    0.01       5.5  T
  11   -401.8481845 -0.111102E-06  0.934E-04    0.01       6.8  T
  12   -401.8481848 -0.303603E-06  0.420E-04    0.01      15.1  T
     SCC iter.                  ...        0 min,  1.939 sec
     gradient                   ...        0 min,  0.283 sec
 * total energy  :  -395.2687521 Eh     change       -0.2639989E-03 Eh
   gradient norm :     0.0043030 Eh/α   predicted    -0.1982102E-03 ( -24.92%)
   displ. norm   :     0.5617391 α      lambda       -0.3506956E-03
   maximum displ.:     0.2584788 α      in ANC's #6, #16, #7, ...

........................................................................
.............................. CYCLE   17 ..............................
........................................................................

 iter      E             dE          RMSdq      gap      omega  full diag
   1   -401.8474524 -0.401847E+03  0.504E-02    0.01       0.0  T
   2   -401.8435809  0.387150E-02  0.823E-02    0.00       1.0  T
   3   -401.8161955  0.273854E-01  0.218E-01    0.01       1.0  T
   4   -401.8121684  0.402715E-02  0.251E-01    0.03       1.0  T
   5   -401.8465361 -0.343678E-01  0.391E-02    0.01       1.0  T
   6   -401.8444063  0.212980E-02  0.721E-02    0.00       1.0  T
   7   -401.8466618 -0.225543E-02  0.375E-02    0.01       1.0  T
   8   -401.8474264 -0.764638E-03  0.837E-03    0.01       1.0  T
   9   -401.8474588 -0.324177E-04  0.474E-03    0.01       1.3  T
  10   -401.8474687 -0.983862E-05  0.204E-03    0.01       3.1  T
  11   -401.8474678  0.824425E-06  0.224E-03    0.01       2.8  T
  12   -401.8474705 -0.267567E-05  0.770E-04    0.01       8.3  T
  13   -401.8474703  0.228941E-06  0.911E-04    0.01       7.0  T
  14   -401.8474708 -0.512243E-06  0.120E-04    0.01      52.7  T
     SCC iter.                  ...        0 min,  2.382 sec
     gradient                   ...        0 min,  0.287 sec
 * total energy  :  -395.2690442 Eh     change       -0.2920895E-03 Eh
   gradient norm :     0.0047423 Eh/α   predicted    -0.2306792E-03 ( -21.02%)
   displ. norm   :     0.5877765 α      lambda       -0.3630183E-03
   maximum displ.:     0.2781815 α      in ANC's #6, #16, #7, ...

........................................................................
.............................. CYCLE   18 ..............................
........................................................................

 iter      E             dE          RMSdq      gap      omega  full diag
   1   -401.8480066 -0.401848E+03  0.533E-02    0.01       0.0  T
   2   -401.8278837  0.201229E-01  0.178E-01    0.03       1.0  T
   3   -401.8387197 -0.108361E-01  0.121E-01    0.02       1.0  T
   4   -401.7875499  0.511698E-01  0.325E-01    0.00       1.0  T
   5   -401.8470514 -0.595015E-01  0.418E-02    0.00       1.0  T
   6   -401.8447324  0.231901E-02  0.763E-02    0.01       1.0  T
   7   -401.8480539 -0.332151E-02  0.545E-03    0.01       1.2  T
   8   -401.8480575 -0.364334E-05  0.425E-03    0.01       1.5  T
   9   -401.8480529  0.458213E-05  0.480E-03    0.01       1.3  T
  10   -401.8480656 -0.126511E-04  0.131E-03    0.01       4.8  T
  11   -401.8480648  0.797834E-06  0.156E-03    0.01       4.1  T
  12   -401.8480660 -0.117378E-05  0.485E-04    0.01      13.1  T
  13   -401.8480660 -0.606956E-07  0.211E-04    0.01      30.1  T
  14   -401.8480660  0.561232E-08  0.197E-04    0.01      32.3  T
     SCC iter.                  ...        0 min,  2.364 sec
     gradient                   ...        0 min,  0.280 sec
 * total energy  :  -395.2693445 Eh     change       -0.3002777E-03 Eh
   gradient norm :     0.0048879 Eh/α   predicted    -0.2442178E-03 ( -18.67%)
   displ. norm   :     0.6024796 α      lambda       -0.3698037E-03
   maximum displ.:     0.2930475 α      in ANC's #6, #16, #7, ...

........................................................................
.............................. CYCLE   19 ..............................
........................................................................

 iter      E             dE          RMSdq      gap      omega  full diag
   1   -401.8467042 -0.401847E+03  0.536E-02    0.01       0.0  T
   2   -401.8207894  0.259148E-01  0.205E-01    0.00       1.0  T
   3   -401.8390072 -0.182178E-01  0.112E-01    0.00       1.0  T
   4   -401.7941574  0.448497E-01  0.304E-01    0.03       1.0  T
   5   -401.8428013 -0.486438E-01  0.850E-02    0.01       1.0  T
   6   -401.8441503 -0.134896E-02  0.663E-02    0.00       1.0  T
   7   -401.8465749 -0.242463E-02  0.186E-02    0.01       1.0  T
   8   -401.8467530 -0.178130E-03  0.774E-03    0.01       1.0  T
   9   -401.8467782 -0.251987E-04  0.389E-03    0.01       1.6  T
  10   -401.8467801 -0.189774E-05  0.296E-03    0.01       2.1  T
  11   -401.8467837 -0.354453E-05  0.154E-03    0.01       4.1  T
  12   -401.8467817  0.192728E-05  0.221E-03    0.01       2.9  T
  13   -401.8467847 -0.299007E-05  0.359E-04    0.01      17.7  T
  14   -401.8467843  0.443460E-06  0.887E-04    0.01       7.2  T
  15   -401.8467847 -0.467788E-06  0.244E-04    0.01      26.1  T
     SCC iter.                  ...        0 min,  2.310 sec
     gradient                   ...        0 min,  0.286 sec
 * total energy  :  -395.2696512 Eh     change       -0.3067219E-03 Eh
   gradient norm :     0.0052213 Eh/α   predicted    -0.2520236E-03 ( -17.83%)
   displ. norm   :     0.6012777 α      lambda       -0.3999067E-03
   maximum displ.:     0.2986774 α      in ANC's #6, #7, #16, ...

........................................................................
.............................. CYCLE   20 ..............................
........................................................................

 iter      E             dE          RMSdq      gap      omega  full diag
   1   -401.8488963 -0.401849E+03  0.512E-02    0.01       0.0  T
   2   -401.8158919  0.330043E-01  0.226E-01    0.03       1.0  T
   3   -401.8438996 -0.280076E-01  0.916E-02    0.01       1.0  T
   4   -401.7984374  0.454622E-01  0.306E-01    0.03       1.0  T
   5   -401.8484356 -0.499982E-01  0.316E-02    0.01       1.0  T
   6   -401.8489563 -0.520742E-03  0.894E-03    0.01       1.0  T
   7   -401.8468931  0.206327E-02  0.591E-02    0.01       1.0  T
   8   -401.8489392 -0.204614E-02  0.104E-02    0.01       1.0  T
   9   -401.8489918 -0.525729E-04  0.381E-03    0.01       1.7  T
  10   -401.8489980 -0.626704E-05  0.152E-03    0.01       4.2  T
  11   -401.8489987 -0.687495E-06  0.815E-04    0.01       7.8  T
  12   -401.8489988 -0.347233E-07  0.557E-04    0.01      11.4  T
     SCC iter.                  ...        0 min,  1.846 sec
     gradient                   ...        0 min,  0.278 sec
 * total energy  :  -395.2699731 Eh     change       -0.3218493E-03 Eh
   gradient norm :     0.0057885 Eh/α   predicted    -0.2722459E-03 ( -15.41%)
   displ. norm   :     0.6224364 α      lambda       -0.3995810E-03
   maximum displ.:     0.3174924 α      in ANC's #6, #7, #16, ...
 * RMSD in coord.:     0.5895087 α      energy gain  -0.6454509E-01 Eh

generating ANC from model Hessian ...
Using Lindh-Hessian (1995)
 Shifting diagonal of input Hessian by    1.0026606308561068E-002
 Lowest  eigenvalues of input Hessian
    0.010000    0.010014    0.000000    0.000000    0.000000    0.000000
    0.000000    0.000000    0.010027    0.010043    0.010060    0.010084
    0.010089    0.010101    0.010116    0.010121    0.010132    0.010152
 Highest eigenvalues
    2.302431    2.303350    2.549802    2.552186    2.554654    2.554809


........................................................................
.............................. CYCLE   21 ..............................
........................................................................

 iter      E             dE          RMSdq      gap      omega  full diag
   1   -401.8488974 -0.401849E+03  0.504E-02    0.01       0.0  T
   2   -401.8237035  0.251939E-01  0.206E-01    0.03       1.0  T
   3   -401.8431005 -0.193971E-01  0.100E-01    0.01       1.0  T
   4   -401.8064742  0.366263E-01  0.263E-01    0.01       1.0  T
   5   -401.8408524 -0.343782E-01  0.120E-01    0.01       1.0  T
   6   -401.8462911 -0.543866E-02  0.669E-02    0.01       1.0  T
   7   -401.8485938 -0.230276E-02  0.257E-02    0.01       1.0  T
   8   -401.8489646 -0.370740E-03  0.530E-03    0.01       1.2  T
   9   -401.8489760 -0.114523E-04  0.267E-03    0.01       2.4  T
  10   -401.8489710  0.496422E-05  0.363E-03    0.01       1.8  T
  11   -401.8489788 -0.780201E-05  0.697E-04    0.01       9.1  T
  12   -401.8489776  0.125347E-05  0.150E-03    0.01       4.2  T
  13   -401.8489785 -0.926487E-06  0.958E-04    0.01       6.6  T
  14   -401.8489790 -0.447939E-06  0.371E-04    0.01      17.1  T
     SCC iter.                  ...        0 min,  2.188 sec
     gradient                   ...        0 min,  0.282 sec
 * total energy  :  -395.2702930 Eh     change       -0.3199529E-03 Eh
   gradient norm :     0.0063381 Eh/α   predicted     0.0000000E+00 (-100.00%)
   displ. norm   :     0.0830025 α      lambda       -0.9637020E-04
   maximum displ.:     0.0331066 α      in ANC's #4, #5, #54, ...

........................................................................
.............................. CYCLE   22 ..............................
........................................................................

 iter      E             dE          RMSdq      gap      omega  full diag
   1   -401.8501374 -0.401850E+03  0.132E-02    0.01       0.0  T
   2   -401.8368730  0.132644E-01  0.151E-01    0.01       1.0  T
   3   -401.8500287 -0.131557E-01  0.169E-02    0.01       1.0  T
   4   -401.8489179  0.111082E-02  0.446E-02    0.01       1.0  T
   5   -401.8498757 -0.957764E-03  0.229E-02    0.00       1.0  T
   6   -401.8499781 -0.102442E-03  0.189E-02    0.01       1.0  T
   7   -401.8501624 -0.184268E-03  0.648E-03    0.01       1.0  T
   8   -401.8501849 -0.225671E-04  0.221E-03    0.01       2.9  T
   9   -401.8501872 -0.224175E-05  0.843E-04    0.01       7.5  T
  10   -401.8501870  0.136283E-06  0.769E-04    0.01       8.3  T
  11   -401.8501872 -0.110339E-06  0.509E-04    0.01      12.5  T
     SCC iter.                  ...        0 min,  1.708 sec
     gradient                   ...        0 min,  0.305 sec
 * total energy  :  -395.2704059 Eh     change       -0.1128520E-03 Eh
   gradient norm :     0.0029796 Eh/α   predicted    -0.6777331E-04 ( -39.94%)
   displ. norm   :     0.2765428 α      lambda       -0.2898072E-03
   maximum displ.:     0.1125905 α      in ANC's #4, #5, #1, ...

........................................................................
.............................. CYCLE   23 ..............................
........................................................................

 iter      E             dE          RMSdq      gap      omega  full diag
   1   -401.8510182 -0.401851E+03  0.348E-02    0.00       0.0  T
   2   -401.8163822  0.346360E-01  0.245E-01    0.01       1.0  T
   3   -401.8499793 -0.335971E-01  0.526E-02    0.01       1.0  T
   4   -401.8464014  0.357792E-02  0.889E-02    0.01       1.0  T
   5   -401.8461525  0.248834E-03  0.924E-02    0.01       1.0  T
   6   -401.8466625 -0.510024E-03  0.891E-02    0.01       1.0  T
   7   -401.8507811 -0.411852E-02  0.329E-02    0.00       1.0  T
   8   -401.8513914 -0.610302E-03  0.553E-03    0.01       1.1  T
   9   -401.8513842  0.716044E-05  0.602E-03    0.01       1.1  T
  10   -401.8513927 -0.852115E-05  0.477E-03    0.01       1.3  T
  11   -401.8514022 -0.951677E-05  0.262E-03    0.01       2.4  T
  12   -401.8514060 -0.373642E-05  0.102E-03    0.01       6.2  T
  13   -401.8514055  0.435991E-06  0.129E-03    0.01       4.9  T
  14   -401.8514066 -0.102110E-05  0.137E-04    0.01      46.2  T
  15   -401.8514066 -0.238344E-09  0.122E-04    0.01      52.2  T
  16   -401.8514066 -0.506679E-08  0.782E-05    0.01      81.2  T
     SCC iter.                  ...        0 min,  2.640 sec
     gradient                   ...        0 min,  0.281 sec
 * total energy  :  -395.2706056 Eh     change       -0.1997604E-03 Eh
   gradient norm :     0.0045812 Eh/α   predicted    -0.1559870E-03 ( -21.91%)
   displ. norm   :     0.2645618 α      lambda       -0.1613093E-03
   maximum displ.:     0.1154214 α      in ANC's #4, #5, #1, ...

........................................................................
.............................. CYCLE   24 ..............................
........................................................................

 iter      E             dE          RMSdq      gap      omega  full diag
   1   -401.8510795 -0.401851E+03  0.229E-02    0.01       0.0  T
   2   -401.8263678  0.247118E-01  0.194E-01    0.01       1.0  T
   3   -401.8503263 -0.239585E-01  0.386E-02    0.01       1.0  T
   4   -401.8472772  0.304908E-02  0.849E-02    0.00       1.0  T
   5   -401.8499623 -0.268514E-02  0.443E-02    0.00       1.0  T
   6   -401.8504486 -0.486328E-03  0.355E-02    0.01       1.0  T
   7   -401.8511451 -0.696433E-03  0.552E-03    0.01       1.2  T
   8   -401.8511604 -0.152958E-04  0.249E-03    0.01       2.5  T
   9   -401.8511634 -0.303229E-05  0.806E-04    0.01       7.9  T
  10   -401.8511635 -0.132861E-06  0.598E-04    0.01      10.6  T
  11   -401.8511636 -0.825486E-07  0.361E-04    0.01      17.6  T
     SCC iter.                  ...        0 min,  1.696 sec
     gradient                   ...        0 min,  0.283 sec
 * total energy  :  -395.2707360 Eh     change       -0.1303622E-03 Eh
   gradient norm :     0.0064279 Eh/α   predicted    -0.8659305E-04 ( -33.58%)
   displ. norm   :     0.3805669 α      lambda       -0.2209568E-03
   maximum displ.:     0.1723721 α      in ANC's #4, #5, #1, ...

........................................................................
.............................. CYCLE   25 ..............................
........................................................................

 iter      E             dE          RMSdq      gap      omega  full diag
   1   -401.8502292 -0.401850E+03  0.275E-02    0.01       0.0  T
   2   -401.8293608  0.208684E-01  0.177E-01    0.01       1.0  T
   3   -401.8496502 -0.202893E-01  0.338E-02    0.00       1.0  T
   4   -401.8320865  0.175636E-01  0.178E-01    0.01       1.0  T
   5   -401.8497456 -0.176591E-01  0.290E-02    0.00       1.0  T
   6   -401.8488662  0.879487E-03  0.509E-02    0.00       1.0  T
   7   -401.8502320 -0.136580E-02  0.929E-03    0.01       1.0  T
   8   -401.8502751 -0.431379E-04  0.347E-03    0.01       1.8  T
   9   -401.8502809 -0.576276E-05  0.127E-03    0.01       5.0  T
  10   -401.8502812 -0.393654E-06  0.817E-04    0.01       7.8  T
  11   -401.8502813 -0.152858E-07  0.673E-04    0.01       9.4  T
     SCC iter.                  ...        0 min,  1.874 sec
     gradient                   ...        0 min,  0.282 sec
 * total energy  :  -395.2709180 Eh     change       -0.1820304E-03 Eh
   gradient norm :     0.0058622 Eh/α   predicted    -0.1264800E-03 ( -30.52%)
   displ. norm   :     0.4668707 α      lambda       -0.2609419E-03
   maximum displ.:     0.2209895 α      in ANC's #4, #5, #1, ...

........................................................................
.............................. CYCLE   26 ..............................
........................................................................

 iter      E             dE          RMSdq      gap      omega  full diag
   1   -401.8494208 -0.401849E+03  0.311E-02    0.01       0.0  T
   2   -401.8281080  0.213128E-01  0.199E-01    0.03       1.0  T
   3   -401.8490760 -0.209680E-01  0.303E-02    0.01       1.0  T
   4   -401.8175104  0.315656E-01  0.218E-01    0.03       1.0  T
   5   -401.8474318 -0.299214E-01  0.588E-02    0.00       1.0  T
   6   -401.8490334 -0.160164E-02  0.289E-02    0.00       1.0  T
   7   -401.8494243 -0.390874E-03  0.109E-02    0.01       1.0  T
   8   -401.8494879 -0.635958E-04  0.409E-03    0.01       1.6  T
   9   -401.8494941 -0.618665E-05  0.240E-03    0.01       2.6  T
  10   -401.8494971 -0.296601E-05  0.799E-04    0.01       7.9  T
  11   -401.8494958  0.130230E-05  0.151E-03    0.01       4.2  T
  12   -401.8494971 -0.135602E-05  0.418E-04    0.01      15.2  T
  13   -401.8494970  0.850073E-07  0.533E-04    0.01      11.9  T
  14   -401.8494972 -0.147202E-06  0.216E-04    0.01      29.3  T
     SCC iter.                  ...        0 min,  2.468 sec
     gradient                   ...        0 min,  0.300 sec
 * total energy  :  -395.2711348 Eh     change       -0.2167891E-03 Eh
   gradient norm :     0.0037215 Eh/α   predicted    -0.1589117E-03 ( -26.70%)
   displ. norm   :     0.5170822 α      lambda       -0.2776093E-03
   maximum displ.:     0.2533172 α      in ANC's #4, #5, #1, ...

........................................................................
.............................. CYCLE   27 ..............................
........................................................................

 iter      E             dE          RMSdq      gap      omega  full diag
   1   -401.8493567 -0.401849E+03  0.317E-02    0.01       0.0  T
   2   -401.8221482  0.272085E-01  0.226E-01    0.03       1.0  T
   3   -401.8491633 -0.270150E-01  0.269E-02    0.01       1.0  T
   4   -401.8135243  0.356389E-01  0.231E-01    0.03       1.0  T
   5   -401.8476755 -0.341512E-01  0.552E-02    0.00       1.0  T
   6   -401.8490539 -0.137840E-02  0.269E-02    0.00       1.0  T
   7   -401.8493824 -0.328523E-03  0.111E-02    0.01       1.0  T
   8   -401.8494488 -0.663761E-04  0.424E-03    0.01       1.5  T
   9   -401.8494560 -0.722810E-05  0.248E-03    0.01       2.6  T
  10   -401.8494583 -0.228040E-05  0.147E-03    0.01       4.3  T
  11   -401.8494590 -0.716703E-06  0.973E-04    0.01       6.5  T
  12   -401.8494593 -0.273708E-06  0.664E-04    0.01       9.6  T
     SCC iter.                  ...        0 min,  1.929 sec
     gradient                   ...        0 min,  0.298 sec
 * total energy  :  -395.2713731 Eh     change       -0.2383051E-03 Eh
   gradient norm :     0.0037975 Eh/α   predicted    -0.1759304E-03 ( -26.17%)
   displ. norm   :     0.5786475 α      lambda       -0.3233305E-03
   maximum displ.:     0.2888914 α      in ANC's #4, #5, #1, ...

........................................................................
.............................. CYCLE   28 ..............................
........................................................................

 iter      E             dE          RMSdq      gap      omega  full diag
   1   -401.8500863 -0.401850E+03  0.324E-02    0.01       0.0  T
   2   -401.8224246  0.276616E-01  0.219E-01    0.00       1.0  T
   3   -401.8493561 -0.269315E-01  0.387E-02    0.00       1.0  T
   4   -401.8276754  0.216807E-01  0.188E-01    0.01       1.0  T
   5   -401.8452355 -0.175601E-01  0.928E-02    0.00       1.0  T
   6   -401.8500251 -0.478964E-02  0.169E-02    0.01       1.0  T
   7   -401.8501103 -0.851760E-04  0.109E-02    0.01       1.0  T
   8   -401.8501771 -0.668108E-04  0.353E-03    0.01       1.8  T
   9   -401.8501785 -0.138340E-05  0.311E-03    0.01       2.0  T
  10   -401.8501836 -0.511953E-05  0.132E-03    0.01       4.8  T
  11   -401.8501832  0.393145E-06  0.149E-03    0.01       4.3  T
  12   -401.8501845 -0.129174E-05  0.403E-04    0.01      15.7  T
  13   -401.8501844  0.788935E-07  0.517E-04    0.01      12.3  T
  14   -401.8501846 -0.133186E-06  0.221E-04    0.01      28.8  T
     SCC iter.                  ...        0 min,  2.610 sec
     gradient                   ...        0 min,  0.317 sec
 * total energy  :  -395.2716612 Eh     change       -0.2880821E-03 Eh
   gradient norm :     0.0060652 Eh/α   predicted    -0.2157965E-03 ( -25.09%)
   displ. norm   :     0.6512785 α      lambda       -0.3966300E-03
   maximum displ.:     0.3285726 α      in ANC's #4, #5, #1, ...

........................................................................
.............................. CYCLE   29 ..............................
........................................................................

 iter      E             dE          RMSdq      gap      omega  full diag
   1   -401.8513158 -0.401851E+03  0.348E-02    0.01       0.0  T
   2   -401.8298837  0.214321E-01  0.198E-01    0.01       1.0  T
   3   -401.8504979 -0.206142E-01  0.418E-02    0.01       1.0  T
   4   -401.8156772  0.348207E-01  0.231E-01    0.03       1.0  T
   5   -401.8453277 -0.296505E-01  0.103E-01    0.00       1.0  T
   6   -401.8511596 -0.583188E-02  0.202E-02    0.01       1.0  T
   7   -401.8512973 -0.137758E-03  0.125E-02    0.01       1.0  T
   8   -401.8513892 -0.918929E-04  0.307E-03    0.01       2.1  T
   9   -401.8513874  0.185720E-05  0.342E-03    0.01       1.9  T
  10   -401.8513942 -0.680588E-05  0.111E-03    0.01       5.7  T
  11   -401.8513933  0.847471E-06  0.152E-03    0.01       4.2  T
  12   -401.8513944 -0.104023E-05  0.807E-04    0.01       7.9  T
  13   -401.8513947 -0.338404E-06  0.333E-04    0.01      19.0  T
  14   -401.8513947  0.371799E-07  0.406E-04    0.01      15.6  T
     SCC iter.                  ...        0 min,  2.603 sec
     gradient                   ...        0 min,  0.298 sec
 * total energy  :  -395.2720179 Eh     change       -0.3567173E-03 Eh
   gradient norm :     0.0076448 Eh/α   predicted    -0.2824338E-03 ( -20.82%)
   displ. norm   :     0.7048074 α      lambda       -0.4521551E-03
   maximum displ.:     0.3597956 α      in ANC's #4, #5, #1, ...

........................................................................
.............................. CYCLE   30 ..............................
........................................................................

 iter      E             dE          RMSdq      gap      omega  full diag
   1   -401.8523811 -0.401852E+03  0.375E-02    0.01       0.0  T
   2   -401.8287060  0.236751E-01  0.196E-01    0.02       1.0  T
   3   -401.8506755 -0.219695E-01  0.550E-02    0.00       1.0  T
   4   -401.8186525  0.320230E-01  0.237E-01    0.01       1.0  T
   5   -401.8477592 -0.291067E-01  0.914E-02    0.01       1.0  T
   6   -401.8515028 -0.374360E-02  0.393E-02    0.01       1.0  T
   7   -401.8523545 -0.851689E-03  0.130E-02    0.01       1.0  T
   8   -401.8524486 -0.941541E-04  0.323E-03    0.01       2.0  T
   9   -401.8524458  0.287107E-05  0.368E-03    0.01       1.7  T
  10   -401.8524537 -0.789057E-05  0.106E-03    0.01       6.0  T
  11   -401.8524532  0.483315E-06  0.127E-03    0.01       5.0  T
  12   -401.8524537 -0.505394E-06  0.873E-04    0.01       7.3  T
  13   -401.8524541 -0.377846E-06  0.411E-04    0.01      15.4  T
     SCC iter.                  ...        0 min,  2.357 sec
     gradient                   ...        0 min,  0.280 sec
 * total energy  :  -395.2724228 Eh     change       -0.4048535E-03 Eh
   gradient norm :     0.0072626 Eh/α   predicted    -0.3383843E-03 ( -16.42%)
   displ. norm   :     0.7344068 α      lambda       -0.4670753E-03
   maximum displ.:     0.3815450 α      in ANC's #4, #5, #1, ...

........................................................................
.............................. CYCLE   31 ..............................
........................................................................

 iter      E             dE          RMSdq      gap      omega  full diag
   1   -401.8528211 -0.401853E+03  0.404E-02    0.01       0.0  T
   2   -401.8086944  0.441267E-01  0.259E-01    0.01       1.0  T
   3   -401.8518476 -0.431533E-01  0.475E-02    0.01       1.0  T
   4   -401.8244379  0.274098E-01  0.230E-01    0.01       1.0  T
   5   -401.8524925 -0.280546E-01  0.270E-02    0.01       1.0  T
   6   -401.8508945  0.159801E-02  0.602E-02    0.00       1.0  T
   7   -401.8526237 -0.172921E-02  0.244E-02    0.01       1.0  T
   8   -401.8529728 -0.349155E-03  0.461E-03    0.01       1.4  T
   9   -401.8529801 -0.723432E-05  0.264E-03    0.01       2.4  T
  10   -401.8529834 -0.329037E-05  0.141E-03    0.01       4.5  T
  11   -401.8529837 -0.314753E-06  0.107E-03    0.01       5.9  T
  12   -401.8529842 -0.507635E-06  0.581E-04    0.01      10.9  T
  13   -401.8529843 -0.122249E-06  0.385E-04    0.01      16.5  T
     SCC iter.                  ...        0 min,  3.461 sec
     gradient                   ...        0 min,  0.324 sec
 * total energy  :  -395.2728415 Eh     change       -0.4187582E-03 Eh
   gradient norm :     0.0052096 Eh/α   predicted    -0.3595026E-03 ( -14.15%)
   displ. norm   :     0.7552734 α      lambda       -0.4654775E-03
   maximum displ.:     0.3991178 α      in ANC's #4, #5, #1, ...

........................................................................
.............................. CYCLE   32 ..............................
........................................................................

 iter      E             dE          RMSdq      gap      omega  full diag
   1   -401.8529318 -0.401853E+03  0.402E-02    0.01       0.0  T
   2   -401.8050474  0.478844E-01  0.270E-01    0.00       1.0  T
   3   -401.8522123 -0.471649E-01  0.418E-02    0.00       1.0  T
   4   -401.8149518  0.372605E-01  0.256E-01    0.00       1.0  T
   5   -401.8520645 -0.371128E-01  0.432E-02    0.00       1.0  T
   6   -401.8511664  0.898180E-03  0.582E-02    0.01       1.0  T
   7   -401.8529857 -0.181933E-02  0.134E-02    0.01       1.0  T
   8   -401.8530976 -0.111881E-03  0.388E-03    0.01       1.6  T
   9   -401.8531022 -0.459939E-05  0.238E-03    0.01       2.7  T
  10   -401.8531045 -0.232194E-05  0.133E-03    0.01       4.8  T
  11   -401.8531042  0.266345E-06  0.139E-03    0.01       4.6  T
  12   -401.8531054 -0.114201E-05  0.384E-04    0.01      16.5  T
  13   -401.8531052  0.114171E-06  0.563E-04    0.01      11.3  T
  14   -401.8531054 -0.155405E-06  0.236E-04    0.01      26.9  T
     SCC iter.                  ...        0 min,  3.071 sec
     gradient                   ...        0 min,  0.291 sec
 * total energy  :  -395.2732667 Eh     change       -0.4251618E-03 Eh
   gradient norm :     0.0037949 Eh/α   predicted    -0.3655094E-03 ( -14.03%)
   displ. norm   :     0.7727357 α      lambda       -0.4801645E-03
   maximum displ.:     0.4127946 α      in ANC's #4, #5, #1, ...

........................................................................
.............................. CYCLE   33 ..............................
........................................................................

 iter      E             dE          RMSdq      gap      omega  full diag
   1   -401.8533387 -0.401853E+03  0.387E-02    0.01       0.0  T
   2   -401.8122864  0.410523E-01  0.252E-01    0.01       1.0  T
   3   -401.8524332 -0.401468E-01  0.437E-02    0.00       1.0  T
   4   -401.8162186  0.362146E-01  0.247E-01    0.02       1.0  T
   5   -401.8521050 -0.358864E-01  0.481E-02    0.01       1.0  T
   6   -401.8514197  0.685268E-03  0.611E-02    0.00       1.0  T
   7   -401.8533813 -0.196156E-02  0.127E-02    0.01       1.0  T
   8   -401.8534691 -0.878035E-04  0.393E-03    0.01       1.6  T
   9   -401.8534731 -0.402327E-05  0.272E-03    0.01       2.3  T
  10   -401.8534765 -0.335577E-05  0.112E-03    0.01       5.7  T
  11   -401.8534757  0.750794E-06  0.150E-03    0.01       4.2  T
  12   -401.8534770 -0.132573E-05  0.282E-04    0.01      22.5  T
  13   -401.8534769  0.146947E-06  0.529E-04    0.01      12.0  T
  14   -401.8534770 -0.144411E-06  0.217E-04    0.01      29.3  T
     SCC iter.                  ...        0 min,  2.865 sec
     gradient                   ...        0 min,  0.300 sec
 * total energy  :  -395.2737123 Eh     change       -0.4456147E-03 Eh
   gradient norm :     0.0049553 Eh/α   predicted    -0.3834408E-03 ( -13.95%)
   displ. norm   :     0.7954024 α      lambda       -0.5088507E-03
   maximum displ.:     0.4268640 α      in ANC's #4, #5, #1, ...

........................................................................
.............................. CYCLE   34 ..............................
........................................................................

 iter      E             dE          RMSdq      gap      omega  full diag
   1   -401.8536887 -0.401854E+03  0.385E-02    0.01       0.0  T
   2   -401.8145682  0.391205E-01  0.254E-01    0.01       1.0  T
   3   -401.8524369 -0.378687E-01  0.494E-02    0.00       1.0  T
   4   -401.8280311  0.244058E-01  0.207E-01    0.01       1.0  T
   5   -401.8477297 -0.196987E-01  0.104E-01    0.00       1.0  T
   6   -401.8532839 -0.555419E-02  0.295E-02    0.00       1.0  T
   7   -401.8537267 -0.442801E-03  0.134E-02    0.01       1.0  T
   8   -401.8538283 -0.101604E-03  0.419E-03    0.01       1.5  T
   9   -401.8538291 -0.803951E-06  0.383E-03    0.01       1.7  T
  10   -401.8538363 -0.717478E-05  0.156E-03    0.01       4.1  T
  11   -401.8538341  0.219407E-05  0.233E-03    0.01       2.7  T
  12   -401.8538374 -0.333625E-05  0.490E-04    0.01      13.0  T
  13   -401.8538372  0.253159E-06  0.777E-04    0.01       8.2  T
  14   -401.8538375 -0.317586E-06  0.325E-04    0.01      19.5  T
     SCC iter.                  ...        0 min,  2.826 sec
     gradient                   ...        0 min,  0.286 sec
 * total energy  :  -395.2741889 Eh     change       -0.4766126E-03 Eh
   gradient norm :     0.0064314 Eh/α   predicted    -0.4153942E-03 ( -12.84%)
   displ. norm   :     0.8083643 α      lambda       -0.5391042E-03
   maximum displ.:     0.4363898 α      in ANC's #4, #5, #1, ...

........................................................................
.............................. CYCLE   35 ..............................
........................................................................

 iter      E             dE          RMSdq      gap      omega  full diag
   1   -401.8550734 -0.401855E+03  0.382E-02    0.01       0.0  T
   2   -401.8196638  0.354096E-01  0.253E-01    0.03       1.0  T
   3   -401.8544252 -0.347613E-01  0.400E-02    0.01       1.0  T
   4   -401.8120949  0.423302E-01  0.255E-01    0.04       1.0  T
   5   -401.8501321 -0.380372E-01  0.941E-02    0.00       1.0  T
   6   -401.8550086 -0.487650E-02  0.193E-02    0.01       1.0  T
   7   -401.8551950 -0.186401E-03  0.581E-03    0.01       1.1  T
   8   -401.8551967 -0.170217E-05  0.525E-03    0.01       1.2  T
   9   -401.8552073 -0.105037E-04  0.329E-03    0.01       1.9  T
  10   -401.8552129 -0.564368E-05  0.123E-03    0.01       5.2  T
  11   -401.8552107  0.217092E-05  0.210E-03    0.01       3.0  T
  12   -401.8552133 -0.259761E-05  0.537E-04    0.01      11.8  T
  13   -401.8552132  0.171629E-06  0.722E-04    0.01       8.8  T
  14   -401.8552134 -0.272002E-06  0.309E-04    0.01      20.5  T
     SCC iter.                  ...        0 min,  2.561 sec
     gradient                   ...        0 min,  0.300 sec
 * total energy  :  -395.2746916 Eh     change       -0.5026441E-03 Eh
   gradient norm :     0.0066743 Eh/α   predicted    -0.4456934E-03 ( -11.33%)
   displ. norm   :     0.8250308 α      lambda       -0.5496516E-03
   maximum displ.:     0.4474791 α      in ANC's #4, #5, #1, ...

........................................................................
.............................. CYCLE   36 ..............................
........................................................................

 iter      E             dE          RMSdq      gap      omega  full diag
   1   -401.8547869 -0.401855E+03  0.421E-02    0.01       0.0  T
   2   -401.7973653  0.574216E-01  0.329E-01    0.05       1.0  T
   3   -401.8541680 -0.568026E-01  0.444E-02    0.01       1.0  T
   4   -401.8329321  0.212359E-01  0.193E-01    0.01       1.0  T
   5   -401.8432110 -0.102789E-01  0.131E-01    0.00       1.0  T
   6   -401.8523264 -0.911543E-02  0.659E-02    0.01       1.0  T
   7   -401.8549390 -0.261257E-02  0.170E-02    0.01       1.0  T
   8   -401.8550850 -0.146055E-03  0.501E-03    0.01       1.3  T
   9   -401.8550920 -0.702024E-05  0.311E-03    0.01       2.0  T
  10   -401.8550959 -0.383910E-05  0.152E-03    0.01       4.2  T
  11   -401.8550945  0.137674E-05  0.204E-03    0.01       3.1  T
  12   -401.8550969 -0.235518E-05  0.521E-04    0.01      12.2  T
  13   -401.8550968  0.834968E-07  0.615E-04    0.01      10.3  T
  14   -401.8550970 -0.192180E-06  0.168E-04    0.01      37.7  T
     SCC iter.                  ...        0 min,  2.401 sec
     gradient                   ...        0 min,  0.286 sec
 * total energy  :  -395.2752027 Eh     change       -0.5111048E-03 Eh
   gradient norm :     0.0050256 Eh/α   predicted    -0.4618944E-03 (  -9.63%)
   displ. norm   :     0.8128977 α      lambda       -0.5589796E-03
   maximum displ.:     0.4461194 α      in ANC's #4, #1, #5, ...

........................................................................
.............................. CYCLE   37 ..............................
........................................................................

 iter      E             dE          RMSdq      gap      omega  full diag
   1   -401.8589638 -0.401859E+03  0.393E-02    0.01       0.0  T
   2   -401.8203827  0.385811E-01  0.270E-01    0.05       1.0  T
   3   -401.8585955 -0.382128E-01  0.376E-02    0.02       1.0  T
   4   -401.8337959  0.247996E-01  0.212E-01    0.03       1.0  T
   5   -401.8564028 -0.226069E-01  0.664E-02    0.00       1.0  T
   6   -401.8585023 -0.209944E-02  0.302E-02    0.01       1.0  T
   7   -401.8561712  0.233103E-02  0.661E-02    0.01       1.0  T
   8   -401.8591128 -0.294159E-02  0.517E-03    0.01       1.2  T
   9   -401.8591234 -0.105456E-04  0.274E-03    0.01       2.3  T
  10   -401.8591258 -0.245937E-05  0.136E-03    0.01       4.7  T
  11   -401.8591262 -0.359420E-06  0.842E-04    0.01       7.5  T
  12   -401.8591263 -0.151811E-06  0.598E-04    0.01      10.6  T
     SCC iter.                  ...        0 min,  2.170 sec
     gradient                   ...        0 min,  0.290 sec
 * total energy  :  -395.2756999 Eh     change       -0.4972670E-03 Eh
   gradient norm :     0.0063520 Eh/α   predicted    -0.4642198E-03 (  -6.65%)
   displ. norm   :     0.8320910 α      lambda       -0.5543072E-03
   maximum displ.:     0.4559957 α      in ANC's #4, #1, #5, ...

........................................................................
.............................. CYCLE   38 ..............................
........................................................................

 iter      E             dE          RMSdq      gap      omega  full diag
   1   -401.8560880 -0.401856E+03  0.491E-02    0.01       0.0  T
   2   -401.7814921  0.745959E-01  0.377E-01    0.06       1.0  T
   3   -401.8480396 -0.665474E-01  0.124E-01    0.00       1.0  T
   4   -401.8542693 -0.622977E-02  0.669E-02    0.01       1.0  T
   5   -401.8231549  0.311145E-01  0.222E-01    0.01       1.0  T
   6   -401.8444807 -0.213258E-01  0.139E-01    0.00       1.0  T
   7   -401.8559191 -0.114384E-01  0.393E-02    0.01       1.0  T
   8   -401.8566977 -0.778602E-03  0.962E-03    0.01       1.0  T
   9   -401.8566993 -0.159116E-05  0.935E-03    0.01       1.0  T
  10   -401.8567404 -0.411048E-04  0.405E-03    0.01       1.6  T
  11   -401.8567358  0.460656E-05  0.481E-03    0.01       1.3  T
  12   -401.8567473 -0.114617E-04  0.164E-03    0.01       3.9  T
  13   -401.8567485 -0.126912E-05  0.684E-04    0.01       9.3  T
  14   -401.8567488 -0.212922E-06  0.297E-04    0.01      21.4  T
  15   -401.8567488 -0.879129E-08  0.243E-04    0.01      26.2  T
     SCC iter.                  ...        0 min,  2.485 sec
     gradient                   ...        0 min,  0.284 sec
 * total energy  :  -395.2761970 Eh     change       -0.4970159E-03 Eh
   gradient norm :     0.0057198 Eh/α   predicted    -0.4690503E-03 (  -5.63%)
   displ. norm   :     0.8026707 α      lambda       -0.5328119E-03
   maximum displ.:     0.4440058 α      in ANC's #4, #1, #5, ...

........................................................................
.............................. CYCLE   39 ..............................
........................................................................

 iter      E             dE          RMSdq      gap      omega  full diag
   1   -401.8573698 -0.401857E+03  0.405E-02    0.01       0.0  T
   2   -401.8090393  0.483305E-01  0.300E-01    0.05       1.0  T
   3   -401.8572339 -0.481946E-01  0.322E-02    0.01       1.0  T
   4   -401.8342075  0.230264E-01  0.197E-01    0.02       1.0  T
   5   -401.8485886 -0.143811E-01  0.116E-01    0.01       1.0  T
   6   -401.8568758 -0.828719E-02  0.333E-02    0.01       1.0  T
   7   -401.8561770  0.698834E-03  0.477E-02    0.00       1.0  T
   8   -401.8575656 -0.138861E-02  0.557E-03    0.01       1.1  T
   9   -401.8575755 -0.995227E-05  0.358E-03    0.01       1.8  T
  10   -401.8575797 -0.414549E-05  0.201E-03    0.01       3.2  T
  11   -401.8575815 -0.185819E-05  0.593E-04    0.01      10.7  T
  12   -401.8575816 -0.111403E-06  0.265E-04    0.01      23.9  T
  13   -401.8575817 -0.188873E-07  0.157E-04    0.01      40.5  T
     SCC iter.                  ...        0 min,  3.386 sec
     gradient                   ...        0 min,  0.286 sec
 * total energy  :  -395.2766946 Eh     change       -0.4976569E-03 Eh
   gradient norm :     0.0061469 Eh/α   predicted    -0.4380597E-03 ( -11.98%)
   displ. norm   :     0.8165635 α      lambda       -0.5742036E-03
   maximum displ.:     0.4519947 α      in ANC's #4, #1, #5, ...

........................................................................
.............................. CYCLE   40 ..............................
........................................................................

 iter      E             dE          RMSdq      gap      omega  full diag
   1   -401.8597233 -0.401860E+03  0.430E-02    0.01       0.0  T
   2   -401.8075480  0.521753E-01  0.308E-01    0.05       1.0  T
   3   -401.8595999 -0.520519E-01  0.329E-02    0.01       1.0  T
   4   -401.8173338  0.422661E-01  0.258E-01    0.03       1.0  T
   5   -401.8543673 -0.370335E-01  0.920E-02    0.01       1.0  T
   6   -401.8596389 -0.527155E-02  0.223E-02    0.01       1.0  T
   7   -401.8580154  0.162343E-02  0.576E-02    0.01       1.0  T
   8   -401.8599407 -0.192532E-02  0.664E-03    0.01       1.0  T
[...]
    23   6 C       24   6 C                                       1.3561365
    25   6 C       26   6 C                                       1.4055729
    22   6 C       27   6 C                                       1.4078635
    26   6 C       27   6 C                                       1.3683929
    21   6 C       28   6 C                                       1.3973633
    25   6 C       28   6 C                                       1.3821852
    29   6 C       31   7 N                                       1.3249607
    31   7 N       32   7 N                                       1.3202827
    32   7 N       33   6 C                                       1.4010033
    33   6 C       34   7 N                                       1.4008282
    29   6 C       35   7 N                                       1.3241661
    34   7 N       35   7 N                                       1.3213525
    33   6 C       36   8 O                                       1.2016918
    30   6 C       37   7 N                                       1.3207445
    37   7 N       38   7 N                                       1.3301278
    38   7 N       39   6 C                                       1.3972720
    39   6 C       40   7 N                                       1.3976862
    30   6 C       41   7 N                                       1.3224404
    40   7 N       41   7 N                                       1.3284294
    39   6 C       42   8 O                                       1.2043515
    12   6 C       43   7 N                                       1.3715263
    16   6 C       43   7 N                                       1.3719298
    44  14 Si      45   6 C                                       1.9242923
    45   6 C       46   6 C                                       1.5161886
    46   6 C       47   8 O                                       1.4187387
    44  14 Si      48   6 C                                       1.9087671
    44  14 Si      49   6 C                                       1.9025285
    44  14 Si      50   6 C                                       1.9053304
    43   7 N       51   6 C                                       1.4319231
    47   8 O       51   6 C                                       1.4025733
    32   7 N       52   6 C                                       1.4117055
    52   6 C       53   6 C                                       1.3973436
    53   6 C       54   6 C                                       1.3783386
    54   6 C       55   6 C                                       1.3877456
    55   6 C       56   6 C                                       1.3856164
    52   6 C       57   6 C                                       1.3938257
    56   6 C       57   6 C                                       1.3830729
    34   7 N       58   6 C                                       1.4120763
    58   6 C       59   6 C                                       1.3929253
    59   6 C       60   6 C                                       1.3825647
    60   6 C       61   6 C                                       1.3860624
    61   6 C       62   6 C                                       1.3876991
    58   6 C       63   6 C                                       1.3954334
    62   6 C       63   6 C                                       1.3793226
    40   7 N       64   6 C                                       1.4113760
    64   6 C       65   6 C                                       1.3932971
    65   6 C       66   6 C                                       1.3829698
    66   6 C       67   6 C                                       1.3847231
    67   6 C       68   6 C                                       1.3864338
    64   6 C       69   6 C                                       1.3969158
    68   6 C       69   6 C                                       1.3774976
    38   7 N       70   6 C                                       1.4119681
    70   6 C       71   6 C                                       1.3964548
    71   6 C       72   6 C                                       1.3792917
    72   6 C       73   6 C                                       1.3872568
    73   6 C       74   6 C                                       1.3855173
    70   6 C       75   6 C                                       1.3928389
    74   6 C       75   6 C                                       1.3831070
    63   6 C       76   1 H                                       1.0788172
    62   6 C       77   1 H                                       1.0789461
    61   6 C       78   1 H                                       1.0786700
    60   6 C       79   1 H                                       1.0784783
    59   6 C       80   1 H                                       1.0768748
    57   6 C       81   1 H                                       1.0760639
    56   6 C       82   1 H                                       1.0788109
    55   6 C       83   1 H                                       1.0789118
    54   6 C       84   1 H                                       1.0787871
    53   6 C       85   1 H                                       1.0779862
    49   6 C       86   1 H                                       1.0860292
    49   6 C       87   1 H                                       1.0854241
    49   6 C       88   1 H                                       1.0861820
    48   6 C       89   1 H                                       1.0860773
    48   6 C       90   1 H                                       1.0846282
    48   6 C       91   1 H                                       1.0868042
    50   6 C       92   1 H                                       1.0859695
    50   6 C       93   1 H                                       1.0864926
    50   6 C       94   1 H                                       1.0855090
    45   6 C       95   1 H                                       1.0909614
    45   6 C       96   1 H                                       1.0899455
    46   6 C       97   1 H                                       1.0981633
    46   6 C       98   1 H                                       1.0986993
    51   6 C       99   1 H                                       1.1043722
    51   6 C      100   1 H                                       1.0995858
    13   6 C      101   1 H                                       1.0784628
    14   6 C      102   1 H                                       1.0790603
     9   6 C      103   1 H                                       1.0798306
    10   6 C      104   1 H                                       1.0809018
    71   6 C      105   1 H                                       1.0786609
    72   6 C      106   1 H                                       1.0788970
    73   6 C      107   1 H                                       1.0786762
    74   6 C      108   1 H                                       1.0789937
    75   6 C      109   1 H                                       1.0757511
    65   6 C      110   1 H                                       1.0754833
    66   6 C      111   1 H                                       1.0788136
    67   6 C      112   1 H                                       1.0791676
    68   6 C      113   1 H                                       1.0790890
    69   6 C      114   1 H                                       1.0760287
    19   6 C      115   1 H                                       1.0793618
    20   6 C      116   1 H                                       1.0774999
     1   6 C      117   1 H                                       1.0816167
     2   6 C      118   1 H                                       1.0784435
     4   6 C      119   1 H                                       1.0744451 (min)
    28   6 C      120   1 H                                       1.0757785
    26   6 C      121   1 H                                       1.0779987
    27   6 C      122   1 H                                       1.0811216
    23   6 C      123   1 H                                       1.0809176
    24   6 C      124   1 H                                       1.0803404
   125   6 C      126   6 C                                       1.3686771
   126   6 C      127   6 C                                       1.4053880
   127   6 C      128   6 C                                       1.3823561
   128   6 C      129   6 C                                       1.3971444
   125   6 C      130   6 C                                       1.4079892
   129   6 C      130   6 C                                       1.4168307
   131   6 C      132   6 C                                       1.4148447
   132   6 C      133   6 C                                       1.4219000
   130   6 C      134   6 C                                       1.4188871
   133   6 C      134   6 C                                       1.3564199
   131   6 C      135   6 C                                       1.4203045
   135   6 C      136   6 C                                       1.4142348
   136   6 C      137   6 C                                       1.3975496
   132   6 C      138   6 C                                       1.4111736
   137   6 C      138   6 C                                       1.3669346
   139   6 C      140   6 C                                       1.4162537
   139   6 C      141   6 C                                       1.4199041
   141   6 C      142   6 C                                       1.4148562
   142   6 C      143   6 C                                       1.4101974
   140   6 C      144   6 C                                       1.3968662
   143   6 C      144   6 C                                       1.3663677
   145   6 C      146   6 C                                       1.4172427
   146   6 C      147   6 C                                       1.4181638
   142   6 C      148   6 C                                       1.4204342
   147   6 C      148   6 C                                       1.3556221
   149   6 C      150   6 C                                       1.4052892
   146   6 C      151   6 C                                       1.4086464
   150   6 C      151   6 C                                       1.3684873
   145   6 C      152   6 C                                       1.3985983
   149   6 C      152   6 C                                       1.3821454
   153   6 C      155   7 N                                       1.3230247
   155   7 N      156   7 N                                       1.3273589
   156   7 N      157   6 C                                       1.3981528
   157   6 C      158   7 N                                       1.3963308
   153   6 C      159   7 N                                       1.3212952
   158   7 N      159   7 N                                       1.3278100
   157   6 C      160   8 O                                       1.2041775
   154   6 C      161   7 N                                       1.3241946
   161   7 N      162   7 N                                       1.3212837
   162   7 N      163   6 C                                       1.4006104
   163   6 C      164   7 N                                       1.4012620
   154   6 C      165   7 N                                       1.3247830
   164   7 N      165   7 N                                       1.3200051
   163   6 C      166   8 O                                       1.2018290
   136   6 C      167   7 N                                       1.3712314
   140   6 C      167   7 N                                       1.3698574
   168  14 Si     169   6 C                                       1.9260328 (max)
   169   6 C      170   6 C                                       1.5132464
   170   6 C      171   8 O                                       1.4202859
   168  14 Si     172   6 C                                       1.9045809
   168  14 Si     173   6 C                                       1.9080489
   168  14 Si     174   6 C                                       1.9067429
   167   7 N      175   6 C                                       1.4295211
   171   8 O      175   6 C                                       1.3977041
   156   7 N      176   6 C                                       1.4099531
   176   6 C      177   6 C                                       1.3972105
   177   6 C      178   6 C                                       1.3764865
   178   6 C      179   6 C                                       1.3869507
   179   6 C      180   6 C                                       1.3842862
   176   6 C      181   6 C                                       1.3936003
   180   6 C      181   6 C                                       1.3829029
   158   7 N      182   6 C                                       1.4123031
   182   6 C      183   6 C                                       1.3926035
   183   6 C      184   6 C                                       1.3831585
   184   6 C      185   6 C                                       1.3855855
   185   6 C      186   6 C                                       1.3872629
   182   6 C      187   6 C                                       1.3960917
   186   6 C      187   6 C                                       1.3794383
   164   7 N      188   6 C                                       1.4116680
   188   6 C      189   6 C                                       1.3941231
   189   6 C      190   6 C                                       1.3830482
   190   6 C      191   6 C                                       1.3856487
   191   6 C      192   6 C                                       1.3878047
   188   6 C      193   6 C                                       1.3977058
   192   6 C      193   6 C                                       1.3783010
   162   7 N      194   6 C                                       1.4122384
   194   6 C      195   6 C                                       1.3952896
   195   6 C      196   6 C                                       1.3793865
   196   6 C      197   6 C                                       1.3876661
   197   6 C      198   6 C                                       1.3860436
   194   6 C      199   6 C                                       1.3927167
   198   6 C      199   6 C                                       1.3825935
   187   6 C      200   1 H                                       1.0787517
   186   6 C      201   1 H                                       1.0787974
   185   6 C      202   1 H                                       1.0786414
   184   6 C      203   1 H                                       1.0789246
   183   6 C      204   1 H                                       1.0758193
   181   6 C      205   1 H                                       1.0755858
   180   6 C      206   1 H                                       1.0789548
   179   6 C      207   1 H                                       1.0782071
   178   6 C      208   1 H                                       1.0780009
   177   6 C      209   1 H                                       1.0762861
   173   6 C      210   1 H                                       1.0862756
   173   6 C      211   1 H                                       1.0854778
   173   6 C      212   1 H                                       1.0862134
   172   6 C      213   1 H                                       1.0853795
   172   6 C      214   1 H                                       1.0848201
   172   6 C      215   1 H                                       1.0853089
   174   6 C      216   1 H                                       1.0862615
   174   6 C      217   1 H                                       1.0861190
   174   6 C      218   1 H                                       1.0855544
   169   6 C      219   1 H                                       1.0889837
   169   6 C      220   1 H                                       1.0893174
   170   6 C      221   1 H                                       1.0990551
   170   6 C      222   1 H                                       1.0992617
   175   6 C      223   1 H                                       1.1023991
   175   6 C      224   1 H                                       1.1055299
   137   6 C      225   1 H                                       1.0778511
   138   6 C      226   1 H                                       1.0792389
   133   6 C      227   1 H                                       1.0802132
   134   6 C      228   1 H                                       1.0808346
   195   6 C      229   1 H                                       1.0788957
   196   6 C      230   1 H                                       1.0789170
   197   6 C      231   1 H                                       1.0786931
   198   6 C      232   1 H                                       1.0784665
   199   6 C      233   1 H                                       1.0768933
   189   6 C      234   1 H                                       1.0759990
   190   6 C      235   1 H                                       1.0788418
   191   6 C      236   1 H                                       1.0789360
   192   6 C      237   1 H                                       1.0787282
Note: The following floating-point exceptions are signalling: IEEE_UNDERFLOW_FLAG
normal termination of xtb
   193   6 C      238   1 H                                       1.0778978
   143   6 C      239   1 H                                       1.0790057
   144   6 C      240   1 H                                       1.0780055
   125   6 C      241   1 H                                       1.0812534
   126   6 C      242   1 H                                       1.0780642
   128   6 C      243   1 H                                       1.0756175
   152   6 C      244   1 H                                       1.0753823
   150   6 C      245   1 H                                       1.0779436
   151   6 C      246   1 H                                       1.0815219
   147   6 C      247   1 H                                       1.0811739
   148   6 C      248   1 H                                       1.0797878

 * 6 distinct bonds (by element types)

   Z      Z             #   av. dist./Å        max./Å        min./Å
   1 H    6 C          98     1.0820879     1.1055299     1.0744451
   6 C    6 C         111     1.3968664     1.5161886     1.3556221
   6 C    7 N          30     1.3806011     1.4319231     1.3207445
   7 N    7 N           8     1.3245813     1.3301278     1.3200051
   6 C    8 O           8     1.3064190     1.4202859     1.2016918
   6 C   14 Si          8     1.9107905     1.9260328     1.9025285


optimized geometry written to: xtbopt.mol


           -------------------------------------------------
          | TOTAL ENERGY             -395.297809492599 Eh   |
          | GRADIENT NORM               0.000399911786 Eh/α |
          | HOMO-LUMO GAP               0.000947216355 eV   |
           -------------------------------------------------
########################################################################
[WARNING] Runtime exception occurred
-1- restart_readRestart: Number of electron missmatch in restart file.
########################################################################

------------------------------------------------------------------------
 * finished run on 2024/11/14 at 14:55:22.749     
------------------------------------------------------------------------
 total:
 * wall-time:     0 d,  0 h, 10 min, 56.075 sec
 *  cpu-time:     0 d,  0 h, 39 min,  9.470 sec
 * ratio c/w:     3.581 speedup
 SCF:
 * wall-time:     0 d,  0 h,  0 min, 13.355 sec
 *  cpu-time:     0 d,  0 h,  0 min, 55.021 sec
 * ratio c/w:     4.120 speedup
 ANC optimizer:
 * wall-time:     0 d,  0 h, 10 min, 42.658 sec
 *  cpu-time:     0 d,  0 h, 38 min, 14.327 sec
 * ratio c/w:     3.570 speedup

