      -----------------------------------------------------------      
     |                   =====================                   |     
     |                           x T B                           |     
     |                   =====================                   |     
     |                         S. Grimme                         |     
     |          Mulliken Center for Theoretical Chemistry        |     
     |                    University of Bonn                     |     
      -----------------------------------------------------------      

   * xtb version 6.6.1 (8d0f1dd) compiled by 'runner@Mac-1690902418499.local' on 2023-08-01

   xtb is free software: you can redistribute it and/or modify it under
   the terms of the GNU Lesser General Public License as published by
   the Free Software Foundation, either version 3 of the License, or
   (at your option) any later version.
   
   xtb is distributed in the hope that it will be useful,
   but WITHOUT ANY WARRANTY; without even the implied warranty of
   MERCHANTABILITY or FITNESS FOR A PARTICULAR PURPOSE.  See the
   GNU Lesser General Public License for more details.
   
   Cite this work as:
   * C. Bannwarth, E. Caldeweyher, S. Ehlert, A. Hansen, P. Pracht,
     J. Seibert, S. Spicher, S. Grimme, WIREs Comput. Mol. Sci., 2020, 11,
     e01493. DOI: 10.1002/wcms.1493
   
   for GFN2-xTB:
   * C. Bannwarth, S. Ehlert and S. Grimme., J. Chem. Theory Comput., 2019,
     15, 1652-1671. DOI: 10.1021/acs.jctc.8b01176
   for GFN1-xTB:
   * S. Grimme, C. Bannwarth, P. Shushkov, J. Chem. Theory Comput., 2017,
     13, 1989-2009. DOI: 10.1021/acs.jctc.7b00118
   for GFN0-xTB:
   * P. Pracht, E. Caldeweyher, S. Ehlert, S. Grimme, ChemRxiv, 2019, preprint.
     DOI: 10.26434/chemrxiv.8326202.v1
   for GFN-FF:
   * S. Spicher and S. Grimme, Angew. Chem. Int. Ed., 2020, 59, 15665-15673.
     DOI: 10.1002/anie.202004239
   
   for ALPB and GBSA implicit solvation:
   * S. Ehlert, M. Stahn, S. Spicher, S. Grimme, J. Chem. Theory Comput.,
     2021, 17, 4250-4261. DOI: 10.1021/acs.jctc.1c00471
   
   for DFT-D4:
   * E. Caldeweyher, C. Bannwarth and S. Grimme, J. Chem. Phys., 2017,
     147, 034112. DOI: 10.1063/1.4993215
   * E. Caldeweyher, S. Ehlert, A. Hansen, H. Neugebauer, S. Spicher,
     C. Bannwarth and S. Grimme, J. Chem. Phys., 2019, 150, 154122.
     DOI: 10.1063/1.5090222
   * E. Caldeweyher, J.-M. Mewes, S. Ehlert and S. Grimme, Phys. Chem. Chem. Phys.
     2020, 22, 8499-8512. DOI: 10.1039/D0CP00502A
   
   for sTDA-xTB:
   * S. Grimme and C. Bannwarth, J. Chem. Phys., 2016, 145, 054103.
     DOI: 10.1063/1.4959605
   
   in the mass-spec context:
   * V. Asgeirsson, C. Bauer and S. Grimme, Chem. Sci., 2017, 8, 4879.
     DOI: 10.1039/c7sc00601b
   * J. Koopman and S. Grimme, ACS Omega 2019, 4, 12, 15120-15133.
     DOI: 10.1021/acsomega.9b02011
   
   for metadynamics refer to:
   * S. Grimme, J. Chem. Theory Comput., 2019, 155, 2847-2862
     DOI: 10.1021/acs.jctc.9b00143
   
   for SPH calculations refer to:
   * S. Spicher and S. Grimme, J. Chem. Theory Comput., 2021, 17, 1701-1714
     DOI: 10.1021/acs.jctc.0c01306
   
   with help from (in alphabetical order)
   P. Atkinson, C. Bannwarth, F. Bohle, G. Brandenburg, E. Caldeweyher
   M. Checinski, S. Dohm, S. Ehlert, S. Ehrlich, I. Gerasimov, C. Hölzer
   A. Katbashev, J. Koopman, C. Lavigne, S. Lehtola, F. März, M. Müller,
   F. Musil, H. Neugebauer, J. Pisarek, C. Plett, P. Pracht, F. Pultar,
   J. Seibert, P. Shushkov, S. Spicher, M. Stahn, M. Steiner, T. Strunk,
   J. Stückrath, T. Rose, and J. Unsleber
   
 * started run on 2024/11/14 at 14:21:33.339     

           -------------------------------------------------
          |                Calculation Setup                |
           -------------------------------------------------

          program call               : xtb opt_radical_Verdazyl3.mol --gfn2 --sp --chrg 1 --uhf 1
          coordinate file            : opt_radical_Verdazyl3.mol
          omp threads                :                     8

   ID    Z sym.   atoms
    1    6 C      1-30, 33, 39, 45, 46, 48-75
    2    7 N      31, 32, 34, 35, 37, 38, 40, 41, 43
    3    8 O      36, 42, 47
    4   14 Si     44
    5    1 H      76-124

           -------------------------------------------------
          |                 G F N 2 - x T B                 |
           -------------------------------------------------

        Reference                      10.1021/acs.jctc.8b01176
      * Hamiltonian:
        H0-scaling (s, p, d)           1.850000    2.230000    2.230000
        zeta-weighting                 0.500000
      * Dispersion:
        s8                             2.700000
        a1                             0.520000
        a2                             5.000000
        s9                             5.000000
      * Repulsion:
        kExp                           1.500000    1.000000
        rExp                           1.000000
      * Coulomb:
        alpha                          2.000000
        third order                    shell-resolved
        anisotropic                    true
        a3                             3.000000
        a5                             4.000000
        cn-shift                       1.200000
        cn-exp                         4.000000
        max-rad                        5.000000

q/qsh data taken from xtbrestart
CAMM data taken from xtbrestart

          ...................................................
          :                      SETUP                      :
          :.................................................:
          :  # basis functions                 355          :
          :  # atomic orbitals                 354          :
          :  # shells                          200          :
          :  # electrons                       363          :
          :  max. iterations                   250          :
          :  Hamiltonian                  GFN2-xTB          :
          :  restarted?                       true          :
          :  GBSA solvation                  false          :
          :  PC potential                    false          :
          :  electronic temp.          300.0000000     K    :
          :  accuracy                    1.0000000          :
          :  -> integral cutoff          0.2500000E+02      :
          :  -> integral neglect         0.1000000E-07      :
          :  -> SCF convergence          0.1000000E-05 Eh   :
          :  -> wf. convergence          0.1000000E-03 e    :
          :  Broyden damping             0.4000000          :
          ...................................................

 iter      E             dE          RMSdq      gap      omega  full diag
   1   -200.8887291 -0.200889E+03  0.481E-01    0.02       0.0  T
   2   -200.6743777  0.214351E+00  0.908E-01    0.24       1.0  T
   3   -200.8296395 -0.155262E+00  0.601E-01    0.71       1.0  T
   4   -200.8897443 -0.601048E-01  0.345E-01    0.09       1.0  T
   5   -200.8907382 -0.993912E-03  0.336E-01    0.09       1.0  T
   6   -200.8983108 -0.757263E-02  0.259E-01    0.07       1.0  T
   7   -200.8881857  0.101251E-01  0.313E-01    0.09       1.0  T
   8   -200.9090209 -0.208352E-01  0.151E-01    0.03       1.0  T
   9   -200.9094424 -0.421497E-03  0.145E-01    0.04       1.0  T
  10   -200.9123647 -0.292228E-02  0.105E-01    0.03       1.0  T
  11   -200.9119800  0.384689E-03  0.111E-01    0.03       1.0  T
  12   -200.9155984 -0.361841E-02  0.115E-02    0.01       1.0  T
  13   -200.9156138 -0.153590E-04  0.816E-03    0.01       1.1  T
  14   -200.9155944  0.194124E-04  0.113E-02    0.01       1.0  T
  15   -200.9156290 -0.345700E-04  0.281E-03    0.01       3.2  T
  16   -200.9156306 -0.166300E-05  0.125E-03    0.01       7.2  T
  17   -200.9156307 -0.506369E-07  0.116E-03    0.01       7.7  T
  18   -200.9156310 -0.319881E-06  0.518E-04    0.01      17.3  T
  19   -200.9156311 -0.738322E-07  0.127E-04    0.01      70.5  T

   *** convergence criteria satisfied after 19 iterations ***

         #    Occupation            Energy/Eh            Energy/eV
      -------------------------------------------------------------
         1        2.0000           -0.8296057             -22.5747
       ...           ...                  ...                  ...
       176        2.0000           -0.4662955             -12.6885
       177        2.0000           -0.4524178             -12.3109
       178        1.9999           -0.4510169             -12.2728
       179        1.9997           -0.4498345             -12.2406
       180        1.9988           -0.4485853             -12.2066
       181        1.9328           -0.4446968             -12.1008
       182        0.5621           -0.4390478             -11.9471 (HOMO)
       183        0.5067           -0.4388608             -11.9420 (LUMO)
       184                         -0.3659127              -9.9570
       185                         -0.3593399              -9.7781
       186                         -0.3497143              -9.5162
       187                         -0.3411932              -9.2843
       ...                                ...                  ...
       354                          0.6552868              17.8313
      -------------------------------------------------------------
                  HL-Gap            0.0001870 Eh            0.0051 eV
             Fermi-level           -0.4405555 Eh          -11.9881 eV

 SCC (total)                   0 d,  0 h,  0 min,  1.218 sec
 SCC setup                      ...        0 min,  0.000 sec (  0.032%)
 Dispersion                     ...        0 min,  0.002 sec (  0.125%)
 classical contributions        ...        0 min,  0.000 sec (  0.030%)
 integral evaluation            ...        0 min,  0.008 sec (  0.623%)
 iterations                     ...        0 min,  1.151 sec ( 94.513%)
 molecular gradient             ...        0 min,  0.048 sec (  3.964%)
 printout                       ...        0 min,  0.009 sec (  0.711%)

         :::::::::::::::::::::::::::::::::::::::::::::::::::::
         ::                     SUMMARY                     ::
         :::::::::::::::::::::::::::::::::::::::::::::::::::::
         :: total energy            -197.642348787824 Eh    ::
         :: gradient norm              0.063500053806 Eh/a0 ::
         :: HOMO-LUMO gap              0.005088693514 eV    ::
         ::.................................................::
         :: SCC energy              -200.915631070433 Eh    ::
         :: -> isotropic ES            0.168042776043 Eh    ::
         :: -> anisotropic ES         -0.000059580286 Eh    ::
         :: -> anisotropic XC          0.113125434553 Eh    ::
         :: -> dispersion             -0.204992509994 Eh    ::
         :: repulsion energy           3.266216099688 Eh    ::
         :: add. restraining           0.000000000000 Eh    ::
         :: total charge               0.999998054794 e     ::
         :::::::::::::::::::::::::::::::::::::::::::::::::::::

           -------------------------------------------------
          |                Property Printout                |
           -------------------------------------------------

    * Orbital Energies and Occupations

         #    Occupation            Energy/Eh            Energy/eV
      -------------------------------------------------------------
         1        2.0000           -0.8296057             -22.5747
       ...           ...                  ...                  ...
       170        2.0000           -0.4838612             -13.1665
       171        2.0000           -0.4787921             -13.0286
       172        2.0000           -0.4763786             -12.9629
       173        2.0000           -0.4762094             -12.9583
       174        2.0000           -0.4729246             -12.8689
       175        2.0000           -0.4725524             -12.8588
       176        2.0000           -0.4662955             -12.6885
       177        2.0000           -0.4524178             -12.3109
       178        1.9999           -0.4510169             -12.2728
       179        1.9997           -0.4498345             -12.2406
       180        1.9988           -0.4485853             -12.2066
       181        1.9328           -0.4446968             -12.1008
       182        0.5621           -0.4390478             -11.9471 (HOMO)
       183        0.5067           -0.4388608             -11.9420 (LUMO)
       184                         -0.3659127              -9.9570
       185                         -0.3593399              -9.7781
       186                         -0.3497143              -9.5162
       187                         -0.3411932              -9.2843
       188                         -0.3357454              -9.1361
       189                         -0.3287300              -8.9452
       190                         -0.3194799              -8.6935
       191                         -0.3158330              -8.5943
       192                         -0.3157354              -8.5916
       193                         -0.3156044              -8.5880
       ...                                ...                  ...
       354                          0.6552868              17.8313
      -------------------------------------------------------------
                  HL-Gap            0.0001870 Eh            0.0051 eV
             Fermi-level           -0.4405555 Eh          -11.9881 eV

     #   Z          covCN         q      C6AA      α(0)
     1   6 C        2.921    -0.036    28.899     8.816
     2   6 C        2.918    -0.030    28.755     8.793
     3   6 C        2.987    -0.004    28.127     8.700
     4   6 C        2.930    -0.030    28.747     8.793
     5   6 C        2.984     0.013    27.728     8.638
     6   6 C        2.989     0.014    27.703     8.634
     7   6 C        2.979     0.009    27.820     8.652
     8   6 C        2.986     0.007    27.850     8.657
     9   6 C        2.918    -0.030    28.750     8.793
    10   6 C        2.913    -0.041    29.021     8.834
    11   6 C        3.057    -0.020    28.458     8.749
    12   6 C        3.090     0.053    26.719     8.473
    13   6 C        2.908    -0.043    29.061     8.839
    14   6 C        2.927    -0.035    28.882     8.813
    15   6 C        3.055    -0.021    28.481     8.752
    16   6 C        3.095     0.053    26.703     8.469
    17   6 C        2.979     0.008    27.839     8.655
    18   6 C        2.986     0.007    27.855     8.657
    19   6 C        2.928    -0.036    28.889     8.814
    20   6 C        2.908    -0.042    29.039     8.836
    21   6 C        2.984     0.012    27.739     8.639
    22   6 C        2.988     0.013    27.704     8.634
    23   6 C        2.913    -0.041    29.025     8.834
    24   6 C        2.918    -0.030    28.750     8.793
    25   6 C        2.987    -0.005    28.128     8.700
    26   6 C        2.918    -0.030    28.756     8.794
    27   6 C        2.921    -0.036    28.900     8.816
    28   6 C        2.930    -0.030    28.758     8.795
    29   6 C        2.876     0.168    24.376     8.094
    30   6 C        2.876     0.168    24.374     8.093
    31   7 N        1.933    -0.209    26.379     7.616
    32   7 N        2.843     0.062    20.151     6.667
    33   6 C        2.700     0.303    21.848     7.650
    34   7 N        2.851     0.060    20.195     6.674
    35   7 N        1.929    -0.205    26.274     7.600
    36   8 O        0.858    -0.412    21.919     6.277
    37   7 N        1.929    -0.205    26.270     7.600
    38   7 N        2.851     0.060    20.193     6.674
    39   6 C        2.700     0.303    21.848     7.650
    40   7 N        2.843     0.063    20.141     6.665
    41   7 N        1.933    -0.208    26.352     7.612
    42   8 O        0.858    -0.412    21.918     6.277
    43   7 N        2.795    -0.035    21.916     6.953
    44  14 Si       3.505     0.485   100.748    19.411
    45   6 C        3.698    -0.170    24.000     7.007
    46   6 C        3.714     0.090    19.212     6.263
    47   8 O        1.702    -0.321    19.359     5.940
    48   6 C        3.649    -0.211    25.057     7.191
    49   6 C        3.648    -0.210    25.041     7.189
    50   6 C        3.648    -0.210    25.041     7.189
    51   6 C        3.643     0.151    18.469     6.178
    52   6 C        2.929     0.066    26.530     8.447
    53   6 C        2.925    -0.031    28.767     8.796
    54   6 C        2.920    -0.021    28.521     8.758
    55   6 C        2.918    -0.018    28.450     8.747
    56   6 C        2.921    -0.021    28.530     8.759
    57   6 C        2.919    -0.034    28.838     8.806
    58   6 C        2.933     0.066    26.531     8.447
    59   6 C        2.919    -0.027    28.673     8.781
    60   6 C        2.922    -0.019    28.481     8.752
    61   6 C        2.919    -0.017    28.426     8.743
    62   6 C        2.920    -0.021    28.531     8.759
    63   6 C        2.924    -0.030    28.742     8.792
    64   6 C        2.929     0.065    26.534     8.448
    65   6 C        2.919    -0.034    28.844     8.807
    66   6 C        2.921    -0.021    28.535     8.760
    67   6 C        2.918    -0.017    28.444     8.746
    68   6 C        2.920    -0.020    28.513     8.756
    69   6 C        2.925    -0.030    28.753     8.794
    70   6 C        2.932     0.066    26.532     8.447
    71   6 C        2.924    -0.030    28.745     8.792
    72   6 C        2.920    -0.021    28.531     8.759
    73   6 C        2.919    -0.017    28.425     8.743
    74   6 C        2.922    -0.019    28.482     8.752
    75   6 C        2.918    -0.027    28.676     8.781
    76   1 H        0.926     0.064     2.148     2.292
    77   1 H        0.926     0.056     2.244     2.343
    78   1 H        0.926     0.061     2.190     2.314
    79   1 H        0.926     0.063     2.161     2.299
    80   1 H        0.926     0.077     2.009     2.216
    81   1 H        0.926     0.088     1.902     2.156
    82   1 H        0.926     0.062     2.181     2.309
    83   1 H        0.926     0.058     2.217     2.328
    84   1 H        0.926     0.053     2.278     2.360
    85   1 H        0.926     0.067     2.114     2.273
    86   1 H        0.925     0.033     2.549     2.496
    87   1 H        0.925     0.044     2.399     2.422
    88   1 H        0.925     0.040     2.451     2.448
    89   1 H        0.925     0.039     2.456     2.451
    90   1 H        0.925     0.038     2.471     2.458
    91   1 H        0.925     0.039     2.467     2.456
    92   1 H        0.925     0.033     2.542     2.493
    93   1 H        0.925     0.040     2.451     2.448
    94   1 H        0.925     0.044     2.401     2.423
    95   1 H        0.925     0.039     2.466     2.456
    96   1 H        0.925     0.041     2.440     2.443
    97   1 H        0.923     0.010     2.896     2.662
    98   1 H        0.923     0.008     2.919     2.672
    99   1 H        0.922     0.033     2.539     2.492
   100   1 H        0.923     0.035     2.512     2.479
   101   1 H        0.926     0.044     2.394     2.420
   102   1 H        0.926     0.044     2.393     2.419
   103   1 H        0.926     0.040     2.453     2.449
   104   1 H        0.925     0.032     2.555     2.499
   105   1 H        0.926     0.065     2.147     2.291
   106   1 H        0.926     0.056     2.245     2.343
   107   1 H        0.926     0.061     2.191     2.314
   108   1 H        0.926     0.063     2.161     2.299
   109   1 H        0.926     0.078     2.001     2.212
   110   1 H        0.926     0.088     1.903     2.157
   111   1 H        0.926     0.061     2.185     2.311
   112   1 H        0.926     0.059     2.215     2.328
   113   1 H        0.926     0.056     2.241     2.341
   114   1 H        0.926     0.069     2.099     2.265
   115   1 H        0.926     0.044     2.398     2.422
   116   1 H        0.926     0.048     2.339     2.392
   117   1 H        0.925     0.037     2.489     2.467
   118   1 H        0.926     0.054     2.269     2.356
   119   1 H        0.926     0.066     2.132     2.283
   120   1 H        0.926     0.065     2.146     2.291
   121   1 H        0.926     0.054     2.269     2.356
   122   1 H        0.925     0.037     2.489     2.467
   123   1 H        0.925     0.032     2.560     2.502
   124   1 H        0.926     0.039     2.456     2.451

 Mol. C6AA /au·bohr⁶  :     216476.189477
 Mol. C8AA /au·bohr⁸  :    5518476.682085
 Mol. α(0) /au        :        744.842238


Wiberg/Mayer (AO) data.
largest (>0.10) Wiberg bond orders for each atom

 ---------------------------------------------------------------------------
     #   Z sym  total        # sym  WBO       # sym  WBO       # sym  WBO
 ---------------------------------------------------------------------------
     1   6 C    3.978 --     2 C    1.534     6 C    1.301   117 H    0.967
     2   6 C    3.975 --     1 C    1.534     3 C    1.303   118 H    0.966
     3   6 C    3.973 --     4 C    1.432     2 C    1.303    30 C    1.052
     4   6 C    3.978 --     3 C    1.432     5 C    1.333   119 H    0.955
     5   6 C    3.986 --     4 C    1.333     6 C    1.263     7 C    1.176
     6   6 C    3.981 --     1 C    1.301     5 C    1.263    10 C    1.225
     7   6 C    3.972 --     8 C    1.293    11 C    1.259     5 C    1.176
     8   6 C    3.977 --     7 C    1.293    14 C    1.277     9 C    1.223
     9   6 C    3.974 --    10 C    1.618     8 C    1.223   103 H    0.966
    10   6 C    3.970 --     9 C    1.618     6 C    1.225   104 H    0.967
    11   6 C    3.966 --    12 C    1.282     7 C    1.259    15 C    1.173
    12   6 C    3.946 --    13 C    1.295    11 C    1.282    43 N    1.154
    13   6 C    3.973 --    14 C    1.543    12 C    1.295   101 H    0.962
    14   6 C    3.960 --    13 C    1.543     8 C    1.277   102 H    0.967
    15   6 C    3.967 --    16 C    1.284    17 C    1.257    11 C    1.173
    16   6 C    3.946 --    20 C    1.294    15 C    1.284    43 N    1.154
    17   6 C    3.972 --    18 C    1.294    15 C    1.257    21 C    1.177
    18   6 C    3.977 --    17 C    1.294    19 C    1.276    24 C    1.223
    19   6 C    3.960 --    20 C    1.543    18 C    1.276   115 H    0.967
    20   6 C    3.972 --    19 C    1.543    16 C    1.294   116 H    0.963
    21   6 C    3.986 --    28 C    1.333    22 C    1.263    17 C    1.177
    22   6 C    3.981 --    27 C    1.301    21 C    1.263    23 C    1.225
    23   6 C    3.971 --    24 C    1.618    22 C    1.225   123 H    0.967
    24   6 C    3.975 --    23 C    1.618    18 C    1.223   124 H    0.966
    25   6 C    3.973 --    28 C    1.432    26 C    1.302    29 C    1.052
    26   6 C    3.975 --    27 C    1.534    25 C    1.302   121 H    0.966
    27   6 C    3.978 --    26 C    1.534    22 C    1.301   122 H    0.967
    28   6 C    3.978 --    25 C    1.432    21 C    1.333   120 H    0.955
    29   6 C    3.959 --    31 N    1.374    35 N    1.374    25 C    1.052
    30   6 C    3.959 --    41 N    1.374    37 N    1.373     3 C    1.052
    31   7 N    2.853 --    29 C    1.374    32 N    1.182
    32   7 N    3.595 --    31 N    1.182    33 C    1.082    52 C    1.049
                            36 O    0.124
    33   6 C    3.959 --    36 O    1.654    34 N    1.087    32 N    1.082
    34   7 N    3.588 --    35 N    1.183    33 C    1.087    58 C    1.034
                            36 O    0.128
    35   7 N    2.848 --    29 C    1.374    34 N    1.183
    36   8 O    2.025 --    33 C    1.654    34 N    0.128    32 N    0.124
    37   7 N    2.849 --    30 C    1.373    38 N    1.183
    38   7 N    3.589 --    37 N    1.183    39 C    1.086    70 C    1.034
                            42 O    0.128
    39   6 C    3.959 --    42 O    1.654    38 N    1.086    40 N    1.083
    40   7 N    3.596 --    41 N    1.183    39 C    1.083    64 C    1.049
                            42 O    0.124
    41   7 N    2.854 --    30 C    1.374    40 N    1.183
    42   8 O    2.025 --    39 C    1.654    38 N    0.128    40 N    0.124
    43   7 N    3.554 --    12 C    1.154    16 C    1.154    51 C    1.002
    44  14 Si   3.612 --    50 C    0.905    49 C    0.905    48 C    0.897
                            45 C    0.828
    45   6 C    3.954 --    46 C    1.024    95 H    0.983    96 H    0.982
                            44 Si   0.828
    46   6 C    3.937 --    45 C    1.024    97 H    0.972    98 H    0.972
                            47 O    0.957
    47   8 O    2.065 --    51 C    0.985    46 C    0.957
    48   6 C    3.976 --    90 H    0.990    91 H    0.986    89 H    0.986
                            44 Si   0.897
    49   6 C    3.981 --    86 H    0.986    87 H    0.986    88 H    0.985
                            44 Si   0.905
    50   6 C    3.981 --    94 H    0.986    92 H    0.986    93 H    0.985
                            44 Si   0.905
    51   6 C    3.954 --    43 N    1.002    47 O    0.985    99 H    0.953
                           100 H    0.953
    52   6 C    3.940 --    57 C    1.356    53 C    1.343    32 N    1.049
    53   6 C    3.964 --    54 C    1.472    52 C    1.343    85 H    0.961
                            56 C    0.104
    54   6 C    3.987 --    53 C    1.472    55 C    1.414    84 H    0.969
                            57 C    0.100
    55   6 C    3.948 --    56 C    1.429    54 C    1.414    83 H    0.969
    56   6 C    3.987 --    57 C    1.454    55 C    1.429    82 H    0.968
                            53 C    0.104
    57   6 C    3.958 --    56 C    1.454    52 C    1.356    81 H    0.957
                            54 C    0.100
    58   6 C    3.939 --    59 C    1.364    63 C    1.353    34 N    1.034
    59   6 C    3.964 --    60 C    1.452    58 C    1.364    80 H    0.962
                            62 C    0.103
    60   6 C    3.986 --    59 C    1.452    61 C    1.430    79 H    0.967
                            63 C    0.105
    61   6 C    3.954 --    60 C    1.430    62 C    1.418    78 H    0.969
    62   6 C    3.987 --    63 C    1.466    61 C    1.418    77 H    0.968
                            59 C    0.103
    63   6 C    3.966 --    62 C    1.466    58 C    1.353    76 H    0.962
                            60 C    0.105
    64   6 C    3.939 --    65 C    1.355    69 C    1.342    40 N    1.049
    65   6 C    3.958 --    66 C    1.454    64 C    1.355   110 H    0.957
                            68 C    0.100
    66   6 C    3.987 --    65 C    1.454    67 C    1.429   111 H    0.968
                            69 C    0.104
    67   6 C    3.947 --    66 C    1.429    68 C    1.414   112 H    0.969
    68   6 C    3.986 --    69 C    1.472    67 C    1.414   113 H    0.968
                            65 C    0.100
    69   6 C    3.964 --    68 C    1.472    64 C    1.342   114 H    0.961
                            66 C    0.104
    70   6 C    3.939 --    75 C    1.364    71 C    1.352    38 N    1.034
    71   6 C    3.966 --    72 C    1.467    70 C    1.352   105 H    0.962
                            74 C    0.105
    72   6 C    3.987 --    71 C    1.467    73 C    1.418   106 H    0.968
                            75 C    0.102
    73   6 C    3.954 --    74 C    1.430    72 C    1.418   107 H    0.969
    74   6 C    3.986 --    75 C    1.452    73 C    1.430   108 H    0.967
                            71 C    0.105
    75   6 C    3.964 --    74 C    1.452    70 C    1.364   109 H    0.962
                            72 C    0.102
    76   1 H    0.996 --    63 C    0.962
    77   1 H    0.996 --    62 C    0.968
    78   1 H    0.996 --    61 C    0.969
    79   1 H    0.995 --    60 C    0.967
    80   1 H    0.994 --    59 C    0.962
    81   1 H    0.992 --    57 C    0.957
    82   1 H    0.995 --    56 C    0.968
    83   1 H    0.996 --    55 C    0.969
    84   1 H    0.996 --    54 C    0.969
    85   1 H    0.995 --    53 C    0.961
    86   1 H    0.999 --    49 C    0.986
    87   1 H    0.998 --    49 C    0.986
    88   1 H    0.998 --    49 C    0.985
    89   1 H    0.998 --    48 C    0.986
    90   1 H    0.998 --    48 C    0.990
    91   1 H    0.998 --    48 C    0.986
    92   1 H    0.999 --    50 C    0.986
    93   1 H    0.998 --    50 C    0.985
    94   1 H    0.998 --    50 C    0.986
    95   1 H    0.998 --    45 C    0.983
    96   1 H    0.998 --    45 C    0.982
    97   1 H    1.000 --    46 C    0.972
    98   1 H    1.000 --    46 C    0.972
    99   1 H    0.997 --    51 C    0.953
   100   1 H    0.998 --    51 C    0.953
   101   1 H    0.997 --    13 C    0.962
Note: The following floating-point exceptions are signalling: IEEE_UNDERFLOW_FLAG
normal termination of xtb
   102   1 H    0.997 --    14 C    0.967
   103   1 H    0.997 --     9 C    0.966
   104   1 H    0.997 --    10 C    0.967
   105   1 H    0.995 --    71 C    0.962
   106   1 H    0.996 --    72 C    0.968
   107   1 H    0.996 --    73 C    0.969
   108   1 H    0.995 --    74 C    0.967
   109   1 H    0.994 --    75 C    0.962
   110   1 H    0.992 --    65 C    0.957
   111   1 H    0.995 --    66 C    0.968
   112   1 H    0.996 --    67 C    0.969
   113   1 H    0.996 --    68 C    0.968
   114   1 H    0.995 --    69 C    0.961
   115   1 H    0.997 --    19 C    0.967
   116   1 H    0.996 --    20 C    0.963
   117   1 H    0.998 --     1 C    0.967
   118   1 H    0.996 --     2 C    0.966
   119   1 H    0.995 --     4 C    0.955
   120   1 H    0.995 --    28 C    0.955
   121   1 H    0.996 --    26 C    0.966
   122   1 H    0.998 --    27 C    0.967
   123   1 H    0.997 --    23 C    0.967
   124   1 H    0.997 --    24 C    0.966
 ---------------------------------------------------------------------------

Topologies differ in bond orders
Writing corrected topology to xtbtopo.mol

molecular dipole:
                 x           y           z       tot (Debye)
 q only:        0.936       1.456      -2.492
   full:        0.963       1.608      -2.699       8.353
molecular quadrupole (traceless):
                xx          xy          yy          xz          yz          zz
 q only:       57.588      41.842      20.554      42.756       2.089     -78.143
  q+dip:       60.855      40.995      32.521      37.454       0.867     -93.376
   full:       50.909      40.860      22.671      35.323      -3.697     -73.580


           -------------------------------------------------
          | TOTAL ENERGY             -197.642348787824 Eh   |
          | GRADIENT NORM               0.063500053806 Eh/α |
          | HOMO-LUMO GAP               0.005088693514 eV   |
           -------------------------------------------------
########################################################################
[WARNING] Runtime exception occurred
-2- restart_readRestart: Multiplicity missmatch in restart file.
-1- restart_readRestart: Number of electron missmatch in restart file.
########################################################################

------------------------------------------------------------------------
 * finished run on 2024/11/14 at 14:21:34.574     
------------------------------------------------------------------------
 total:
 * wall-time:     0 d,  0 h,  0 min,  1.234 sec
 *  cpu-time:     0 d,  0 h,  0 min,  3.869 sec
 * ratio c/w:     3.134 speedup
 SCF:
 * wall-time:     0 d,  0 h,  0 min,  1.218 sec
 *  cpu-time:     0 d,  0 h,  0 min,  3.832 sec
 * ratio c/w:     3.146 speedup

