      -----------------------------------------------------------      
     |                   =====================                   |     
     |                           x T B                           |     
     |                   =====================                   |     
     |                         S. Grimme                         |     
     |          Mulliken Center for Theoretical Chemistry        |     
     |                    University of Bonn                     |     
      -----------------------------------------------------------      

   * xtb version 6.6.1 (8d0f1dd) compiled by 'runner@Mac-1690902418499.local' on 2023-08-01

   xtb is free software: you can redistribute it and/or modify it under
   the terms of the GNU Lesser General Public License as published by
   the Free Software Foundation, either version 3 of the License, or
   (at your option) any later version.
   
   xtb is distributed in the hope that it will be useful,
   but WITHOUT ANY WARRANTY; without even the implied warranty of
   MERCHANTABILITY or FITNESS FOR A PARTICULAR PURPOSE.  See the
   GNU Lesser General Public License for more details.
   
   Cite this work as:
   * C. Bannwarth, E. Caldeweyher, S. Ehlert, A. Hansen, P. Pracht,
     J. Seibert, S. Spicher, S. Grimme, WIREs Comput. Mol. Sci., 2020, 11,
     e01493. DOI: 10.1002/wcms.1493
   
   for GFN2-xTB:
   * C. Bannwarth, S. Ehlert and S. Grimme., J. Chem. Theory Comput., 2019,
     15, 1652-1671. DOI: 10.1021/acs.jctc.8b01176
   for GFN1-xTB:
   * S. Grimme, C. Bannwarth, P. Shushkov, J. Chem. Theory Comput., 2017,
     13, 1989-2009. DOI: 10.1021/acs.jctc.7b00118
   for GFN0-xTB:
   * P. Pracht, E. Caldeweyher, S. Ehlert, S. Grimme, ChemRxiv, 2019, preprint.
     DOI: 10.26434/chemrxiv.8326202.v1
   for GFN-FF:
   * S. Spicher and S. Grimme, Angew. Chem. Int. Ed., 2020, 59, 15665-15673.
     DOI: 10.1002/anie.202004239
   
   for ALPB and GBSA implicit solvation:
   * S. Ehlert, M. Stahn, S. Spicher, S. Grimme, J. Chem. Theory Comput.,
     2021, 17, 4250-4261. DOI: 10.1021/acs.jctc.1c00471
   
   for DFT-D4:
   * E. Caldeweyher, C. Bannwarth and S. Grimme, J. Chem. Phys., 2017,
     147, 034112. DOI: 10.1063/1.4993215
   * E. Caldeweyher, S. Ehlert, A. Hansen, H. Neugebauer, S. Spicher,
     C. Bannwarth and S. Grimme, J. Chem. Phys., 2019, 150, 154122.
     DOI: 10.1063/1.5090222
   * E. Caldeweyher, J.-M. Mewes, S. Ehlert and S. Grimme, Phys. Chem. Chem. Phys.
     2020, 22, 8499-8512. DOI: 10.1039/D0CP00502A
   
   for sTDA-xTB:
   * S. Grimme and C. Bannwarth, J. Chem. Phys., 2016, 145, 054103.
     DOI: 10.1063/1.4959605
   
   in the mass-spec context:
   * V. Asgeirsson, C. Bauer and S. Grimme, Chem. Sci., 2017, 8, 4879.
     DOI: 10.1039/c7sc00601b
   * J. Koopman and S. Grimme, ACS Omega 2019, 4, 12, 15120-15133.
     DOI: 10.1021/acsomega.9b02011
   
   for metadynamics refer to:
   * S. Grimme, J. Chem. Theory Comput., 2019, 155, 2847-2862
     DOI: 10.1021/acs.jctc.9b00143
   
   for SPH calculations refer to:
   * S. Spicher and S. Grimme, J. Chem. Theory Comput., 2021, 17, 1701-1714
     DOI: 10.1021/acs.jctc.0c01306
   
   with help from (in alphabetical order)
   P. Atkinson, C. Bannwarth, F. Bohle, G. Brandenburg, E. Caldeweyher
   M. Checinski, S. Dohm, S. Ehlert, S. Ehrlich, I. Gerasimov, C. Hölzer
   A. Katbashev, J. Koopman, C. Lavigne, S. Lehtola, F. März, M. Müller,
   F. Musil, H. Neugebauer, J. Pisarek, C. Plett, P. Pracht, F. Pultar,
   J. Seibert, P. Shushkov, S. Spicher, M. Stahn, M. Steiner, T. Strunk,
   J. Stückrath, T. Rose, and J. Unsleber
   
 * started run on 2024/11/14 at 14:21:32.259     

           -------------------------------------------------
          |                Calculation Setup                |
           -------------------------------------------------

          program call               : xtb opt_cation_Verdazyl3.mol --gfn2 --sp --chrg 0 --uhf 2
          coordinate file            : opt_cation_Verdazyl3.mol
          omp threads                :                     8

   ID    Z sym.   atoms
    1    6 C      1-30, 33, 39, 45, 46, 48-75
    2    7 N      31, 32, 34, 35, 37, 38, 40, 41, 43
    3    8 O      36, 42, 47
    4   14 Si     44
    5    1 H      76-124
########################################################################
[WARNING] Please study the warnings concerning your input carefully
-1- prog_main: Charge in sdf/mol input was overwritten
########################################################################

           -------------------------------------------------
          |                 G F N 2 - x T B                 |
           -------------------------------------------------

        Reference                      10.1021/acs.jctc.8b01176
      * Hamiltonian:
        H0-scaling (s, p, d)           1.850000    2.230000    2.230000
        zeta-weighting                 0.500000
      * Dispersion:
        s8                             2.700000
        a1                             0.520000
        a2                             5.000000
        s9                             5.000000
      * Repulsion:
        kExp                           1.500000    1.000000
        rExp                           1.000000
      * Coulomb:
        alpha                          2.000000
        third order                    shell-resolved
        anisotropic                    true
        a3                             3.000000
        a5                             4.000000
        cn-shift                       1.200000
        cn-exp                         4.000000
        max-rad                        5.000000

q/qsh data taken from xtbrestart
CAMM data taken from xtbrestart

          ...................................................
          :                      SETUP                      :
          :.................................................:
          :  # basis functions                 355          :
          :  # atomic orbitals                 354          :
          :  # shells                          200          :
          :  # electrons                       364          :
          :  max. iterations                   250          :
          :  Hamiltonian                  GFN2-xTB          :
          :  restarted?                       true          :
          :  GBSA solvation                  false          :
          :  PC potential                    false          :
          :  electronic temp.          300.0000000     K    :
          :  accuracy                    1.0000000          :
          :  -> integral cutoff          0.2500000E+02      :
          :  -> integral neglect         0.1000000E-07      :
          :  -> SCF convergence          0.1000000E-05 Eh   :
          :  -> wf. convergence          0.1000000E-03 e    :
          :  Broyden damping             0.4000000          :
          ...................................................

 iter      E             dE          RMSdq      gap      omega  full diag
   1   -201.2775753 -0.201278E+03  0.385E-01    1.85       0.0  T
   2   -201.2956431 -0.180678E-01  0.266E-01    1.47       1.0  T
   3   -201.3004677 -0.482468E-02  0.138E-01    1.48       1.0  T
   4   -201.3005512 -0.834976E-04  0.115E-01    1.45       1.0  T
   5   -201.3010586 -0.507375E-03  0.461E-02    1.44       1.0  T
   6   -201.3010745 -0.158493E-04  0.236E-02    1.43       1.0  T
   7   -201.3011184 -0.439691E-04  0.122E-02    1.44       1.0  T
   8   -201.3011171  0.132615E-05  0.802E-03    1.44       1.1  T
   9   -201.3011210 -0.383989E-05  0.325E-03    1.44       2.8  T
  10   -201.3011218 -0.885265E-06  0.140E-03    1.44       6.4  T
  11   -201.3011219 -0.898074E-07  0.655E-04    1.44      13.7  T
  12   -201.3011219 -0.815010E-08  0.280E-04    1.44      32.1  T

   *** convergence criteria satisfied after 12 iterations ***

         #    Occupation            Energy/Eh            Energy/eV
      -------------------------------------------------------------
         1        2.0000           -0.7451118             -20.2755
       ...           ...                  ...                  ...
       177        2.0000           -0.3764662             -10.2442
       178        2.0000           -0.3658130              -9.9543
       179        2.0000           -0.3651189              -9.9354
       180        2.0000           -0.3618901              -9.8475
       181        2.0000           -0.3578787              -9.7384
       182        1.0000           -0.3235077              -8.8031
       183        1.0000           -0.3226891              -8.7808 (HOMO)
       184                         -0.2698197              -7.3422 (LUMO)
       185                         -0.2660003              -7.2382
       186                         -0.2586511              -7.0383
       187                         -0.2470498              -6.7226
       188                         -0.2415397              -6.5726
       ...                                ...                  ...
       354                          0.7426780              20.2093
      -------------------------------------------------------------
                  HL-Gap            0.0528694 Eh            1.4387 eV
             Fermi-level           -0.3184800 Eh           -8.6663 eV

 transition dipole moment (au) for excitation:         182         183
     X       Y       Z   
   0.5541  -0.8438   0.4250  total (au/Debye):    1.095   2.784
 dE (eV)             :    0.022
 oscillator strength :  0.92574E-03

 SCC (total)                   0 d,  0 h,  0 min,  1.033 sec
 SCC setup                      ...        0 min,  0.000 sec (  0.038%)
 Dispersion                     ...        0 min,  0.002 sec (  0.148%)
 classical contributions        ...        0 min,  0.000 sec (  0.035%)
 integral evaluation            ...        0 min,  0.007 sec (  0.720%)
 iterations                     ...        0 min,  0.938 sec ( 90.818%)
 molecular gradient             ...        0 min,  0.046 sec (  4.456%)
 printout                       ...        0 min,  0.039 sec (  3.783%)

         :::::::::::::::::::::::::::::::::::::::::::::::::::::
         ::                     SUMMARY                     ::
         :::::::::::::::::::::::::::::::::::::::::::::::::::::
         :: total energy            -198.023515040487 Eh    ::
         :: gradient norm              0.071716087485 Eh/a0 ::
         :: HOMO-LUMO gap              1.438650039797 eV    ::
         ::.................................................::
         :: SCC energy              -201.301121934403 Eh    ::
         :: -> isotropic ES            0.142666806453 Eh    ::
         :: -> anisotropic ES          0.012971750774 Eh    ::
         :: -> anisotropic XC          0.110452455037 Eh    ::
         :: -> dispersion             -0.206728736482 Eh    ::
         :: repulsion energy           3.270597149077 Eh    ::
         :: add. restraining           0.000000000000 Eh    ::
         :: total charge               0.000029832830 e     ::
         :::::::::::::::::::::::::::::::::::::::::::::::::::::

           -------------------------------------------------
          |                Property Printout                |
           -------------------------------------------------

    * Orbital Energies and Occupations

         #    Occupation            Energy/Eh            Energy/eV
      -------------------------------------------------------------
         1        2.0000           -0.7451118             -20.2755
       ...           ...                  ...                  ...
       171        2.0000           -0.4034544             -10.9786
       172        2.0000           -0.4004523             -10.8969
       173        2.0000           -0.3961379             -10.7795
       174        2.0000           -0.3891284             -10.5887
       175        2.0000           -0.3862806             -10.5112
       176        2.0000           -0.3802316             -10.3466
       177        2.0000           -0.3764662             -10.2442
       178        2.0000           -0.3658130              -9.9543
       179        2.0000           -0.3651189              -9.9354
       180        2.0000           -0.3618901              -9.8475
       181        2.0000           -0.3578787              -9.7384
       182        1.0000           -0.3235077              -8.8031
       183        1.0000           -0.3226891              -8.7808 (HOMO)
       184                         -0.2698197              -7.3422 (LUMO)
       185                         -0.2660003              -7.2382
       186                         -0.2586511              -7.0383
       187                         -0.2470498              -6.7226
       188                         -0.2415397              -6.5726
       189                         -0.2366403              -6.4393
       190                         -0.2278380              -6.1998
       191                         -0.2269882              -6.1767
       192                         -0.2267196              -6.1694
       193                         -0.2253719              -6.1327
       194                         -0.2236994              -6.0872
       ...                                ...                  ...
       354                          0.7426780              20.2093
      -------------------------------------------------------------
                  HL-Gap            0.0528694 Eh            1.4387 eV
             Fermi-level           -0.3184800 Eh           -8.6663 eV

     #   Z          covCN         q      C6AA      α(0)
     1   6 C        2.920    -0.036    28.896     8.815
     2   6 C        2.917    -0.030    28.752     8.793
     3   6 C        2.985    -0.003    28.087     8.693
     4   6 C        2.930    -0.033    28.811     8.803
     5   6 C        2.983     0.012    27.747     8.641
     6   6 C        2.988     0.013    27.709     8.635
     7   6 C        2.979     0.009    27.809     8.650
     8   6 C        2.986     0.005    27.910     8.666
     9   6 C        2.918    -0.033    28.817     8.803
    10   6 C        2.913    -0.038    28.955     8.824
    11   6 C        3.057    -0.020    28.460     8.749
    12   6 C        3.093     0.048    26.822     8.488
    13   6 C        2.907    -0.049    29.210     8.862
    14   6 C        2.926    -0.038    28.936     8.822
    15   6 C        3.056    -0.021    28.482     8.752
    16   6 C        3.097     0.048    26.799     8.484
    17   6 C        2.979     0.008    27.826     8.653
    18   6 C        2.986     0.005    27.910     8.666
    19   6 C        2.927    -0.038    28.938     8.822
    20   6 C        2.907    -0.048    29.185     8.858
    21   6 C        2.983     0.011    27.753     8.642
    22   6 C        2.988     0.014    27.699     8.633
    23   6 C        2.913    -0.038    28.952     8.823
    24   6 C        2.918    -0.033    28.812     8.802
    25   6 C        2.985    -0.003    28.089     8.694
    26   6 C        2.917    -0.030    28.755     8.793
    27   6 C        2.920    -0.036    28.898     8.815
    28   6 C        2.930    -0.033    28.819     8.804
    29   6 C        2.883     0.160    24.538     8.121
    30   6 C        2.883     0.160    24.544     8.122
    31   7 N        1.938    -0.247    27.286     7.746
    32   7 N        2.846     0.041    20.522     6.728
    33   6 C        2.702     0.300    21.907     7.661
    34   7 N        2.853     0.038    20.582     6.738
    35   7 N        1.932    -0.243    27.186     7.731
    36   8 O        0.858    -0.431    22.318     6.334
    37   7 N        1.932    -0.244    27.197     7.733
    38   7 N        2.853     0.037    20.588     6.739
    39   6 C        2.702     0.300    21.912     7.662
    40   7 N        2.846     0.041    20.521     6.728
    41   7 N        1.938    -0.247    27.268     7.743
    42   8 O        0.858    -0.431    22.318     6.334
    43   7 N        2.796    -0.046    22.127     6.986
    44  14 Si       3.505     0.483   100.815    19.419
    45   6 C        3.697    -0.171    24.025     7.011
    46   6 C        3.712     0.090    19.205     6.262
    47   8 O        1.702    -0.321    19.363     5.941
    48   6 C        3.649    -0.210    25.034     7.188
    49   6 C        3.649    -0.208    25.005     7.184
    50   6 C        3.648    -0.208    25.004     7.184
    51   6 C        3.642     0.156    18.399     6.167
    52   6 C        2.933     0.063    26.578     8.455
    53   6 C        2.924    -0.036    28.893     8.815
    54   6 C        2.919    -0.026    28.663     8.779
    55   6 C        2.919    -0.032    28.799     8.800
    56   6 C        2.921    -0.028    28.694     8.784
    57   6 C        2.917    -0.041    29.008     8.832
    58   6 C        2.936     0.064    26.572     8.454
    59   6 C        2.917    -0.035    28.875     8.812
    60   6 C        2.921    -0.026    28.663     8.780
    61   6 C        2.919    -0.031    28.770     8.796
    62   6 C        2.920    -0.027    28.678     8.782
    63   6 C        2.923    -0.035    28.871     8.811
    64   6 C        2.933     0.063    26.586     8.456
    65   6 C        2.917    -0.041    29.013     8.833
    66   6 C        2.921    -0.028    28.701     8.785
    67   6 C        2.919    -0.032    28.798     8.800
    68   6 C        2.919    -0.026    28.653     8.778
    69   6 C        2.924    -0.035    28.878     8.813
    70   6 C        2.936     0.064    26.568     8.453
    71   6 C        2.923    -0.035    28.867     8.811
    72   6 C        2.920    -0.027    28.679     8.782
    73   6 C        2.919    -0.031    28.772     8.796
    74   6 C        2.921    -0.026    28.663     8.780
    75   6 C        2.917    -0.035    28.869     8.811
    76   1 H        0.926     0.059     2.211     2.325
    77   1 H        0.926     0.040     2.446     2.446
    78   1 H        0.926     0.038     2.476     2.461
    79   1 H        0.926     0.042     2.428     2.437
    80   1 H        0.926     0.063     2.163     2.300
    81   1 H        0.926     0.072     2.065     2.247
    82   1 H        0.926     0.040     2.447     2.446
    83   1 H        0.926     0.035     2.512     2.479
    84   1 H        0.926     0.036     2.502     2.474
    85   1 H        0.926     0.057     2.231     2.336
    86   1 H        0.925     0.032     2.557     2.501
    87   1 H        0.925     0.038     2.471     2.458
    88   1 H        0.925     0.039     2.467     2.456
    89   1 H        0.925     0.038     2.481     2.463
    90   1 H        0.925     0.033     2.551     2.498
    91   1 H        0.925     0.037     2.483     2.464
    92   1 H        0.925     0.032     2.551     2.498
    93   1 H        0.925     0.039     2.457     2.451
    94   1 H        0.925     0.038     2.474     2.460
    95   1 H        0.925     0.040     2.447     2.446
    96   1 H        0.925     0.040     2.443     2.444
    97   1 H        0.923     0.007     2.932     2.678
    98   1 H        0.923     0.006     2.951     2.687
    99   1 H        0.922     0.026     2.648     2.545
   100   1 H        0.923     0.028     2.610     2.526
   101   1 H        0.926     0.029     2.607     2.525
   102   1 H        0.926     0.034     2.533     2.489
   103   1 H        0.926     0.030     2.586     2.515
   104   1 H        0.926     0.026     2.645     2.543
   105   1 H        0.926     0.058     2.219     2.330
   106   1 H        0.926     0.040     2.448     2.447
   107   1 H        0.926     0.038     2.477     2.461
   108   1 H        0.926     0.042     2.428     2.437
   109   1 H        0.926     0.063     2.169     2.303
   110   1 H        0.926     0.071     2.073     2.251
   111   1 H        0.926     0.040     2.454     2.450
   112   1 H        0.926     0.035     2.514     2.480
   113   1 H        0.926     0.039     2.463     2.454
   114   1 H        0.926     0.058     2.222     2.331
   115   1 H        0.926     0.034     2.534     2.489
   116   1 H        0.926     0.033     2.542     2.493
   117   1 H        0.925     0.030     2.588     2.516
   118   1 H        0.926     0.050     2.322     2.383
   119   1 H        0.926     0.063     2.164     2.300
   120   1 H        0.926     0.062     2.179     2.308
   121   1 H        0.926     0.050     2.324     2.384
   122   1 H        0.925     0.030     2.584     2.514
   123   1 H        0.926     0.026     2.641     2.541
   124   1 H        0.926     0.030     2.585     2.514

 Mol. C6AA /au·bohr⁶  :     219400.176117
 Mol. C8AA /au·bohr⁸  :    5577696.281462
 Mol. α(0) /au        :        749.728353


Wiberg/Mayer (AO) data.
largest (>0.10) Wiberg bond orders for each atom

 ---------------------------------------------------------------------------
     #   Z sym  total        # sym  WBO       # sym  WBO       # sym  WBO
 ---------------------------------------------------------------------------
     1   6 C    3.981 --     2 C    1.536     6 C    1.300   117 H    0.968
     2   6 C    3.977 --     1 C    1.536     3 C    1.303   118 H    0.967
     3   6 C    3.979 --     4 C    1.436     2 C    1.303    30 C    1.057
     4   6 C    3.980 --     3 C    1.436     5 C    1.332   119 H    0.956
     5   6 C    3.987 --     4 C    1.332     6 C    1.264     7 C    1.177
     6   6 C    3.980 --     1 C    1.300     5 C    1.264    10 C    1.226
     7   6 C    3.978 --     8 C    1.297    11 C    1.256     5 C    1.177
     8   6 C    3.984 --     7 C    1.297    14 C    1.278     9 C    1.222
     9   6 C    3.977 --    10 C    1.620     8 C    1.222   103 H    0.967
    10   6 C    3.978 --     9 C    1.620     6 C    1.226   104 H    0.968
    11   6 C    3.974 --    12 C    1.286     7 C    1.256    15 C    1.176
    12   6 C    3.947 --    13 C    1.297    11 C    1.286    43 N    1.146
    13   6 C    3.978 --    14 C    1.541    12 C    1.297   101 H    0.963
    14   6 C    3.961 --    13 C    1.541     8 C    1.278   102 H    0.968
    15   6 C    3.974 --    16 C    1.287    17 C    1.255    11 C    1.176
    16   6 C    3.947 --    20 C    1.296    15 C    1.287    43 N    1.147
    17   6 C    3.978 --    18 C    1.297    15 C    1.255    21 C    1.177
    18   6 C    3.984 --    17 C    1.297    19 C    1.278    24 C    1.222
    19   6 C    3.961 --    20 C    1.542    18 C    1.278   115 H    0.968
    20   6 C    3.978 --    19 C    1.542    16 C    1.296   116 H    0.965
    21   6 C    3.987 --    28 C    1.332    22 C    1.264    17 C    1.177
    22   6 C    3.980 --    27 C    1.301    21 C    1.264    23 C    1.226
    23   6 C    3.978 --    24 C    1.620    22 C    1.226   123 H    0.968
    24   6 C    3.977 --    23 C    1.620    18 C    1.222   124 H    0.967
    25   6 C    3.978 --    28 C    1.436    26 C    1.304    29 C    1.056
    26   6 C    3.977 --    27 C    1.535    25 C    1.304   121 H    0.967
    27   6 C    3.981 --    26 C    1.535    22 C    1.301   122 H    0.968
    28   6 C    3.980 --    25 C    1.436    21 C    1.332   120 H    0.956
    29   6 C    3.965 --    35 N    1.371    31 N    1.369    25 C    1.056
    30   6 C    3.965 --    37 N    1.371    41 N    1.368     3 C    1.057
    31   7 N    2.915 --    29 C    1.369    32 N    1.182    35 N    0.122
    32   7 N    3.630 --    31 N    1.182    33 C    1.080    52 C    1.041
                            36 O    0.122
    33   6 C    3.959 --    36 O    1.649    34 N    1.083    32 N    1.080
    34   7 N    3.622 --    35 N    1.181    33 C    1.083    58 C    1.028
                            36 O    0.126
    35   7 N    2.910 --    29 C    1.371    34 N    1.181    31 N    0.122
    36   8 O    2.012 --    33 C    1.649    34 N    0.126    32 N    0.122
    37   7 N    2.909 --    30 C    1.371    38 N    1.181    41 N    0.122
    38   7 N    3.621 --    37 N    1.181    39 C    1.083    70 C    1.028
                            42 O    0.126
    39   6 C    3.959 --    42 O    1.649    38 N    1.083    40 N    1.079
    40   7 N    3.630 --    41 N    1.184    39 C    1.079    64 C    1.040
                            42 O    0.122
    41   7 N    2.916 --    30 C    1.368    40 N    1.184    37 N    0.122
    42   8 O    2.012 --    39 C    1.649    38 N    0.126    40 N    0.122
    43   7 N    3.551 --    16 C    1.147    12 C    1.146    51 C    1.003
    44  14 Si   3.619 --    50 C    0.903    49 C    0.902    48 C    0.897
                            45 C    0.842
    45   6 C    3.967 --    46 C    1.025    96 H    0.982    95 H    0.982
                            44 Si   0.842
    46   6 C    3.943 --    45 C    1.025    97 H    0.972    98 H    0.972
                            47 O    0.960
    47   8 O    2.068 --    51 C    0.985    46 C    0.960
    48   6 C    3.980 --    90 H    0.991    91 H    0.987    89 H    0.987
                            44 Si   0.897
    49   6 C    3.981 --    87 H    0.987    86 H    0.987    88 H    0.986
                            44 Si   0.902
    50   6 C    3.981 --    94 H    0.987    92 H    0.987    93 H    0.986
                            44 Si   0.903
    51   6 C    3.956 --    43 N    1.003    47 O    0.985    99 H    0.955
                           100 H    0.954
    52   6 C    3.951 --    57 C    1.369    53 C    1.356    32 N    1.041
    53   6 C    3.984 --    54 C    1.466    52 C    1.356    85 H    0.963
                            56 C    0.105
    54   6 C    3.991 --    53 C    1.466    55 C    1.421    84 H    0.970
                            57 C    0.104
    55   6 C    3.974 --    56 C    1.434    54 C    1.421    83 H    0.971
    56   6 C    3.990 --    57 C    1.450    55 C    1.434    82 H    0.970
                            53 C    0.105
    57   6 C    3.982 --    56 C    1.450    52 C    1.369    81 H    0.961
                            54 C    0.104
    58   6 C    3.952 --    59 C    1.377    63 C    1.365    34 N    1.028
    59   6 C    3.984 --    60 C    1.449    58 C    1.377    80 H    0.965
                            62 C    0.106
    60   6 C    3.990 --    59 C    1.449    61 C    1.435    79 H    0.970
                            63 C    0.107
    61   6 C    3.976 --    60 C    1.435    62 C    1.424    78 H    0.971
    62   6 C    3.991 --    63 C    1.461    61 C    1.424    77 H    0.970
                            59 C    0.106
    63   6 C    3.984 --    62 C    1.461    58 C    1.365    76 H    0.964
                            60 C    0.107
    64   6 C    3.950 --    65 C    1.369    69 C    1.356    40 N    1.040
    65   6 C    3.982 --    66 C    1.450    64 C    1.369   110 H    0.961
                            68 C    0.104
    66   6 C    3.990 --    65 C    1.450    67 C    1.434   111 H    0.970
                            69 C    0.105
    67   6 C    3.974 --    66 C    1.434    68 C    1.421   112 H    0.971
    68   6 C    3.991 --    69 C    1.466    67 C    1.421   113 H    0.970
                            65 C    0.104
    69   6 C    3.984 --    68 C    1.466    64 C    1.356   114 H    0.963
                            66 C    0.105
    70   6 C    3.952 --    75 C    1.377    71 C    1.366    38 N    1.028
    71   6 C    3.985 --    72 C    1.461    70 C    1.366   105 H    0.964
                            74 C    0.107
    72   6 C    3.991 --    71 C    1.461    73 C    1.425   106 H    0.970
                            75 C    0.106
    73   6 C    3.977 --    74 C    1.435    72 C    1.425   107 H    0.971
    74   6 C    3.990 --    75 C    1.449    73 C    1.435   108 H    0.970
                            71 C    0.107
    75   6 C    3.984 --    74 C    1.449    70 C    1.377   109 H    0.965
                            72 C    0.106
    76   1 H    0.996 --    63 C    0.964
    77   1 H    0.998 --    62 C    0.970
    78   1 H    0.998 --    61 C    0.971
    79   1 H    0.998 --    60 C    0.970
    80   1 H    0.996 --    59 C    0.965
    81   1 H    0.995 --    57 C    0.961
    82   1 H    0.998 --    56 C    0.970
    83   1 H    0.999 --    55 C    0.971
    84   1 H    0.998 --    54 C    0.970
    85   1 H    0.997 --    53 C    0.963
    86   1 H    0.999 --    49 C    0.987
    87   1 H    0.998 --    49 C    0.987
    88   1 H    0.999 --    49 C    0.986
    89   1 H    0.999 --    48 C    0.987
    90   1 H    0.999 --    48 C    0.991
    91   1 H    0.999 --    48 C    0.987
    92   1 H    0.999 --    50 C    0.987
    93   1 H    0.998 --    50 C    0.986
    94   1 H    0.998 --    50 C    0.987
    95   1 H    0.998 --    45 C    0.982
    96   1 H    0.998 --    45 C    0.982
    97   1 H    1.000 --    46 C    0.972
    98   1 H    1.000 --    46 C    0.972
    99   1 H    0.998 --    51 C    0.955
   100   1 H    0.998 --    51 C    0.954
Note: The following floating-point exceptions are signalling: IEEE_UNDERFLOW_FLAG
normal termination of xtb
   101   1 H    0.998 --    13 C    0.963
   102   1 H    0.998 --    14 C    0.968
   103   1 H    0.998 --     9 C    0.967
   104   1 H    0.998 --    10 C    0.968
   105   1 H    0.997 --    71 C    0.964
   106   1 H    0.998 --    72 C    0.970
   107   1 H    0.998 --    73 C    0.971
   108   1 H    0.998 --    74 C    0.970
   109   1 H    0.996 --    75 C    0.965
   110   1 H    0.995 --    65 C    0.961
   111   1 H    0.998 --    66 C    0.970
   112   1 H    0.999 --    67 C    0.971
   113   1 H    0.998 --    68 C    0.970
   114   1 H    0.997 --    69 C    0.963
   115   1 H    0.998 --    19 C    0.968
   116   1 H    0.997 --    20 C    0.965
   117   1 H    0.998 --     1 C    0.968
   118   1 H    0.997 --     2 C    0.967
   119   1 H    0.996 --     4 C    0.956
   120   1 H    0.996 --    28 C    0.956
   121   1 H    0.997 --    26 C    0.967
   122   1 H    0.998 --    27 C    0.968
   123   1 H    0.998 --    23 C    0.968
   124   1 H    0.998 --    24 C    0.967
 ---------------------------------------------------------------------------

Topologies differ in bond orders
Writing corrected topology to xtbtopo.mol

molecular dipole:
                 x           y           z       tot (Debye)
 q only:        1.834       1.133       0.504
   full:        1.897       1.313       0.315       5.918
molecular quadrupole (traceless):
                xx          xy          yy          xz          yz          zz
 q only:       35.432      49.251      -9.815       9.895      10.954     -25.616
  q+dip:       40.724      49.805       2.582       4.816      10.889     -43.306
   full:       31.077      49.268      -6.417       3.484       6.543     -24.659


           -------------------------------------------------
          | TOTAL ENERGY             -198.023515040487 Eh   |
          | GRADIENT NORM               0.071716087485 Eh/α |
          | HOMO-LUMO GAP               1.438650039797 eV   |
           -------------------------------------------------
########################################################################
[WARNING] Runtime exception occurred
-2- restart_readRestart: Multiplicity missmatch in restart file.
-1- restart_readRestart: Number of electron missmatch in restart file.
########################################################################

------------------------------------------------------------------------
 * finished run on 2024/11/14 at 14:21:33.309     
------------------------------------------------------------------------
 total:
 * wall-time:     0 d,  0 h,  0 min,  1.049 sec
 *  cpu-time:     0 d,  0 h,  0 min,  3.720 sec
 * ratio c/w:     3.545 speedup
 SCF:
 * wall-time:     0 d,  0 h,  0 min,  1.033 sec
 *  cpu-time:     0 d,  0 h,  0 min,  3.682 sec
 * ratio c/w:     3.564 speedup

