      -----------------------------------------------------------      
     |                   =====================                   |     
     |                           x T B                           |     
     |                   =====================                   |     
     |                         S. Grimme                         |     
     |          Mulliken Center for Theoretical Chemistry        |     
     |                    University of Bonn                     |     
      -----------------------------------------------------------      

   * xtb version 6.6.1 (8d0f1dd) compiled by 'runner@Mac-1690902418499.local' on 2023-08-01

   xtb is free software: you can redistribute it and/or modify it under
   the terms of the GNU Lesser General Public License as published by
   the Free Software Foundation, either version 3 of the License, or
   (at your option) any later version.
   
   xtb is distributed in the hope that it will be useful,
   but WITHOUT ANY WARRANTY; without even the implied warranty of
   MERCHANTABILITY or FITNESS FOR A PARTICULAR PURPOSE.  See the
   GNU Lesser General Public License for more details.
   
   Cite this work as:
   * C. Bannwarth, E. Caldeweyher, S. Ehlert, A. Hansen, P. Pracht,
     J. Seibert, S. Spicher, S. Grimme, WIREs Comput. Mol. Sci., 2020, 11,
     e01493. DOI: 10.1002/wcms.1493
   
   for GFN2-xTB:
   * C. Bannwarth, S. Ehlert and S. Grimme., J. Chem. Theory Comput., 2019,
     15, 1652-1671. DOI: 10.1021/acs.jctc.8b01176
   for GFN1-xTB:
   * S. Grimme, C. Bannwarth, P. Shushkov, J. Chem. Theory Comput., 2017,
     13, 1989-2009. DOI: 10.1021/acs.jctc.7b00118
   for GFN0-xTB:
   * P. Pracht, E. Caldeweyher, S. Ehlert, S. Grimme, ChemRxiv, 2019, preprint.
     DOI: 10.26434/chemrxiv.8326202.v1
   for GFN-FF:
   * S. Spicher and S. Grimme, Angew. Chem. Int. Ed., 2020, 59, 15665-15673.
     DOI: 10.1002/anie.202004239
   
   for ALPB and GBSA implicit solvation:
   * S. Ehlert, M. Stahn, S. Spicher, S. Grimme, J. Chem. Theory Comput.,
     2021, 17, 4250-4261. DOI: 10.1021/acs.jctc.1c00471
   
   for DFT-D4:
   * E. Caldeweyher, C. Bannwarth and S. Grimme, J. Chem. Phys., 2017,
     147, 034112. DOI: 10.1063/1.4993215
   * E. Caldeweyher, S. Ehlert, A. Hansen, H. Neugebauer, S. Spicher,
     C. Bannwarth and S. Grimme, J. Chem. Phys., 2019, 150, 154122.
     DOI: 10.1063/1.5090222
   * E. Caldeweyher, J.-M. Mewes, S. Ehlert and S. Grimme, Phys. Chem. Chem. Phys.
     2020, 22, 8499-8512. DOI: 10.1039/D0CP00502A
   
   for sTDA-xTB:
   * S. Grimme and C. Bannwarth, J. Chem. Phys., 2016, 145, 054103.
     DOI: 10.1063/1.4959605
   
   in the mass-spec context:
   * V. Asgeirsson, C. Bauer and S. Grimme, Chem. Sci., 2017, 8, 4879.
     DOI: 10.1039/c7sc00601b
   * J. Koopman and S. Grimme, ACS Omega 2019, 4, 12, 15120-15133.
     DOI: 10.1021/acsomega.9b02011
   
   for metadynamics refer to:
   * S. Grimme, J. Chem. Theory Comput., 2019, 155, 2847-2862
     DOI: 10.1021/acs.jctc.9b00143
   
   for SPH calculations refer to:
   * S. Spicher and S. Grimme, J. Chem. Theory Comput., 2021, 17, 1701-1714
     DOI: 10.1021/acs.jctc.0c01306
   
   with help from (in alphabetical order)
   P. Atkinson, C. Bannwarth, F. Bohle, G. Brandenburg, E. Caldeweyher
   M. Checinski, S. Dohm, S. Ehlert, S. Ehrlich, I. Gerasimov, C. Hölzer
   A. Katbashev, J. Koopman, C. Lavigne, S. Lehtola, F. März, M. Müller,
   F. Musil, H. Neugebauer, J. Pisarek, C. Plett, P. Pracht, F. Pultar,
   J. Seibert, P. Shushkov, S. Spicher, M. Stahn, M. Steiner, T. Strunk,
   J. Stückrath, T. Rose, and J. Unsleber
   
 * started run on 2024/11/14 at 14:21:28.271     

           -------------------------------------------------
          |                Calculation Setup                |
           -------------------------------------------------

          program call               : xtb opt_anion_Verdazyl3.mol --gfn2 --sp --chrg 0 --uhf 2
          coordinate file            : opt_anion_Verdazyl3.mol
          omp threads                :                     8

   ID    Z sym.   atoms
    1    6 C      1-30, 33, 39, 45, 46, 48-75
    2    7 N      31, 32, 34, 35, 37, 38, 40, 41, 43
    3    8 O      36, 42, 47
    4   14 Si     44
    5    1 H      76-124
########################################################################
[WARNING] Please study the warnings concerning your input carefully
-1- prog_main: Charge in sdf/mol input was overwritten
########################################################################

           -------------------------------------------------
          |                 G F N 2 - x T B                 |
           -------------------------------------------------

        Reference                      10.1021/acs.jctc.8b01176
      * Hamiltonian:
        H0-scaling (s, p, d)           1.850000    2.230000    2.230000
        zeta-weighting                 0.500000
      * Dispersion:
        s8                             2.700000
        a1                             0.520000
        a2                             5.000000
        s9                             5.000000
      * Repulsion:
        kExp                           1.500000    1.000000
        rExp                           1.000000
      * Coulomb:
        alpha                          2.000000
        third order                    shell-resolved
        anisotropic                    true
        a3                             3.000000
        a5                             4.000000
        cn-shift                       1.200000
        cn-exp                         4.000000
        max-rad                        5.000000

q/qsh data taken from xtbrestart
CAMM data taken from xtbrestart

          ...................................................
          :                      SETUP                      :
          :.................................................:
          :  # basis functions                 355          :
          :  # atomic orbitals                 354          :
          :  # shells                          200          :
          :  # electrons                       364          :
          :  max. iterations                   250          :
          :  Hamiltonian                  GFN2-xTB          :
          :  restarted?                       true          :
          :  GBSA solvation                  false          :
          :  PC potential                    false          :
          :  electronic temp.          300.0000000     K    :
          :  accuracy                    1.0000000          :
          :  -> integral cutoff          0.2500000E+02      :
          :  -> integral neglect         0.1000000E-07      :
          :  -> SCF convergence          0.1000000E-05 Eh   :
          :  -> wf. convergence          0.1000000E-03 e    :
          :  Broyden damping             0.4000000          :
          ...................................................

 iter      E             dE          RMSdq      gap      omega  full diag
   1   -201.2611438 -0.201261E+03  0.409E-01    1.07       0.0  T
   2   -201.2800185 -0.188747E-01  0.277E-01    1.71       1.0  T
   3   -201.2851290 -0.511050E-02  0.145E-01    1.72       1.0  T
   4   -201.2852745 -0.145423E-03  0.121E-01    1.77       1.0  T
   5   -201.2858401 -0.565636E-03  0.478E-02    1.79       1.0  T
   6   -201.2858725 -0.324409E-04  0.241E-02    1.79       1.0  T
   7   -201.2859228 -0.502923E-04  0.120E-02    1.78       1.0  T
   8   -201.2859203  0.255897E-05  0.823E-03    1.79       1.1  T
   9   -201.2859257 -0.543300E-05  0.305E-03    1.78       2.9  T
  10   -201.2859264 -0.654669E-06  0.143E-03    1.79       6.3  T
  11   -201.2859264 -0.672392E-07  0.657E-04    1.78      13.7  T
  12   -201.2859264 -0.119095E-07  0.299E-04    1.78      30.0  T

   *** convergence criteria satisfied after 12 iterations ***

         #    Occupation            Energy/Eh            Energy/eV
      -------------------------------------------------------------
         1        2.0000           -0.7446489             -20.2629
       ...           ...                  ...                  ...
       177        2.0000           -0.3781890             -10.2910
       178        2.0000           -0.3736883             -10.1686
       179        2.0000           -0.3727366             -10.1427
       180        2.0000           -0.3639564              -9.9038
       181        2.0000           -0.3607065              -9.8153
       182        1.0000           -0.3372273              -9.1764
       183        1.0000           -0.3362184              -9.1490 (HOMO)
       184                         -0.2706329              -7.3643 (LUMO)
       185                         -0.2673531              -7.2750
       186                         -0.2600492              -7.0763
       187                         -0.2492056              -6.7812
       188                         -0.2452153              -6.6726
       ...                                ...                  ...
       354                          0.7417097              20.1829
      -------------------------------------------------------------
                  HL-Gap            0.0655856 Eh            1.7847 eV
             Fermi-level           -0.3262592 Eh           -8.8780 eV

 transition dipole moment (au) for excitation:         182         183
     X       Y       Z   
   0.5174  -0.8524   0.4127  total (au/Debye):    1.079   2.743
 dE (eV)             :    0.027
 oscillator strength :  0.11078E-02

 SCC (total)                   0 d,  0 h,  0 min,  0.916 sec
 SCC setup                      ...        0 min,  0.000 sec (  0.040%)
 Dispersion                     ...        0 min,  0.002 sec (  0.167%)
 classical contributions        ...        0 min,  0.000 sec (  0.031%)
 integral evaluation            ...        0 min,  0.007 sec (  0.794%)
 iterations                     ...        0 min,  0.831 sec ( 90.688%)
 molecular gradient             ...        0 min,  0.050 sec (  5.483%)
 printout                       ...        0 min,  0.026 sec (  2.795%)

         :::::::::::::::::::::::::::::::::::::::::::::::::::::
         ::                     SUMMARY                     ::
         :::::::::::::::::::::::::::::::::::::::::::::::::::::
         :: total energy            -198.022824250302 Eh    ::
         :: gradient norm              0.068610720706 Eh/a0 ::
         :: HOMO-LUMO gap              1.784674429022 eV    ::
         ::.................................................::
         :: SCC energy              -201.285926434378 Eh    ::
         :: -> isotropic ES            0.147974239390 Eh    ::
         :: -> anisotropic ES          0.009621949063 Eh    ::
         :: -> anisotropic XC          0.108602265983 Eh    ::
         :: -> dispersion             -0.207455048866 Eh    ::
         :: repulsion energy           3.256284968373 Eh    ::
         :: add. restraining           0.000000000000 Eh    ::
         :: total charge               0.000044337160 e     ::
         :::::::::::::::::::::::::::::::::::::::::::::::::::::

           -------------------------------------------------
          |                Property Printout                |
           -------------------------------------------------

    * Orbital Energies and Occupations

         #    Occupation            Energy/Eh            Energy/eV
      -------------------------------------------------------------
         1        2.0000           -0.7446489             -20.2629
       ...           ...                  ...                  ...
       171        2.0000           -0.4038934             -10.9905
       172        2.0000           -0.4019957             -10.9389
       173        2.0000           -0.3968468             -10.7988
       174        2.0000           -0.3912148             -10.6455
       175        2.0000           -0.3884718             -10.5709
       176        2.0000           -0.3842250             -10.4553
       177        2.0000           -0.3781890             -10.2910
       178        2.0000           -0.3736883             -10.1686
       179        2.0000           -0.3727366             -10.1427
       180        2.0000           -0.3639564              -9.9038
       181        2.0000           -0.3607065              -9.8153
       182        1.0000           -0.3372273              -9.1764
       183        1.0000           -0.3362184              -9.1490 (HOMO)
       184                         -0.2706329              -7.3643 (LUMO)
       185                         -0.2673531              -7.2750
       186                         -0.2600492              -7.0763
       187                         -0.2492056              -6.7812
       188                         -0.2452153              -6.6726
       189                         -0.2394284              -6.5152
       190                         -0.2285680              -6.2197
       191                         -0.2274386              -6.1889
       192                         -0.2268682              -6.1734
       193                         -0.2254334              -6.1344
       194                         -0.2235159              -6.0822
       ...                                ...                  ...
       354                          0.7417097              20.1829
      -------------------------------------------------------------
                  HL-Gap            0.0655856 Eh            1.7847 eV
             Fermi-level           -0.3262592 Eh           -8.8780 eV

     #   Z          covCN         q      C6AA      α(0)
     1   6 C        2.920    -0.035    28.870     8.811
     2   6 C        2.919    -0.030    28.737     8.791
     3   6 C        2.988    -0.003    28.087     8.693
     4   6 C        2.930    -0.032    28.793     8.800
     5   6 C        2.984     0.011    27.763     8.643
     6   6 C        2.988     0.013    27.719     8.636
     7   6 C        2.980     0.009    27.817     8.651
     8   6 C        2.986     0.005    27.904     8.665
     9   6 C        2.917    -0.032    28.805     8.801
    10   6 C        2.913    -0.038    28.950     8.823
    11   6 C        3.058    -0.021    28.460     8.749
    12   6 C        3.084     0.048    26.829     8.491
    13   6 C        2.907    -0.048    29.191     8.859
    14   6 C        2.927    -0.037    28.923     8.820
    15   6 C        3.057    -0.021    28.475     8.751
    16   6 C        3.088     0.048    26.824     8.490
    17   6 C        2.980     0.008    27.831     8.654
    18   6 C        2.986     0.005    27.907     8.666
    19   6 C        2.927    -0.037    28.932     8.821
    20   6 C        2.907    -0.048    29.180     8.858
    21   6 C        2.984     0.011    27.769     8.644
    22   6 C        2.988     0.013    27.711     8.635
    23   6 C        2.913    -0.038    28.947     8.822
    24   6 C        2.917    -0.032    28.804     8.801
    25   6 C        2.988    -0.003    28.087     8.693
    26   6 C        2.919    -0.029    28.736     8.791
    27   6 C        2.920    -0.035    28.870     8.811
    28   6 C        2.931    -0.032    28.799     8.801
    29   6 C        2.868     0.171    24.324     8.085
    30   6 C        2.868     0.171    24.329     8.085
    31   7 N        1.929    -0.253    27.426     7.765
    32   7 N        2.839     0.031    20.695     6.757
    33   6 C        2.699     0.307    21.782     7.639
    34   7 N        2.847     0.028    20.752     6.766
    35   7 N        1.925    -0.246    27.270     7.743
    36   8 O        0.859    -0.449    22.680     6.385
    37   7 N        1.925    -0.247    27.288     7.746
    38   7 N        2.847     0.028    20.756     6.766
    39   6 C        2.699     0.307    21.788     7.640
    40   7 N        2.839     0.031    20.693     6.756
    41   7 N        1.928    -0.252    27.411     7.763
    42   8 O        0.859    -0.449    22.690     6.386
    43   7 N        2.795    -0.048    22.174     6.994
    44  14 Si       3.506     0.483   100.772    19.412
    45   6 C        3.699    -0.170    23.992     7.005
    46   6 C        3.715     0.093    19.153     6.253
    47   8 O        1.702    -0.321    19.369     5.942
    48   6 C        3.649    -0.210    25.044     7.190
    49   6 C        3.648    -0.208    25.013     7.186
    50   6 C        3.648    -0.208    25.011     7.185
    51   6 C        3.643     0.155    18.405     6.167
    52   6 C        2.923     0.068    26.469     8.437
    53   6 C        2.926    -0.038    28.934     8.821
    54   6 C        2.920    -0.026    28.644     8.777
    55   6 C        2.917    -0.031    28.768     8.795
    56   6 C        2.921    -0.028    28.692     8.784
    57   6 C        2.919    -0.045    29.121     8.849
    58   6 C        2.928     0.069    26.452     8.435
    59   6 C        2.919    -0.036    28.896     8.815
    60   6 C        2.921    -0.026    28.652     8.778
    61   6 C        2.918    -0.030    28.738     8.791
    62   6 C        2.920    -0.026    28.662     8.779
    63   6 C        2.924    -0.036    28.900     8.816
    64   6 C        2.924     0.068    26.470     8.437
    65   6 C        2.919    -0.044    29.092     8.845
    66   6 C        2.921    -0.028    28.695     8.784
    67   6 C        2.917    -0.031    28.765     8.795
    68   6 C        2.920    -0.025    28.638     8.776
    69   6 C        2.926    -0.037    28.916     8.819
    70   6 C        2.928     0.069    26.456     8.435
    71   6 C        2.925    -0.036    28.906     8.817
    72   6 C        2.920    -0.027    28.666     8.780
    73   6 C        2.918    -0.030    28.743     8.792
    74   6 C        2.921    -0.026    28.655     8.778
    75   6 C        2.919    -0.037    28.910     8.817
    76   1 H        0.926     0.063     2.161     2.299
    77   1 H        0.926     0.040     2.446     2.446
    78   1 H        0.926     0.038     2.469     2.457
    79   1 H        0.925     0.042     2.428     2.437
    80   1 H        0.926     0.066     2.131     2.283
    81   1 H        0.926     0.080     1.979     2.200
    82   1 H        0.925     0.040     2.448     2.447
    83   1 H        0.926     0.036     2.508     2.477
    84   1 H        0.925     0.035     2.516     2.480
    85   1 H        0.926     0.062     2.175     2.306
    86   1 H        0.925     0.031     2.573     2.508
    87   1 H        0.925     0.039     2.466     2.456
    88   1 H        0.925     0.038     2.476     2.461
    89   1 H        0.925     0.036     2.500     2.473
    90   1 H        0.925     0.033     2.548     2.496
    91   1 H        0.925     0.036     2.502     2.474
    92   1 H        0.925     0.032     2.564     2.504
    93   1 H        0.925     0.038     2.472     2.459
    94   1 H        0.925     0.039     2.466     2.456
    95   1 H        0.925     0.041     2.433     2.439
    96   1 H        0.925     0.041     2.433     2.439
    97   1 H        0.923     0.005     2.980     2.700
    98   1 H        0.923     0.003     3.000     2.709
    99   1 H        0.922     0.027     2.633     2.538
   100   1 H        0.923     0.029     2.606     2.525
   101   1 H        0.926     0.030     2.587     2.515
   102   1 H        0.926     0.034     2.526     2.485
   103   1 H        0.925     0.031     2.577     2.510
   104   1 H        0.925     0.027     2.632     2.537
   105   1 H        0.926     0.063     2.166     2.302
   106   1 H        0.926     0.040     2.452     2.449
   107   1 H        0.926     0.038     2.473     2.459
   108   1 H        0.925     0.041     2.430     2.438
   109   1 H        0.926     0.067     2.116     2.275
   110   1 H        0.926     0.078     2.000     2.211
   111   1 H        0.925     0.040     2.455     2.450
   112   1 H        0.926     0.036     2.508     2.477
   113   1 H        0.926     0.039     2.466     2.456
   114   1 H        0.926     0.063     2.166     2.302
   115   1 H        0.926     0.034     2.529     2.487
   116   1 H        0.926     0.033     2.544     2.494
   117   1 H        0.925     0.032     2.562     2.503
   118   1 H        0.926     0.050     2.318     2.381
   119   1 H        0.926     0.061     2.185     2.311
   120   1 H        0.926     0.059     2.206     2.322
   121   1 H        0.926     0.050     2.320     2.382
   122   1 H        0.925     0.032     2.559     2.502
   123   1 H        0.925     0.026     2.640     2.541
   124   1 H        0.925     0.031     2.577     2.510

 Mol. C6AA /au·bohr⁶  :     219347.555773
 Mol. C8AA /au·bohr⁸  :    5576780.731460
 Mol. α(0) /au        :        749.601394


Wiberg/Mayer (AO) data.
largest (>0.10) Wiberg bond orders for each atom

 ---------------------------------------------------------------------------
     #   Z sym  total        # sym  WBO       # sym  WBO       # sym  WBO
 ---------------------------------------------------------------------------
     1   6 C    3.982 --     2 C    1.531     6 C    1.304   117 H    0.968
                             4 C    0.101
     2   6 C    3.978 --     1 C    1.531     3 C    1.309   118 H    0.967
     3   6 C    3.978 --     4 C    1.445     2 C    1.309    30 C    1.036
     4   6 C    3.982 --     3 C    1.445     5 C    1.330   119 H    0.956
                             1 C    0.101
     5   6 C    3.987 --     4 C    1.330     6 C    1.267     7 C    1.176
     6   6 C    3.983 --     1 C    1.304     5 C    1.267    10 C    1.221
     7   6 C    3.978 --     8 C    1.298    11 C    1.256     5 C    1.176
     8   6 C    3.984 --     7 C    1.298    14 C    1.282     9 C    1.216
     9   6 C    3.978 --    10 C    1.627     8 C    1.216   103 H    0.967
    10   6 C    3.978 --     9 C    1.627     6 C    1.221   104 H    0.967
    11   6 C    3.974 --    12 C    1.291     7 C    1.256    15 C    1.173
    12   6 C    3.947 --    13 C    1.301    11 C    1.291    43 N    1.139
    13   6 C    3.978 --    14 C    1.536    12 C    1.301   101 H    0.964
    14   6 C    3.961 --    13 C    1.536     8 C    1.282   102 H    0.968
    15   6 C    3.974 --    16 C    1.292    17 C    1.255    11 C    1.173
    16   6 C    3.948 --    20 C    1.301    15 C    1.292    43 N    1.139
    17   6 C    3.978 --    18 C    1.299    15 C    1.255    21 C    1.176
    18   6 C    3.984 --    17 C    1.299    19 C    1.282    24 C    1.217
    19   6 C    3.961 --    20 C    1.536    18 C    1.282   115 H    0.968
    20   6 C    3.978 --    19 C    1.536    16 C    1.301   116 H    0.965
    21   6 C    3.987 --    28 C    1.330    22 C    1.267    17 C    1.176
    22   6 C    3.983 --    27 C    1.304    21 C    1.267    23 C    1.221
    23   6 C    3.978 --    24 C    1.627    22 C    1.221   123 H    0.968
    24   6 C    3.978 --    23 C    1.627    18 C    1.217   124 H    0.967
    25   6 C    3.978 --    28 C    1.445    26 C    1.309    29 C    1.035
    26   6 C    3.978 --    27 C    1.531    25 C    1.309   121 H    0.967
    27   6 C    3.982 --    26 C    1.531    22 C    1.304   122 H    0.968
                            28 C    0.101
    28   6 C    3.982 --    25 C    1.445    21 C    1.330   120 H    0.955
                            27 C    0.101
    29   6 C    3.966 --    35 N    1.398    31 N    1.394    25 C    1.035
    30   6 C    3.966 --    37 N    1.398    41 N    1.393     3 C    1.036
    31   7 N    2.896 --    29 C    1.394    32 N    1.129    35 N    0.123
    32   7 N    3.628 --    31 N    1.129    33 C    1.107    52 C    1.066
                            36 O    0.122
    33   6 C    3.960 --    36 O    1.614    32 N    1.107    34 N    1.106
    34   7 N    3.618 --    35 N    1.131    33 C    1.106    58 C    1.053
                            36 O    0.125
    35   7 N    2.895 --    29 C    1.398    34 N    1.131    31 N    0.123
    36   8 O    1.988 --    33 C    1.614    34 N    0.125    32 N    0.122
    37   7 N    2.894 --    30 C    1.398    38 N    1.131    41 N    0.123
    38   7 N    3.618 --    37 N    1.131    39 C    1.106    70 C    1.053
                            42 O    0.125
    39   6 C    3.960 --    42 O    1.614    40 N    1.108    38 N    1.106
    40   7 N    3.627 --    41 N    1.131    39 C    1.108    64 C    1.064
                            42 O    0.122
    41   7 N    2.895 --    30 C    1.393    40 N    1.131    37 N    0.123
    42   8 O    1.987 --    39 C    1.614    38 N    0.125    40 N    0.122
    43   7 N    3.547 --    12 C    1.139    16 C    1.139    51 C    1.012
    44  14 Si   3.618 --    50 C    0.902    49 C    0.902    48 C    0.896
                            45 C    0.845
    45   6 C    3.969 --    46 C    1.023    96 H    0.981    95 H    0.981
                            44 Si   0.845
    46   6 C    3.944 --    45 C    1.023    97 H    0.971    98 H    0.971
                            47 O    0.968
    47   8 O    2.068 --    51 C    0.977    46 C    0.968
    48   6 C    3.980 --    90 H    0.991    91 H    0.988    89 H    0.987
                            44 Si   0.896
    49   6 C    3.981 --    86 H    0.987    87 H    0.987    88 H    0.986
                            44 Si   0.902
    50   6 C    3.981 --    94 H    0.987    92 H    0.987    93 H    0.986
                            44 Si   0.902
    51   6 C    3.956 --    43 N    1.012    47 O    0.977    99 H    0.954
                           100 H    0.954
    52   6 C    3.951 --    57 C    1.359    53 C    1.344    32 N    1.066
    53   6 C    3.983 --    54 C    1.470    52 C    1.344    85 H    0.961
                            56 C    0.105
    54   6 C    3.991 --    53 C    1.470    55 C    1.418    84 H    0.970
                            57 C    0.101
    55   6 C    3.970 --    56 C    1.431    54 C    1.418    83 H    0.971
    56   6 C    3.990 --    57 C    1.454    55 C    1.431    82 H    0.970
                            53 C    0.105
    57   6 C    3.979 --    56 C    1.454    52 C    1.359    81 H    0.957
                            54 C    0.101
    58   6 C    3.952 --    59 C    1.366    63 C    1.356    34 N    1.053
    59   6 C    3.982 --    60 C    1.453    58 C    1.366    80 H    0.964
                            62 C    0.104
    60   6 C    3.990 --    59 C    1.453    61 C    1.432    79 H    0.970
                            63 C    0.105
    61   6 C    3.973 --    60 C    1.432    62 C    1.423    78 H    0.971
    62   6 C    3.991 --    63 C    1.465    61 C    1.423    77 H    0.970
                            59 C    0.104
    63   6 C    3.983 --    62 C    1.465    58 C    1.356    76 H    0.962
                            60 C    0.105
    64   6 C    3.950 --    65 C    1.360    69 C    1.346    40 N    1.064
    65   6 C    3.979 --    66 C    1.454    64 C    1.360   110 H    0.958
                            68 C    0.102
    66   6 C    3.990 --    65 C    1.454    67 C    1.431   111 H    0.970
                            69 C    0.105
    67   6 C    3.971 --    66 C    1.431    68 C    1.419   112 H    0.971
    68   6 C    3.990 --    69 C    1.469    67 C    1.419   113 H    0.970
                            65 C    0.102
    69   6 C    3.983 --    68 C    1.469    64 C    1.346   114 H    0.961
                            66 C    0.105
    70   6 C    3.952 --    75 C    1.366    71 C    1.355    38 N    1.053
    71   6 C    3.983 --    72 C    1.465    70 C    1.355   105 H    0.963
                            74 C    0.105
    72   6 C    3.991 --    71 C    1.465    73 C    1.422   106 H    0.970
                            75 C    0.104
    73   6 C    3.973 --    74 C    1.432    72 C    1.422   107 H    0.971
    74   6 C    3.990 --    75 C    1.453    73 C    1.432   108 H    0.970
                            71 C    0.105
    75   6 C    3.982 --    74 C    1.453    70 C    1.366   109 H    0.963
                            72 C    0.104
    76   1 H    0.996 --    63 C    0.962
    77   1 H    0.998 --    62 C    0.970
    78   1 H    0.998 --    61 C    0.971
    79   1 H    0.998 --    60 C    0.970
    80   1 H    0.996 --    59 C    0.964
    81   1 H    0.994 --    57 C    0.957
    82   1 H    0.998 --    56 C    0.970
    83   1 H    0.999 --    55 C    0.971
    84   1 H    0.998 --    54 C    0.970
    85   1 H    0.996 --    53 C    0.961
    86   1 H    0.999 --    49 C    0.987
    87   1 H    0.998 --    49 C    0.987
    88   1 H    0.999 --    49 C    0.986
    89   1 H    0.999 --    48 C    0.987
    90   1 H    0.999 --    48 C    0.991
    91   1 H    0.999 --    48 C    0.988
    92   1 H    0.999 --    50 C    0.987
    93   1 H    0.999 --    50 C    0.986
    94   1 H    0.998 --    50 C    0.987
    95   1 H    0.998 --    45 C    0.981
Note: The following floating-point exceptions are signalling: IEEE_UNDERFLOW_FLAG
normal termination of xtb
    96   1 H    0.998 --    45 C    0.981
    97   1 H    1.000 --    46 C    0.971
    98   1 H    1.000 --    46 C    0.971
    99   1 H    0.998 --    51 C    0.954
   100   1 H    0.998 --    51 C    0.954
   101   1 H    0.998 --    13 C    0.964
   102   1 H    0.998 --    14 C    0.968
   103   1 H    0.998 --     9 C    0.967
   104   1 H    0.998 --    10 C    0.967
   105   1 H    0.996 --    71 C    0.963
   106   1 H    0.998 --    72 C    0.970
   107   1 H    0.998 --    73 C    0.971
   108   1 H    0.998 --    74 C    0.970
   109   1 H    0.995 --    75 C    0.963
   110   1 H    0.994 --    65 C    0.958
   111   1 H    0.998 --    66 C    0.970
   112   1 H    0.999 --    67 C    0.971
   113   1 H    0.998 --    68 C    0.970
   114   1 H    0.996 --    69 C    0.961
   115   1 H    0.998 --    19 C    0.968
   116   1 H    0.997 --    20 C    0.965
   117   1 H    0.998 --     1 C    0.968
   118   1 H    0.997 --     2 C    0.967
   119   1 H    0.996 --     4 C    0.956
   120   1 H    0.996 --    28 C    0.955
   121   1 H    0.997 --    26 C    0.967
   122   1 H    0.998 --    27 C    0.968
   123   1 H    0.998 --    23 C    0.968
   124   1 H    0.998 --    24 C    0.967
 ---------------------------------------------------------------------------

Topologies differ in bond orders
Writing corrected topology to xtbtopo.mol

molecular dipole:
                 x           y           z       tot (Debye)
 q only:        1.676       1.071       0.322
   full:        1.717       1.226       0.127       5.373
molecular quadrupole (traceless):
                xx          xy          yy          xz          yz          zz
 q only:       34.867      47.662      -8.798      11.518       8.425     -26.069
  q+dip:       40.057      46.297       5.167       7.383       8.107     -45.224
   full:       29.993      46.382      -4.764       4.826       3.378     -25.229


           -------------------------------------------------
          | TOTAL ENERGY             -198.022824250302 Eh   |
          | GRADIENT NORM               0.068610720706 Eh/α |
          | HOMO-LUMO GAP               1.784674429022 eV   |
           -------------------------------------------------
########################################################################
[WARNING] Runtime exception occurred
-2- restart_readRestart: Multiplicity missmatch in restart file.
-1- restart_readRestart: Number of electron missmatch in restart file.
########################################################################

------------------------------------------------------------------------
 * finished run on 2024/11/14 at 14:21:29.205     
------------------------------------------------------------------------
 total:
 * wall-time:     0 d,  0 h,  0 min,  0.934 sec
 *  cpu-time:     0 d,  0 h,  0 min,  3.202 sec
 * ratio c/w:     3.429 speedup
 SCF:
 * wall-time:     0 d,  0 h,  0 min,  0.917 sec
 *  cpu-time:     0 d,  0 h,  0 min,  3.165 sec
 * ratio c/w:     3.451 speedup

