      -----------------------------------------------------------      
     |                   =====================                   |     
     |                           x T B                           |     
     |                   =====================                   |     
     |                         S. Grimme                         |     
     |          Mulliken Center for Theoretical Chemistry        |     
     |                    University of Bonn                     |     
      -----------------------------------------------------------      

   * xtb version 6.6.1 (8d0f1dd) compiled by 'runner@Mac-1690902418499.local' on 2023-08-01

   xtb is free software: you can redistribute it and/or modify it under
   the terms of the GNU Lesser General Public License as published by
   the Free Software Foundation, either version 3 of the License, or
   (at your option) any later version.
   
   xtb is distributed in the hope that it will be useful,
   but WITHOUT ANY WARRANTY; without even the implied warranty of
   MERCHANTABILITY or FITNESS FOR A PARTICULAR PURPOSE.  See the
   GNU Lesser General Public License for more details.
   
   Cite this work as:
   * C. Bannwarth, E. Caldeweyher, S. Ehlert, A. Hansen, P. Pracht,
     J. Seibert, S. Spicher, S. Grimme, WIREs Comput. Mol. Sci., 2020, 11,
     e01493. DOI: 10.1002/wcms.1493
   
   for GFN2-xTB:
   * C. Bannwarth, S. Ehlert and S. Grimme., J. Chem. Theory Comput., 2019,
     15, 1652-1671. DOI: 10.1021/acs.jctc.8b01176
   for GFN1-xTB:
   * S. Grimme, C. Bannwarth, P. Shushkov, J. Chem. Theory Comput., 2017,
     13, 1989-2009. DOI: 10.1021/acs.jctc.7b00118
   for GFN0-xTB:
   * P. Pracht, E. Caldeweyher, S. Ehlert, S. Grimme, ChemRxiv, 2019, preprint.
     DOI: 10.26434/chemrxiv.8326202.v1
   for GFN-FF:
   * S. Spicher and S. Grimme, Angew. Chem. Int. Ed., 2020, 59, 15665-15673.
     DOI: 10.1002/anie.202004239
   
   for ALPB and GBSA implicit solvation:
   * S. Ehlert, M. Stahn, S. Spicher, S. Grimme, J. Chem. Theory Comput.,
     2021, 17, 4250-4261. DOI: 10.1021/acs.jctc.1c00471
   
   for DFT-D4:
   * E. Caldeweyher, C. Bannwarth and S. Grimme, J. Chem. Phys., 2017,
     147, 034112. DOI: 10.1063/1.4993215
   * E. Caldeweyher, S. Ehlert, A. Hansen, H. Neugebauer, S. Spicher,
     C. Bannwarth and S. Grimme, J. Chem. Phys., 2019, 150, 154122.
     DOI: 10.1063/1.5090222
   * E. Caldeweyher, J.-M. Mewes, S. Ehlert and S. Grimme, Phys. Chem. Chem. Phys.
     2020, 22, 8499-8512. DOI: 10.1039/D0CP00502A
   
   for sTDA-xTB:
   * S. Grimme and C. Bannwarth, J. Chem. Phys., 2016, 145, 054103.
     DOI: 10.1063/1.4959605
   
   in the mass-spec context:
   * V. Asgeirsson, C. Bauer and S. Grimme, Chem. Sci., 2017, 8, 4879.
     DOI: 10.1039/c7sc00601b
   * J. Koopman and S. Grimme, ACS Omega 2019, 4, 12, 15120-15133.
     DOI: 10.1021/acsomega.9b02011
   
   for metadynamics refer to:
   * S. Grimme, J. Chem. Theory Comput., 2019, 155, 2847-2862
     DOI: 10.1021/acs.jctc.9b00143
   
   for SPH calculations refer to:
   * S. Spicher and S. Grimme, J. Chem. Theory Comput., 2021, 17, 1701-1714
     DOI: 10.1021/acs.jctc.0c01306
   
   with help from (in alphabetical order)
   P. Atkinson, C. Bannwarth, F. Bohle, G. Brandenburg, E. Caldeweyher
   M. Checinski, S. Dohm, S. Ehlert, S. Ehrlich, I. Gerasimov, C. Hölzer
   A. Katbashev, J. Koopman, C. Lavigne, S. Lehtola, F. März, M. Müller,
   F. Musil, H. Neugebauer, J. Pisarek, C. Plett, P. Pracht, F. Pultar,
   J. Seibert, P. Shushkov, S. Spicher, M. Stahn, M. Steiner, T. Strunk,
   J. Stückrath, T. Rose, and J. Unsleber
   
 * started run on 2024/11/14 at 14:23:34.068     

           -------------------------------------------------
          |                Calculation Setup                |
           -------------------------------------------------

          program call               : xtb stacked_dimer_Verdazyl3.mol --opt --gfn2 --chrg 0 --uhf 4 --tight
          coordinate file            : stacked_dimer_Verdazyl3.mol
          omp threads                :                     8

   ID    Z sym.   atoms
    1    6 C      1-30, 33, 39, 45, 46, 48-75, 125-154, 157, 163, 169, 170,
                  172-199
    2    7 N      31, 32, 34, 35, 37, 38, 40, 41, 43, 155, 156, 158, 159,
                  161, 162, 164, 165, 167
    3    8 O      36, 42, 47, 160, 166, 171
    4   14 Si     44, 168
    5    1 H      76-124, 200-248

molecular fragmentation (1/2 indicates fragments):
111111111111111111111111111111111111111111111111111111111111111111111111
111111111111111111111111111111111111111111111111111122222222222222222222
222222222222222222222222222222222222222222222222222222222222222222222222
22222222222222222222222222222222
# atoms in fragment 1/2:   124   124
 fragment masses (1/2) :      996.20      996.20
CMA distance (Bohr)    :  11.338
constraining FC (au)   :  0.0500
########################################################################
[WARNING] Please study the warnings concerning your input carefully
-1- prog_main_parseArguments: Unknown option '--tight' provided
########################################################################

           -------------------------------------------------
          |                 G F N 2 - x T B                 |
           -------------------------------------------------

        Reference                      10.1021/acs.jctc.8b01176
      * Hamiltonian:
        H0-scaling (s, p, d)           1.850000    2.230000    2.230000
        zeta-weighting                 0.500000
      * Dispersion:
        s8                             2.700000
        a1                             0.520000
        a2                             5.000000
        s9                             5.000000
      * Repulsion:
        kExp                           1.500000    1.000000
        rExp                           1.000000
      * Coulomb:
        alpha                          2.000000
        third order                    shell-resolved
        anisotropic                    true
        a3                             3.000000
        a5                             4.000000
        cn-shift                       1.200000
        cn-exp                         4.000000
        max-rad                        5.000000


          ...................................................
          :                      SETUP                      :
          :.................................................:
          :  # basis functions                 710          :
          :  # atomic orbitals                 708          :
          :  # shells                          400          :
          :  # electrons                       728          :
          :  max. iterations                   250          :
          :  Hamiltonian                  GFN2-xTB          :
          :  restarted?                      false          :
          :  GBSA solvation                  false          :
          :  PC potential                    false          :
          :  electronic temp.          300.0000000     K    :
          :  accuracy                    1.0000000          :
          :  -> integral cutoff          0.2500000E+02      :
          :  -> integral neglect         0.1000000E-07      :
          :  -> SCF convergence          0.1000000E-05 Eh   :
          :  -> wf. convergence          0.1000000E-03 e    :
          :  Broyden damping             0.4000000          :
          ...................................................

 iter      E             dE          RMSdq      gap      omega  full diag
   1   -401.8287257 -0.401829E+03  0.430E+00    0.45       0.0  T
   2   -402.4530968 -0.624371E+00  0.268E+00    1.61       1.0  T
   3   -402.3345684  0.118528E+00  0.139E+00    1.24       1.0  T
   4   -402.4745658 -0.139997E+00  0.593E-01    1.65       1.0  T
   5   -402.5893830 -0.114817E+00  0.229E-01    1.49       1.0  T
   6   -402.6026978 -0.133148E-01  0.992E-02    1.53       1.0  T
   7   -402.6038096 -0.111185E-02  0.588E-02    1.51       1.0  T
   8   -402.6041403 -0.330679E-03  0.377E-02    1.51       1.0  T
   9   -402.6042466 -0.106277E-03  0.176E-02    1.51       1.0  T
  10   -402.6042728 -0.261756E-04  0.916E-03    1.51       1.0  T
  11   -402.6042747 -0.198641E-05  0.498E-03    1.51       1.3  T
  12   -402.6042782 -0.345493E-05  0.219E-03    1.51       2.9  T
  13   -402.6042785 -0.248580E-06  0.897E-04    1.51       7.1  T
  14   -402.6042786 -0.119192E-06  0.497E-04    1.51      12.8  T

   *** convergence criteria satisfied after 14 iterations ***

         #    Occupation            Energy/Eh            Energy/eV
      -------------------------------------------------------------
         1        2.0000           -0.7566607             -20.5898
       ...           ...                  ...                  ...
       360        2.0000           -0.3593370              -9.7781
       361        2.0000           -0.3573024              -9.7227
       362        2.0000           -0.3543811              -9.6432
       363        1.0000           -0.3284996              -8.9389
       364        1.0000           -0.3268732              -8.8947
       365        1.0000           -0.3265903              -8.8870
       366        1.0000           -0.3249741              -8.8430 (HOMO)
       367                         -0.2696115              -7.3365 (LUMO)
       368                         -0.2662777              -7.2458
       369                         -0.2658001              -7.2328
       370                         -0.2632123              -7.1624
       371                         -0.2563789              -6.9764
       ...                                ...                  ...
       708                          0.7445804              20.2611
      -------------------------------------------------------------
                  HL-Gap            0.0553626 Eh            1.5065 eV
             Fermi-level           -0.3193220 Eh           -8.6892 eV

 SCC (total)                   0 d,  0 h,  0 min,  3.330 sec
 SCC setup                      ...        0 min,  0.002 sec (  0.050%)
 Dispersion                     ...        0 min,  0.007 sec (  0.207%)
 classical contributions        ...        0 min,  0.001 sec (  0.036%)
 integral evaluation            ...        0 min,  0.028 sec (  0.834%)
 iterations                     ...        0 min,  2.958 sec ( 88.824%)
 molecular gradient             ...        0 min,  0.283 sec (  8.490%)
 printout                       ...        0 min,  0.052 sec (  1.558%)

         :::::::::::::::::::::::::::::::::::::::::::::::::::::
         ::                     SUMMARY                     ::
         :::::::::::::::::::::::::::::::::::::::::::::::::::::
         :: total energy            -396.021365897575 Eh    ::
         :: gradient norm              0.066677285221 Eh/a0 ::
         :: HOMO-LUMO gap              1.506492099441 eV    ::
         ::.................................................::
         :: SCC energy              -402.604278569573 Eh    ::
         :: -> isotropic ES            0.294605547247 Eh    ::
         :: -> anisotropic ES          0.021811274896 Eh    ::
         :: -> anisotropic XC          0.219629973640 Eh    ::
         :: -> dispersion             -0.459556725566 Eh    ::
         :: repulsion energy           6.537719935637 Eh    ::
         :: add. restraining           0.000000000000 Eh    ::
         :: total charge              -0.000000000000 e     ::
         :::::::::::::::::::::::::::::::::::::::::::::::::::::

      ----------------------------------------------------------- 
     |                   =====================                   |
     |                        A N C O P T                        |
     |                   =====================                   |
     |               Approximate Normal Coordinate               |
     |                Rational Function Optimizer                |
      ----------------------------------------------------------- 

          ...................................................
          :                      SETUP                      :
          :.................................................:
          :   optimization level            normal          :
          :   max. optcycles                   744          :
          :   ANC micro-cycles                  20          :
          :   degrees of freedom               738          :
          :.................................................:
          :   RF solver                   davidson          :
          :   write xtbopt.log                true          :
          :   linear?                        false          :
          :   energy convergence         0.5000000E-05 Eh   :
          :   grad. convergence          0.1000000E-02 Eh/α :
          :   maxmium RF displ.          1.0000000          :
          :   Hlow (freq-cutoff)         0.1000000E-01      :
          :   Hmax (freq-cutoff)         5.0000000          :
          :   S6 in model hess.         20.0000000          :
          ...................................................

generating ANC from model Hessian ...
Using Lindh-Hessian (1995)
 Shifting diagonal of input Hessian by    1.0006073464166602E-002
 Lowest  eigenvalues of input Hessian
    0.010000    0.000000    0.000000    0.000000    0.000000    0.000000
    0.000000    0.010023    0.010028    0.010051    0.010076    0.010082
    0.010097    0.010104    0.010127    0.010137    0.010162    0.010169
 Highest eigenvalues
    2.299300    2.299469    2.530764    2.530917    2.531314    2.531487


........................................................................
.............................. CYCLE    1 ..............................
........................................................................

 iter      E             dE          RMSdq      gap      omega  full diag
   1   -402.6042786 -0.402604E+03  0.270E-04    1.51       0.0  T
   2   -402.6042786 -0.707644E-09  0.214E-04    1.51      29.7  T
   3   -402.6042786 -0.824372E-08  0.139E-04    1.51      45.6  T
     SCC iter.                  ...        0 min,  0.501 sec
     gradient                   ...        0 min,  0.283 sec
 * total energy  :  -396.0213659 Eh     change       -0.2634994E-07 Eh
   gradient norm :     0.0666774 Eh/α   predicted     0.0000000E+00 (-100.00%)
   displ. norm   :     0.7104462 α      lambda       -0.3971535E-01
   maximum displ.:     0.2083478 α      in ANC's #186, #90, #85, ...

........................................................................
.............................. CYCLE    2 ..............................
........................................................................

 iter      E             dE          RMSdq      gap      omega  full diag
   1   -402.6432524 -0.402643E+03  0.149E-01    1.52       0.0  T
   2   -402.6434157 -0.163286E-03  0.108E-01    1.52       1.0  T
   3   -402.6430267  0.389022E-03  0.514E-02    1.52       1.0  T
   4   -402.6433084 -0.281685E-03  0.280E-02    1.52       1.0  T
   5   -402.6434443 -0.135981E-03  0.165E-02    1.52       1.0  T
   6   -402.6434796 -0.352689E-04  0.860E-03    1.52       1.0  T
   7   -402.6434833 -0.373714E-05  0.446E-03    1.52       1.4  T
   8   -402.6434835 -0.174415E-06  0.267E-03    1.52       2.4  T
   9   -402.6434848 -0.133053E-05  0.106E-03    1.52       6.0  T
  10   -402.6434849 -0.699787E-07  0.605E-04    1.52      10.5  T
  11   -402.6434849 -0.180169E-07  0.315E-04    1.52      20.1  T
     SCC iter.                  ...        0 min,  2.086 sec
     gradient                   ...        0 min,  0.281 sec
 * total energy  :  -396.0467275 Eh     change       -0.2536156E-01 Eh
   gradient norm :     0.0229389 Eh/α   predicted    -0.2988054E-01 (  17.82%)
   displ. norm   :     0.6516823 α      lambda       -0.1358854E-01
   maximum displ.:     0.2069477 α      in ANC's #55, #90, #54, ...

........................................................................
.............................. CYCLE    3 ..............................
........................................................................

 iter      E             dE          RMSdq      gap      omega  full diag
   1   -402.6518707 -0.402652E+03  0.722E-02    1.53       0.0  T
   2   -402.6518916 -0.209086E-04  0.448E-02    1.53       1.0  T
   3   -402.6517626  0.129014E-03  0.225E-02    1.53       1.0  T
   4   -402.6518959 -0.133290E-03  0.950E-03    1.53       1.0  T
   5   -402.6519063 -0.104520E-04  0.592E-03    1.54       1.1  T
   6   -402.6519060  0.359169E-06  0.350E-03    1.53       1.8  T
   7   -402.6519076 -0.159839E-05  0.150E-03    1.53       4.2  T
   8   -402.6519077 -0.114125E-06  0.861E-04    1.53       7.4  T
   9   -402.6519078 -0.108976E-06  0.351E-04    1.53      18.1  T
     SCC iter.                  ...        0 min,  1.681 sec
     gradient                   ...        0 min,  0.304 sec
 * total energy  :  -396.0576939 Eh     change       -0.1096640E-01 Eh
   gradient norm :     0.0147321 Eh/α   predicted    -0.9679731E-02 ( -11.73%)
   displ. norm   :     0.6971301 α      lambda       -0.9372476E-02
   maximum displ.:     0.2030269 α      in ANC's #55, #90, #72, ...

........................................................................
.............................. CYCLE    4 ..............................
........................................................................

 iter      E             dE          RMSdq      gap      omega  full diag
   1   -402.6519746 -0.402652E+03  0.729E-02    1.54       0.0  T
   2   -402.6519922 -0.175365E-04  0.460E-02    1.54       1.0  T
   3   -402.6519324  0.597997E-04  0.172E-02    1.54       1.0  T
   4   -402.6519930 -0.606644E-04  0.951E-03    1.55       1.0  T
   5   -402.6519979 -0.490283E-05  0.637E-03    1.55       1.0  T
   6   -402.6519994 -0.150401E-05  0.323E-03    1.54       2.0  T
   7   -402.6520010 -0.161047E-05  0.142E-03    1.55       4.5  T
   8   -402.6520012 -0.137154E-06  0.823E-04    1.54       7.7  T
   9   -402.6520013 -0.109202E-06  0.363E-04    1.54      17.5  T
     SCC iter.                  ...        0 min,  2.523 sec
     gradient                   ...        0 min,  0.281 sec
 * total energy  :  -396.0651331 Eh     change       -0.7439173E-02 Eh
   gradient norm :     0.0110030 Eh/α   predicted    -0.6963710E-02 (  -6.39%)
   displ. norm   :     0.6674977 α      lambda       -0.5532395E-02
   maximum displ.:     0.2185074 α      in ANC's #24, #72, #55, ...

........................................................................
.............................. CYCLE    5 ..............................
........................................................................

 iter      E             dE          RMSdq      gap      omega  full diag
   1   -402.6507548 -0.402651E+03  0.627E-02    1.55       0.0  T
   2   -402.6507648 -0.100736E-04  0.391E-02    1.55       1.0  T
   3   -402.6507317  0.331641E-04  0.136E-02    1.55       1.0  T
   4   -402.6507674 -0.357082E-04  0.745E-03    1.55       1.0  T
   5   -402.6507678 -0.427347E-06  0.522E-03    1.55       1.2  T
   6   -402.6507686 -0.752412E-06  0.258E-03    1.55       2.5  T
   7   -402.6507700 -0.141857E-05  0.105E-03    1.55       6.0  T
   8   -402.6507701 -0.106722E-06  0.614E-04    1.55      10.3  T
   9   -402.6507701 -0.522797E-07  0.272E-04    1.55      23.3  T
     SCC iter.                  ...        0 min,  1.835 sec
     gradient                   ...        0 min,  0.279 sec
 * total energy  :  -396.0694779 Eh     change       -0.4344799E-02 Eh
   gradient norm :     0.0087485 Eh/α   predicted    -0.3998686E-02 (  -7.97%)
   displ. norm   :     0.6390887 α      lambda       -0.3283671E-02
   maximum displ.:     0.2463292 α      in ANC's #24, #55, #72, ...

........................................................................
.............................. CYCLE    6 ..............................
........................................................................

 iter      E             dE          RMSdq      gap      omega  full diag
   1   -402.6508463 -0.402651E+03  0.505E-02    1.55       0.0  T
   2   -402.6508519 -0.550209E-05  0.307E-02    1.56       1.0  T
   3   -402.6508374  0.144825E-04  0.888E-03    1.56       1.0  T
   4   -402.6508537 -0.162939E-04  0.463E-03    1.56       1.4  T
   5   -402.6508539 -0.247549E-06  0.320E-03    1.56       2.0  T
   6   -402.6508540 -0.664176E-07  0.159E-03    1.56       4.0  T
   7   -402.6508545 -0.490178E-06  0.596E-04    1.56      10.7  T
   8   -402.6508545 -0.214069E-07  0.307E-04    1.56      20.7  T
     SCC iter.                  ...        0 min,  1.552 sec
     gradient                   ...        0 min,  0.315 sec
 * total energy  :  -396.0720709 Eh     change       -0.2593058E-02 Eh
   gradient norm :     0.0055552 Eh/α   predicted    -0.2312418E-02 ( -10.82%)
   displ. norm   :     0.6369243 α      lambda       -0.2119725E-02
   maximum displ.:     0.2670078 α      in ANC's #24, #42, #44, ...

........................................................................
.............................. CYCLE    7 ..............................
........................................................................

 iter      E             dE          RMSdq      gap      omega  full diag
   1   -402.6509140 -0.402651E+03  0.446E-02    1.56       0.0  T
   2   -402.6509175 -0.352177E-05  0.266E-02    1.56       1.0  T
   3   -402.6509059  0.115996E-04  0.761E-03    1.56       1.0  T
   4   -402.6509186 -0.127257E-04  0.373E-03    1.56       1.7  T
   5   -402.6509190 -0.410047E-06  0.274E-03    1.56       2.3  T
   6   -402.6509187  0.328874E-06  0.157E-03    1.56       4.0  T
   7   -402.6509193 -0.553276E-06  0.628E-04    1.56      10.1  T
   8   -402.6509193 -0.491606E-07  0.330E-04    1.56      19.2  T
     SCC iter.                  ...        0 min,  1.700 sec
     gradient                   ...        0 min,  0.283 sec
 * total energy  :  -396.0737837 Eh     change       -0.1712771E-02 Eh
   gradient norm :     0.0046329 Eh/α   predicted    -0.1489820E-02 ( -13.02%)
   displ. norm   :     0.6534230 α      lambda       -0.1565295E-02
   maximum displ.:     0.2815096 α      in ANC's #24, #42, #44, ...

........................................................................
.............................. CYCLE    8 ..............................
........................................................................

 iter      E             dE          RMSdq      gap      omega  full diag
   1   -402.6513864 -0.402651E+03  0.418E-02    1.56       0.0  T
   2   -402.6513886 -0.211821E-05  0.248E-02    1.56       1.0  T
   3   -402.6513736  0.149600E-04  0.716E-03    1.56       1.0  T
   4   -402.6513895 -0.158782E-04  0.263E-03    1.56       2.4  T
   5   -402.6513901 -0.602525E-06  0.181E-03    1.56       3.5  T
   6   -402.6513900  0.794580E-07  0.112E-03    1.56       5.6  T
   7   -402.6513902 -0.189840E-06  0.488E-04    1.56      13.0  T
   8   -402.6513902 -0.301596E-07  0.256E-04    1.56      24.8  T
     SCC iter.                  ...        0 min,  1.831 sec
     gradient                   ...        0 min,  0.283 sec
 * total energy  :  -396.0750797 Eh     change       -0.1296009E-02 Eh
   gradient norm :     0.0042072 Eh/α   predicted    -0.1116809E-02 ( -13.83%)
   displ. norm   :     0.6811567 α      lambda       -0.1273362E-02
   maximum displ.:     0.2929409 α      in ANC's #24, #42, #44, ...

........................................................................
.............................. CYCLE    9 ..............................
........................................................................

 iter      E             dE          RMSdq      gap      omega  full diag
   1   -402.6510953 -0.402651E+03  0.433E-02    1.57       0.0  T
   2   -402.6510974 -0.217545E-05  0.257E-02    1.57       1.0  T
   3   -402.6510783  0.191155E-04  0.818E-03    1.56       1.0  T
   4   -402.6510986 -0.203181E-04  0.309E-03    1.57       2.1  T
   5   -402.6510993 -0.654342E-06  0.220E-03    1.57       2.9  T
   6   -402.6510989  0.365729E-06  0.143E-03    1.57       4.4  T
   7   -402.6510994 -0.429808E-06  0.498E-04    1.57      12.8  T
   8   -402.6510994 -0.258154E-07  0.280E-04    1.57      22.7  T
     SCC iter.                  ...        0 min,  1.537 sec
     gradient                   ...        0 min,  0.305 sec
 * total energy  :  -396.0761441 Eh     change       -0.1064437E-02 Eh
   gradient norm :     0.0040549 Eh/α   predicted    -0.9320857E-03 ( -12.43%)
   displ. norm   :     0.6917855 α      lambda       -0.1060339E-02
   maximum displ.:     0.2956045 α      in ANC's #24, #42, #44, ...

........................................................................
.............................. CYCLE   10 ..............................
........................................................................

 iter      E             dE          RMSdq      gap      omega  full diag
   1   -402.6523401 -0.402652E+03  0.438E-02    1.57       0.0  T
   2   -402.6523419 -0.177626E-05  0.260E-02    1.57       1.0  T
   3   -402.6523199  0.219622E-04  0.777E-03    1.57       1.0  T
   4   -402.6523434 -0.234231E-04  0.186E-03    1.57       3.4  T
   5   -402.6523439 -0.484269E-06  0.121E-03    1.57       5.3  T
   6   -402.6523439 -0.851568E-07  0.729E-04    1.57       8.7  T
   7   -402.6523440 -0.658069E-07  0.300E-04    1.57      21.2  T
     SCC iter.                  ...        0 min,  1.425 sec
     gradient                   ...        0 min,  0.287 sec
 * total energy  :  -396.0770030 Eh     change       -0.8588758E-03 Eh
   gradient norm :     0.0045376 Eh/α   predicted    -0.7838933E-03 (  -8.73%)
   displ. norm   :     0.6922330 α      lambda       -0.8573866E-03
   maximum displ.:     0.2871896 α      in ANC's #24, #42, #17, ...

........................................................................
.............................. CYCLE   11 ..............................
........................................................................

 iter      E             dE          RMSdq      gap      omega  full diag
   1   -402.6495390 -0.402650E+03  0.487E-02    1.57       0.0  T
   2   -402.6495438 -0.485216E-05  0.288E-02    1.57       1.0  T
   3   -402.6495249  0.189399E-04  0.101E-02    1.57       1.0  T
   4   -402.6495454 -0.204856E-04  0.510E-03    1.57       1.2  T
   5   -402.6495461 -0.726998E-06  0.403E-03    1.57       1.6  T
   6   -402.6495451  0.969327E-06  0.211E-03    1.57       3.0  T
   7   -402.6495463 -0.119439E-05  0.685E-04    1.57       9.3  T
   8   -402.6495463 -0.313960E-07  0.402E-04    1.57      15.8  T
   9   -402.6495464 -0.544429E-08  0.195E-04    1.57      32.5  T
     SCC iter.                  ...        0 min,  1.634 sec
     gradient                   ...        0 min,  0.296 sec
 * total energy  :  -396.0776076 Eh     change       -0.6045475E-03 Eh
   gradient norm :     0.0065089 Eh/α   predicted    -0.6341317E-03 (   4.89%)
   displ. norm   :     0.5948648 α      lambda       -0.6216376E-03
   maximum displ.:     0.2424498 α      in ANC's #24, #42, #16, ...

........................................................................
.............................. CYCLE   12 ..............................
........................................................................

 iter      E             dE          RMSdq      gap      omega  full diag
   1   -402.6519611 -0.402652E+03  0.408E-02    1.57       0.0  T
   2   -402.6519640 -0.293264E-05  0.242E-02    1.57       1.0  T
   3   -402.6519510  0.129950E-04  0.683E-03    1.57       1.0  T
   4   -402.6519650 -0.139308E-04  0.273E-03    1.57       2.3  T
   5   -402.6519657 -0.714062E-06  0.186E-03    1.57       3.4  T
   6   -402.6519654  0.284421E-06  0.122E-03    1.57       5.2  T
   7   -402.6519657 -0.323736E-06  0.461E-04    1.57      13.8  T
   8   -402.6519657 -0.212507E-07  0.259E-04    1.57      24.5  T
     SCC iter.                  ...        0 min,  1.384 sec
     gradient                   ...        0 min,  0.289 sec
 * total energy  :  -396.0780259 Eh     change       -0.4183842E-03 Eh
   gradient norm :     0.0042171 Eh/α   predicted    -0.4208086E-03 (   0.58%)
   displ. norm   :     0.4807514 α      lambda       -0.2898972E-03
   maximum displ.:     0.1918782 α      in ANC's #24, #42, #16, ...

........................................................................
.............................. CYCLE   13 ..............................
........................................................................

 iter      E             dE          RMSdq      gap      omega  full diag
   1   -402.6514785 -0.402651E+03  0.322E-02    1.57       0.0  T
   2   -402.6514795 -0.103593E-05  0.192E-02    1.57       1.0  T
   3   -402.6514727  0.678834E-05  0.502E-03    1.57       1.3  T
   4   -402.6514802 -0.750664E-05  0.205E-03    1.57       3.1  T
   5   -402.6514803 -0.816393E-07  0.147E-03    1.57       4.3  T
   6   -402.6514802  0.102538E-06  0.765E-04    1.57       8.3  T
   7   -402.6514804 -0.138610E-06  0.330E-04    1.57      19.2  T
     SCC iter.                  ...        0 min,  1.656 sec
     gradient                   ...        0 min,  0.283 sec
 * total energy  :  -396.0782509 Eh     change       -0.2249801E-03 Eh
   gradient norm :     0.0028823 Eh/α   predicted    -0.1784541E-03 ( -20.68%)
   displ. norm   :     0.4241587 α      lambda       -0.2376627E-03
   maximum displ.:     0.1535297 α      in ANC's #24, #16, #6, ...

........................................................................
.............................. CYCLE   14 ..............................
........................................................................

 iter      E             dE          RMSdq      gap      omega  full diag
   1   -402.6527321 -0.402653E+03  0.287E-02    1.57       0.0  T
   2   -402.6527329 -0.841627E-06  0.170E-02    1.57       1.0  T
   3   -402.6527271  0.581109E-05  0.458E-03    1.57       1.4  T
   4   -402.6527335 -0.640855E-05  0.171E-03    1.57       3.7  T
   5   -402.6527336 -0.776424E-07  0.117E-03    1.57       5.5  T
   6   -402.6527336  0.131897E-07  0.603E-04    1.57      10.5  T
   7   -402.6527336 -0.651066E-07  0.288E-04    1.57      22.1  T
     SCC iter.                  ...        0 min,  1.183 sec
     gradient                   ...        0 min,  0.279 sec
 * total energy  :  -396.0784440 Eh     change       -0.1930500E-03 Eh
   gradient norm :     0.0021499 Eh/α   predicted    -0.1402115E-03 ( -27.37%)
   displ. norm   :     0.4449162 α      lambda       -0.2584585E-03
   maximum displ.:     0.1769657 α      in ANC's #16, #6, #24, ...

........................................................................
.............................. CYCLE   15 ..............................
........................................................................

 iter      E             dE          RMSdq      gap      omega  full diag
   1   -402.6535677 -0.402654E+03  0.306E-02    1.57       0.0  T
   2   -402.6535689 -0.120763E-05  0.180E-02    1.57       1.0  T
   3   -402.6535617  0.724383E-05  0.495E-03    1.57       1.3  T
   4   -402.6535695 -0.784764E-05  0.151E-03    1.57       4.2  T
   5   -402.6535698 -0.256234E-06  0.963E-04    1.57       6.6  T
   6   -402.6535698 -0.335203E-07  0.553E-04    1.57      11.5  T
     SCC iter.                  ...        0 min,  1.519 sec
     gradient                   ...        0 min,  0.292 sec
 * total energy  :  -396.0786575 Eh     change       -0.2135641E-03 Eh
   gradient norm :     0.0027785 Eh/α   predicted    -0.1548114E-03 ( -27.51%)
   displ. norm   :     0.4899536 α      lambda       -0.2856471E-03
   maximum displ.:     0.2019743 α      in ANC's #16, #6, #14, ...

........................................................................
.............................. CYCLE   16 ..............................
........................................................................

 iter      E             dE          RMSdq      gap      omega  full diag
   1   -402.6539544 -0.402654E+03  0.342E-02    1.57       0.0  T
   2   -402.6539559 -0.154422E-05  0.201E-02    1.57       1.0  T
   3   -402.6539432  0.127509E-04  0.621E-03    1.57       1.0  T
   4   -402.6539569 -0.136738E-04  0.161E-03    1.57       3.9  T
   5   -402.6539573 -0.421884E-06  0.946E-04    1.57       6.7  T
   6   -402.6539573 -0.542980E-07  0.514E-04    1.57      12.3  T
     SCC iter.                  ...        0 min,  1.013 sec
     gradient                   ...        0 min,  0.285 sec
 * total energy  :  -396.0788947 Eh     change       -0.2371829E-03 Eh
   gradient norm :     0.0040265 Eh/α   predicted    -0.1771140E-03 ( -25.33%)
   displ. norm   :     0.5332518 α      lambda       -0.3016227E-03
   maximum displ.:     0.2256035 α      in ANC's #6, #16, #10, ...

........................................................................
.............................. CYCLE   17 ..............................
........................................................................

 iter      E             dE          RMSdq      gap      omega  full diag
   1   -402.6530617 -0.402653E+03  0.368E-02    1.57       0.0  T
   2   -402.6530633 -0.162913E-05  0.217E-02    1.57       1.0  T
   3   -402.6530484  0.149499E-04  0.662E-03    1.57       1.0  T
   4   -402.6530644 -0.160707E-04  0.166E-03    1.57       3.8  T
   5   -402.6530648 -0.386414E-06  0.100E-03    1.57       6.3  T
   6   -402.6530649 -0.641413E-07  0.513E-04    1.57      12.4  T
   7   -402.6530649 -0.250664E-07  0.252E-04    1.57      25.2  T
     SCC iter.                  ...        0 min,  1.286 sec
     gradient                   ...        0 min,  0.320 sec
 * total energy  :  -396.0791487 Eh     change       -0.2539444E-03 Eh
   gradient norm :     0.0042153 Eh/α   predicted    -0.1936960E-03 ( -23.73%)
   displ. norm   :     0.5735367 α      lambda       -0.3278211E-03
   maximum displ.:     0.2470885 α      in ANC's #6, #16, #10, ...

........................................................................
.............................. CYCLE   18 ..............................
........................................................................

 iter      E             dE          RMSdq      gap      omega  full diag
   1   -402.6529072 -0.402653E+03  0.382E-02    1.57       0.0  T
   2   -402.6529090 -0.171325E-05  0.225E-02    1.57       1.0  T
   3   -402.6528946  0.143138E-04  0.655E-03    1.57       1.0  T
   4   -402.6529101 -0.155008E-04  0.165E-03    1.57       3.8  T
   5   -402.6529104 -0.293318E-06  0.103E-03    1.57       6.1  T
   6   -402.6529105 -0.440659E-07  0.583E-04    1.57      10.9  T
   7   -402.6529105 -0.349719E-07  0.309E-04    1.57      20.6  T
     SCC iter.                  ...        0 min,  1.447 sec
     gradient                   ...        0 min,  0.283 sec
 * total energy  :  -396.0794300 Eh     change       -0.2812977E-03 Eh
   gradient norm :     0.0038475 Eh/α   predicted    -0.2178280E-03 ( -22.56%)
   displ. norm   :     0.6175283 α      lambda       -0.3735282E-03
   maximum displ.:     0.2706826 α      in ANC's #6, #16, #10, ...

........................................................................
.............................. CYCLE   19 ..............................
........................................................................

 iter      E             dE          RMSdq      gap      omega  full diag
   1   -402.6526902 -0.402653E+03  0.397E-02    1.57       0.0  T
   2   -402.6526925 -0.227397E-05  0.234E-02    1.57       1.0  T
   3   -402.6526796  0.128224E-04  0.646E-03    1.57       1.0  T
   4   -402.6526935 -0.138453E-04  0.200E-03    1.57       3.2  T
   5   -402.6526939 -0.409336E-06  0.131E-03    1.57       4.9  T
   6   -402.6526939 -0.629433E-07  0.775E-04    1.57       8.2  T
   7   -402.6526940 -0.655324E-07  0.364E-04    1.57      17.4  T
     SCC iter.                  ...        0 min,  1.448 sec
     gradient                   ...        0 min,  0.287 sec
 * total energy  :  -396.0797539 Eh     change       -0.3238989E-03 Eh
   gradient norm :     0.0033786 Eh/α   predicted    -0.2579904E-03 ( -20.35%)
   displ. norm   :     0.6622305 α      lambda       -0.4192548E-03
   maximum displ.:     0.2940691 α      in ANC's #6, #16, #10, ...

........................................................................
.............................. CYCLE   20 ..............................
........................................................................

 iter      E             dE          RMSdq      gap      omega  full diag
   1   -402.6539390 -0.402654E+03  0.406E-02    1.57       0.0  T
   2   -402.6539420 -0.293847E-05  0.239E-02    1.57       1.0  T
   3   -402.6539307  0.112428E-04  0.614E-03    1.57       1.0  T
   4   -402.6539427 -0.120285E-04  0.196E-03    1.57       3.2  T
   5   -402.6539434 -0.628688E-06  0.121E-03    1.57       5.3  T
   6   -402.6539435 -0.118819E-06  0.738E-04    1.57       8.6  T
   7   -402.6539435 -0.529740E-07  0.357E-04    1.57      17.8  T
     SCC iter.                  ...        0 min,  1.043 sec
     gradient                   ...        0 min,  0.281 sec
 * total energy  :  -396.0801203 Eh     change       -0.3664280E-03 Eh
   gradient norm :     0.0041629 Eh/α   predicted    -0.3015594E-03 ( -17.70%)
   displ. norm   :     0.7023118 α      lambda       -0.4501408E-03
   maximum displ.:     0.3148842 α      in ANC's #6, #16, #10, ...
 * RMSD in coord.:     0.5809268 α      energy gain  -0.5875439E-01 Eh

generating ANC from model Hessian ...
Using Lindh-Hessian (1995)
 Shifting diagonal of input Hessian by    1.0027076405439960E-002
 Lowest  eigenvalues of input Hessian
    0.010000    0.010016    0.010027    0.000000    0.000000    0.000000
    0.000000    0.000000    0.000000    0.010042    0.010061    0.010086
    0.010091    0.010102    0.010117    0.010122    0.010138    0.010153
 Highest eigenvalues
    2.300412    2.304167    2.528520    2.531557    2.532563    2.534835


........................................................................
.............................. CYCLE   21 ..............................
........................................................................

 iter      E             dE          RMSdq      gap      omega  full diag
   1   -402.6549680 -0.402655E+03  0.414E-02    1.57       0.0  T
   2   -402.6549709 -0.286508E-05  0.244E-02    1.57       1.0  T
   3   -402.6549617  0.919599E-05  0.564E-03    1.57       1.1  T
   4   -402.6549717 -0.100314E-04  0.182E-03    1.57       3.5  T
   5   -402.6549722 -0.474773E-06  0.112E-03    1.57       5.7  T
   6   -402.6549723 -0.763943E-07  0.694E-04    1.57       9.2  T
   7   -402.6549723 -0.608260E-07  0.336E-04    1.57      18.9  T
     SCC iter.                  ...        0 min,  1.623 sec
     gradient                   ...        0 min,  0.320 sec
 * total energy  :  -396.0805207 Eh     change       -0.4004507E-03 Eh
   gradient norm :     0.0050704 Eh/α   predicted     0.0000000E+00 (-100.00%)
   displ. norm   :     0.0905334 α      lambda       -0.1355891E-03
   maximum displ.:     0.0339891 α      in ANC's #4, #15, #18, ...

........................................................................
.............................. CYCLE   22 ..............................
........................................................................

 iter      E             dE          RMSdq      gap      omega  full diag
   1   -402.6555820 -0.402656E+03  0.966E-03    1.57       0.0  T
   2   -402.6555824 -0.384420E-06  0.590E-03    1.57       1.1  T
   3   -402.6555813  0.107735E-05  0.251E-03    1.57       2.5  T
   4   -402.6555825 -0.116011E-05  0.116E-03    1.57       5.5  T
   5   -402.6555826 -0.554871E-07  0.836E-04    1.57       7.6  T
   6   -402.6555825  0.146621E-07  0.489E-04    1.57      13.0  T
     SCC iter.                  ...        0 min,  3.479 sec
     gradient                   ...        0 min,  0.334 sec
 * total energy  :  -396.0806443 Eh     change       -0.1235243E-03 Eh
   gradient norm :     0.0027206 Eh/α   predicted    -0.7088504E-04 ( -42.61%)
   displ. norm   :     0.3626371 α      lambda       -0.4114379E-03
   maximum displ.:     0.1384681 α      in ANC's #4, #15, #18, ...

........................................................................
.............................. CYCLE   23 ..............................
........................................................................

 iter      E             dE          RMSdq      gap      omega  full diag
   1   -402.6563119 -0.402656E+03  0.312E-02    1.56       0.0  T
   2   -402.6563151 -0.327948E-05  0.185E-02    1.56       1.0  T
   3   -402.6563055  0.960483E-05  0.652E-03    1.56       1.0  T
   4   -402.6563160 -0.104306E-04  0.236E-03    1.56       2.7  T
   5   -402.6563166 -0.593950E-06  0.156E-03    1.56       4.1  T
   6   -402.6563165  0.291059E-07  0.106E-03    1.56       6.0  T
   7   -402.6563167 -0.166675E-06  0.396E-04    1.56      16.0  T
   8   -402.6563167 -0.150093E-07  0.214E-04    1.56      29.7  T
     SCC iter.                  ...        0 min,  3.766 sec
     gradient                   ...        0 min,  0.340 sec
 * total energy  :  -396.0809258 Eh     change       -0.2815318E-03 Eh
   gradient norm :     0.0043921 Eh/α   predicted    -0.2327771E-03 ( -17.32%)
   displ. norm   :     0.3012390 α      lambda       -0.1895128E-03
   maximum displ.:     0.1254011 α      in ANC's #4, #15, #18, ...

........................................................................
.............................. CYCLE   24 ..............................
........................................................................

 iter      E             dE          RMSdq      gap      omega  full diag
   1   -402.6562612 -0.402656E+03  0.221E-02    1.56       0.0  T
   2   -402.6562622 -0.101528E-05  0.130E-02    1.56       1.0  T
   3   -402.6562577  0.453980E-05  0.397E-03    1.56       1.6  T
   4   -402.6562626 -0.488748E-05  0.111E-03    1.56       5.7  T
   5   -402.6562628 -0.241880E-06  0.612E-04    1.56      10.4  T
   6   -402.6562628 -0.249190E-07  0.374E-04    1.56      17.0  T
     SCC iter.                  ...        0 min,  1.105 sec
     gradient                   ...        0 min,  0.281 sec
 * total energy  :  -396.0810786 Eh     change       -0.1527943E-03 Eh
   gradient norm :     0.0058008 Eh/α   predicted    -0.1037209E-03 ( -32.12%)
   displ. norm   :     0.3972607 α      lambda       -0.2449370E-03
   maximum displ.:     0.1731739 α      in ANC's #4, #15, #18, ...

........................................................................
.............................. CYCLE   25 ..............................
........................................................................

 iter      E             dE          RMSdq      gap      omega  full diag
   1   -402.6561668 -0.402656E+03  0.261E-02    1.56       0.0  T
   2   -402.6561679 -0.109372E-05  0.154E-02    1.56       1.0  T
   3   -402.6561627  0.525649E-05  0.422E-03    1.56       1.5  T
   4   -402.6561684 -0.568018E-05  0.138E-03    1.56       4.6  T
   5   -402.6561686 -0.216927E-06  0.927E-04    1.56       6.8  T
   6   -402.6561686 -0.722025E-07  0.506E-04    1.56      12.6  T
     SCC iter.                  ...        0 min,  1.316 sec
     gradient                   ...        0 min,  0.280 sec
 * total energy  :  -396.0812893 Eh     change       -0.2107308E-03 Eh
   gradient norm :     0.0050255 Eh/α   predicted    -0.1417965E-03 ( -32.71%)
   displ. norm   :     0.5329649 α      lambda       -0.3474404E-03
   maximum displ.:     0.2404599 α      in ANC's #4, #15, #18, ...

........................................................................
.............................. CYCLE   26 ..............................
........................................................................

 iter      E             dE          RMSdq      gap      omega  full diag
   1   -402.6561323 -0.402656E+03  0.319E-02    1.56       0.0  T
   2   -402.6561342 -0.183979E-05  0.188E-02    1.56       1.0  T
   3   -402.6561269  0.721880E-05  0.511E-03    1.56       1.2  T
   4   -402.6561347 -0.779701E-05  0.193E-03    1.56       3.3  T
   5   -402.6561351 -0.320723E-06  0.136E-03    1.56       4.7  T
   6   -402.6561352 -0.148095E-06  0.726E-04    1.56       8.7  T
   7   -402.6561352 -0.379201E-07  0.353E-04    1.56      18.0  T
     SCC iter.                  ...        0 min,  1.540 sec
     gradient                   ...        0 min,  0.288 sec
 * total energy  :  -396.0815933 Eh     change       -0.3039716E-03 Eh
   gradient norm :     0.0032770 Eh/α   predicted    -0.2230700E-03 ( -26.61%)
   displ. norm   :     0.6312483 α      lambda       -0.4185861E-03
   maximum displ.:     0.2918981 α      in ANC's #4, #15, #18, ...

........................................................................
.............................. CYCLE   27 ..............................
........................................................................

 iter      E             dE          RMSdq      gap      omega  full diag
   1   -402.6562769 -0.402656E+03  0.345E-02    1.56       0.0  T
   2   -402.6562794 -0.253222E-05  0.204E-02    1.56       1.0  T
   3   -402.6562719  0.751125E-05  0.528E-03    1.56       1.2  T
   4   -402.6562800 -0.810643E-05  0.195E-03    1.56       3.3  T
   5   -402.6562805 -0.476147E-06  0.131E-03    1.56       4.8  T
   6   -402.6562806 -0.139847E-06  0.780E-04    1.56       8.1  T
   7   -402.6562807 -0.483118E-07  0.379E-04    1.56      16.7  T
     SCC iter.                  ...        0 min,  1.618 sec
     gradient                   ...        0 min,  0.297 sec
 * total energy  :  -396.0819642 Eh     change       -0.3709466E-03 Eh
   gradient norm :     0.0043548 Eh/α   predicted    -0.2927138E-03 ( -21.09%)
   displ. norm   :     0.6892427 α      lambda       -0.4616348E-03
   maximum displ.:     0.3240671 α      in ANC's #4, #15, #18, ...

........................................................................
.............................. CYCLE   28 ..............................
........................................................................

 iter      E             dE          RMSdq      gap      omega  full diag
   1   -402.6566891 -0.402657E+03  0.350E-02    1.56       0.0  T
   2   -402.6566917 -0.259500E-05  0.206E-02    1.56       1.0  T
   3   -402.6566868  0.497914E-05  0.450E-03    1.57       1.4  T
   4   -402.6566922 -0.544559E-05  0.175E-03    1.56       3.6  T
   5   -402.6566927 -0.464311E-06  0.112E-03    1.56       5.7  T
   6   -402.6566928 -0.109200E-06  0.672E-04    1.56       9.4  T
   7   -402.6566928 -0.380633E-07  0.355E-04    1.56      17.9  T
     SCC iter.                  ...        0 min,  1.366 sec
     gradient                   ...        0 min,  0.291 sec
 * total energy  :  -396.0823809 Eh     change       -0.4166941E-03 Eh
   gradient norm :     0.0063234 Eh/α   predicted    -0.3405111E-03 ( -18.28%)
   displ. norm   :     0.7268979 α      lambda       -0.5043074E-03
   maximum displ.:     0.3465819 α      in ANC's #4, #15, #18, ...

........................................................................
.............................. CYCLE   29 ..............................
........................................................................

 iter      E             dE          RMSdq      gap      omega  full diag
   1   -402.6575178 -0.402658E+03  0.350E-02    1.56       0.0  T
   2   -402.6575201 -0.226566E-05  0.206E-02    1.56       1.0  T
   3   -402.6575161  0.399033E-05  0.417E-03    1.57       1.5  T
   4   -402.6575205 -0.442701E-05  0.183E-03    1.56       3.5  T
   5   -402.6575210 -0.434184E-06  0.115E-03    1.56       5.5  T
   6   -402.6575211 -0.725685E-07  0.644E-04    1.56       9.9  T
   7   -402.6575211 -0.227811E-07  0.360E-04    1.56      17.6  T
     SCC iter.                  ...        0 min,  1.280 sec
     gradient                   ...        0 min,  0.286 sec
 * total energy  :  -396.0828428 Eh     change       -0.4619014E-03 Eh
   gradient norm :     0.0068060 Eh/α   predicted    -0.3853868E-03 ( -16.57%)
   displ. norm   :     0.7562766 α      lambda       -0.5529246E-03
   maximum displ.:     0.3657126 α      in ANC's #4, #15, #5, ...

........................................................................
.............................. CYCLE   30 ..............................
........................................................................

 iter      E             dE          RMSdq      gap      omega  full diag
   1   -402.6587072 -0.402659E+03  0.355E-02    1.56       0.0  T
   2   -402.6587094 -0.220472E-05  0.209E-02    1.56       1.0  T
   3   -402.6587030  0.639440E-05  0.496E-03    1.56       1.3  T
   4   -402.6587100 -0.700592E-05  0.193E-03    1.56       3.3  T
   5   -402.6587104 -0.364758E-06  0.130E-03    1.56       4.9  T
   6   -402.6587105 -0.148730E-06  0.726E-04    1.56       8.7  T
   7   -402.6587106 -0.434724E-07  0.377E-04    1.56      16.8  T
     SCC iter.                  ...        0 min,  1.612 sec
     gradient                   ...        0 min,  0.285 sec
 * total energy  :  -396.0833542 Eh     change       -0.5113479E-03 Eh
   gradient norm :     0.0056911 Eh/α   predicted    -0.4345859E-03 ( -15.01%)
   displ. norm   :     0.7818586 α      lambda       -0.6042347E-03
   maximum displ.:     0.3831841 α      in ANC's #4, #15, #5, ...

........................................................................
.............................. CYCLE   31 ..............................
........................................................................

 iter      E             dE          RMSdq      gap      omega  full diag
   1   -402.6599538 -0.402660E+03  0.368E-02    1.56       0.0  T
   2   -402.6599563 -0.256332E-05  0.216E-02    1.56       1.0  T
   3   -402.6599409  0.154343E-04  0.698E-03    1.56       1.0  T
   4   -402.6599576 -0.166815E-04  0.191E-03    1.56       3.3  T
   5   -402.6599581 -0.525326E-06  0.120E-03    1.56       5.3  T
   6   -402.6599582 -0.138507E-06  0.665E-04    1.56       9.5  T
   7   -402.6599583 -0.360101E-07  0.353E-04    1.56      18.0  T
     SCC iter.                  ...        0 min,  1.147 sec
     gradient                   ...        0 min,  0.282 sec
 * total energy  :  -396.0839165 Eh     change       -0.5623542E-03 Eh
   gradient norm :     0.0043244 Eh/α   predicted    -0.4868095E-03 ( -13.43%)
   displ. norm   :     0.8055820 α      lambda       -0.6496317E-03
   maximum displ.:     0.3987286 α      in ANC's #4, #15, #5, ...

........................................................................
.............................. CYCLE   32 ..............................
........................................................................

 iter      E             dE          RMSdq      gap      omega  full diag
   1   -402.6608087 -0.402661E+03  0.386E-02    1.56       0.0  T
   2   -402.6608117 -0.301540E-05  0.226E-02    1.56       1.0  T
   3   -402.6607863  0.253891E-04  0.863E-03    1.56       1.0  T
   4   -402.6608137 -0.273586E-04  0.190E-03    1.56       3.3  T
   5   -402.6608144 -0.753610E-06  0.101E-03    1.56       6.3  T
   6   -402.6608145 -0.107690E-06  0.548E-04    1.56      11.6  T
   7   -402.6608146 -0.278313E-07  0.301E-04    1.56      21.1  T
     SCC iter.                  ...        0 min,  1.657 sec
     gradient                   ...        0 min,  0.287 sec
 * total energy  :  -396.0845228 Eh     change       -0.6062326E-03 Eh
   gradient norm :     0.0049207 Eh/α   predicted    -0.5356337E-03 ( -11.65%)
   displ. norm   :     0.8241201 α      lambda       -0.6772430E-03
   maximum displ.:     0.4102981 α      in ANC's #4, #15, #5, ...

........................................................................
.............................. CYCLE   33 ..............................
........................................................................

 iter      E             dE          RMSdq      gap      omega  full diag
   1   -402.6611004 -0.402661E+03  0.397E-02    1.55       0.0  T
   2   -402.6611035 -0.307048E-05  0.233E-02    1.55       1.0  T
   3   -402.6610732  0.302641E-04  0.929E-03    1.56       1.0  T
   4   -402.6611057 -0.325104E-04  0.208E-03    1.56       3.1  T
   5   -402.6611066 -0.847416E-06  0.118E-03    1.56       5.4  T
   6   -402.6611067 -0.122599E-06  0.678E-04    1.56       9.4  T
   7   -402.6611067 -0.321629E-07  0.385E-04    1.56      16.5  T
     SCC iter.                  ...        0 min,  1.281 sec
     gradient                   ...        0 min,  0.320 sec
 * total energy  :  -396.0851558 Eh     change       -0.6329975E-03 Eh
   gradient norm :     0.0063139 Eh/α   predicted    -0.5686044E-03 ( -10.17%)
   displ. norm   :     0.8332732 α      lambda       -0.6894499E-03
   maximum displ.:     0.4168381 α      in ANC's #4, #15, #5, ...

........................................................................
.............................. CYCLE   34 ..............................
........................................................................

 iter      E             dE          RMSdq      gap      omega  full diag
   1   -402.6612300 -0.402661E+03  0.395E-02    1.55       0.0  T
   2   -402.6612328 -0.280903E-05  0.233E-02    1.55       1.0  T
   3   -402.6612048  0.280316E-04  0.891E-03    1.56       1.0  T
   4   -402.6612348 -0.300388E-04  0.221E-03    1.55       2.9  T
   5   -402.6612356 -0.765884E-06  0.139E-03    1.55       4.6  T
   6   -402.6612357 -0.139144E-06  0.820E-04    1.55       7.7  T
   7   -402.6612357 -0.408334E-07  0.455E-04    1.55      13.9  T
     SCC iter.                  ...        0 min,  1.547 sec
     gradient                   ...        0 min,  0.285 sec
 * total energy  :  -396.0858006 Eh     change       -0.6448226E-03 Eh
   gradient norm :     0.0065289 Eh/α   predicted    -0.5840830E-03 (  -9.42%)
   displ. norm   :     0.8362623 α      lambda       -0.6938983E-03
   maximum displ.:     0.4207938 α      in ANC's #4, #15, #5, ...

........................................................................
.............................. CYCLE   35 ..............................
........................................................................

 iter      E             dE          RMSdq      gap      omega  full diag
   1   -402.6617152 -0.402662E+03  0.383E-02    1.55       0.0  T
   2   -402.6617179 -0.270240E-05  0.225E-02    1.55       1.0  T
   3   -402.6616969  0.210604E-04  0.780E-03    1.56       1.0  T
   4   -402.6617194 -0.225576E-04  0.216E-03    1.56       2.9  T
   5   -402.6617201 -0.669962E-06  0.139E-03    1.56       4.6  T
   6   -402.6617202 -0.131953E-06  0.825E-04    1.56       7.7  T
   7   -402.6617203 -0.432927E-07  0.449E-04    1.56      14.1  T
     SCC iter.                  ...        0 min,  1.427 sec
     gradient                   ...        0 min,  0.291 sec
 * total energy  :  -396.0864470 Eh     change       -0.6463731E-03 Eh
   gradient norm :     0.0053554 Eh/α   predicted    -0.5895856E-03 (  -8.79%)
   displ. norm   :     0.8377889 α      lambda       -0.6841427E-03
   maximum displ.:     0.4247011 α      in ANC's #4, #15, #5, ...

........................................................................
.............................. CYCLE   36 ..............................
........................................................................

 iter      E             dE          RMSdq      gap      omega  full diag
   1   -402.6626484 -0.402663E+03  0.367E-02    1.56       0.0  T
   2   -402.6626513 -0.288931E-05  0.215E-02    1.56       1.0  T
   3   -402.6626373  0.139791E-04  0.657E-03    1.56       1.0  T
   4   -402.6626524 -0.151046E-04  0.191E-03    1.56       3.3  T
   5   -402.6626529 -0.561345E-06  0.118E-03    1.56       5.4  T
   6   -402.6626531 -0.100240E-06  0.719E-04    1.56       8.8  T
   7   -402.6626531 -0.397051E-07  0.394E-04    1.56      16.1  T
     SCC iter.                  ...        0 min,  1.343 sec
     gradient                   ...        0 min,  0.293 sec
 * total energy  :  -396.0870782 Eh     change       -0.6312390E-03 Eh
   gradient norm :     0.0040110 Eh/α   predicted    -0.5821696E-03 (  -7.77%)
   displ. norm   :     0.8362109 α      lambda       -0.6502089E-03
   maximum displ.:     0.4276565 α      in ANC's #4, #15, #1, ...

........................................................................
.............................. CYCLE   37 ..............................
........................................................................

 iter      E             dE          RMSdq      gap      omega  full diag
   1   -402.6639058 -0.402664E+03  0.352E-02    1.56       0.0  T
   2   -402.6639087 -0.287433E-05  0.206E-02    1.56       1.0  T
   3   -402.6638991  0.959214E-05  0.564E-03    1.56       1.1  T
   4   -402.6639097 -0.106379E-04  0.154E-03    1.56       4.1  T
   5   -402.6639101 -0.361293E-06  0.891E-04    1.56       7.1  T
   6   -402.6639102 -0.567593E-07  0.549E-04    1.56      11.6  T
     SCC iter.                  ...        0 min,  1.477 sec
     gradient                   ...        0 min,  0.304 sec
 * total energy  :  -396.0876708 Eh     change       -0.5926221E-03 Eh
   gradient norm :     0.0040808 Eh/α   predicted    -0.5524364E-03 (  -6.78%)
   displ. norm   :     0.8261833 α      lambda       -0.5946344E-03
   maximum displ.:     0.4266321 α      in ANC's #4, #15, #1, ...

........................................................................
.............................. CYCLE   38 ..............................
........................................................................

 iter      E             dE          RMSdq      gap      omega  full diag
   1   -402.6650934 -0.402665E+03  0.339E-02    1.56       0.0  T
   2   -402.6650958 -0.245583E-05  0.198E-02    1.56       1.0  T
   3   -402.6650891  0.672363E-05  0.487E-03    1.56       1.3  T
   4   -402.6650967 -0.757485E-05  0.133E-03    1.56       4.8  T
   5   -402.6650970 -0.258320E-06  0.775E-04    1.56       8.2  T
   6   -402.6650970 -0.538120E-07  0.454E-04    1.56      14.0  T
     SCC iter.                  ...        0 min,  1.308 sec
     gradient                   ...        0 min,  0.316 sec
 * total energy  :  -396.0882065 Eh     change       -0.5357019E-03 Eh
   gradient norm :     0.0046229 Eh/α   predicted    -0.5002655E-03 (  -6.61%)
   displ. norm   :     0.7973171 α      lambda       -0.5307230E-03
   maximum displ.:     0.4163200 α      in ANC's #4, #15, #1, ...

........................................................................
.............................. CYCLE   39 ..............................
........................................................................

 iter      E             dE          RMSdq      gap      omega  full diag
   1   -402.6668224 -0.402667E+03  0.327E-02    1.56       0.0  T
   2   -402.6668245 -0.208612E-05  0.192E-02    1.56       1.0  T
   3   -402.6668192  0.533755E-05  0.445E-03    1.56       1.4  T
   4   -402.6668253 -0.613800E-05  0.120E-03    1.56       5.3  T
   5   -402.6668255 -0.174149E-06  0.725E-04    1.56       8.8  T
   6   -402.6668255 -0.395121E-07  0.400E-04    1.56      15.9  T
     SCC iter.                  ...        0 min,  1.260 sec
     gradient                   ...        0 min,  0.308 sec
 * total energy  :  -396.0886770 Eh     change       -0.4704692E-03 Eh
   gradient norm :     0.0045230 Eh/α   predicted    -0.4340572E-03 (  -7.74%)
   displ. norm   :     0.7610739 α      lambda       -0.4683009E-03
   maximum displ.:     0.4009194 α      in ANC's #4, #15, #1, ...

........................................................................
.............................. CYCLE   40 ..............................
........................................................................

 iter      E             dE          RMSdq      gap      omega  full diag
   1   -402.6671236 -0.402667E+03  0.323E-02    1.55       0.0  T
   2   -402.6671258 -0.214952E-05  0.189E-02    1.55       1.0  T
   3   -402.6671193  0.649107E-05  0.475E-03    1.55       1.3  T
   4   -402.6671266 -0.727354E-05  0.123E-03    1.55       5.2  T
   5   -402.6671268 -0.257235E-06  0.691E-04    1.55       9.2  T
   6   -402.6671269 -0.396263E-07  0.386E-04    1.55      16.4  T
     SCC iter.                  ...        0 min,  1.730 sec
     gradient                   ...        0 min,  0.298 sec
 * total energy  :  -396.0890867 Eh     change       -0.4096732E-03 Eh
   gradient norm :     0.0041126 Eh/α   predicted    -0.3697794E-03 (  -9.74%)
   displ. norm   :     0.7208320 α      lambda       -0.4526219E-03
   maximum displ.:     0.3766500 α      in ANC's #4, #15, #1, ...

........................................................................
.............................. CYCLE   41 ..............................
........................................................................

 iter      E             dE          RMSdq      gap      omega  full diag
   1   -402.6716496 -0.402672E+03  0.378E-02    1.56       0.0  T
   2   -402.6716578 -0.812950E-05  0.224E-02    1.56       1.0  T
   3   -402.6716451  0.126428E-04  0.710E-03    1.56       1.0  T
   4   -402.6716591 -0.139425E-04  0.195E-03    1.56       3.3  T
   5   -402.6716601 -0.101731E-05  0.938E-04    1.56       6.8  T
   6   -402.6716602 -0.161857E-06  0.522E-04    1.56      12.2  T
   7   -402.6716603 -0.260842E-07  0.283E-04    1.56      22.5  T
     SCC iter.                  ...        0 min,  1.115 sec
     gradient                   ...        0 min,  0.280 sec
 * total energy  :  -396.0894425 Eh     change       -0.3557867E-03 Eh
   gradient norm :     0.0083683 Eh/α   predicted    -0.3439060E-03 (  -3.34%)
   displ. norm   :     0.6970128 α      lambda       -0.4611326E-03
   maximum displ.:     0.3653075 α      in ANC's #4, #15, #1, ...

........................................................................
.............................. CYCLE   42 ..............................
........................................................................

 iter      E             dE          RMSdq      gap      omega  full diag
   1   -402.6682783 -0.402668E+03  0.366E-02    1.55       0.0  T
   2   -402.6682865 -0.818561E-05  0.215E-02    1.55       1.0  T
   3   -402.6682746  0.119158E-04  0.674E-03    1.55       1.0  T
   4   -402.6682874 -0.128313E-04  0.206E-03    1.55       3.1  T
   5   -402.6682888 -0.135978E-05  0.802E-04    1.55       7.9  T
   6   -402.6682888 -0.848554E-07  0.474E-04    1.55      13.4  T
   7   -402.6682889 -0.137444E-07  0.248E-04    1.55      25.6  T
     SCC iter.                  ...        0 min,  1.683 sec
     gradient                   ...        0 min,  0.299 sec
 * total energy  :  -396.0898033 Eh     change       -0.3608846E-03 Eh
   gradient norm :     0.0056322 Eh/α   predicted    -0.3425821E-03 (  -5.07%)
   displ. norm   :     0.6438465 α      lambda       -0.3739936E-03
   maximum displ.:     0.3293073 α      in ANC's #4, #15, #1, ...
 * RMSD in coord.:     0.8751934 α      energy gain  -0.9683050E-02 Eh

generating ANC from model Hessian ...
Using Lindh-Hessian (1995)
 Shifting diagonal of input Hessian by    1.0036557197398576E-002
 Lowest  eigenvalues of input Hessian
    0.010000    0.010023    0.010036    0.000000    0.000000    0.000000
    0.000000    0.000000    0.000000    0.010052    0.010070    0.010078
    0.010102    0.010120    0.010137    0.010144    0.010171    0.010187
 Highest eigenvalues
    2.300316    2.303507    2.525642    2.527614    2.530074    2.533800


........................................................................
.............................. CYCLE   43 ..............................
........................................................................

 iter      E             dE          RMSdq      gap      omega  full diag
   1   -402.6674518 -0.402667E+03  0.397E-02    1.55       0.0  T
   2   -402.6674537 -0.193048E-05  0.233E-02    1.55       1.0  T
   3   -402.6674490  0.465571E-05  0.423E-03    1.55       1.5  T
   4   -402.6674543 -0.525454E-05  0.125E-03    1.55       5.1  T
   5   -402.6674545 -0.161064E-06  0.846E-04    1.55       7.5  T
   6   -402.6674545 -0.604491E-07  0.523E-04    1.55      12.1  T
     SCC iter.                  ...        0 min,  1.325 sec
     gradient                   ...        0 min,  0.289 sec
 * total energy  :  -396.0901335 Eh     change       -0.3301713E-03 Eh
   gradient norm :     0.0057098 Eh/α   predicted     0.0000000E+00 (-100.00%)
   displ. norm   :     0.0821938 α      lambda       -0.9143524E-04
   maximum displ.:     0.0355015 α      in ANC's #44, #4, #33, ...

........................................................................
.............................. CYCLE   44 ..............................
........................................................................

 iter      E             dE          RMSdq      gap      omega  full diag
   1   -402.6680043 -0.402668E+03  0.102E-02    1.55       0.0  T
   2   -402.6680049 -0.592284E-06  0.611E-03    1.55       1.0  T
   3   -402.6680033  0.156629E-05  0.247E-03    1.55       2.6  T
   4   -402.6680050 -0.167431E-05  0.917E-04    1.55       6.9  T
   5   -402.6680051 -0.146523E-06  0.560E-04    1.55      11.3  T
   6   -402.6680051 -0.234013E-08  0.362E-04    1.55      17.6  T
     SCC iter.                  ...        0 min,  1.123 sec
     gradient                   ...        0 min,  0.278 sec
 * total energy  :  -396.0902370 Eh     change       -0.1034982E-03 Eh
   gradient norm :     0.0026676 Eh/α   predicted    -0.6074374E-04 ( -41.31%)
   displ. norm   :     0.3026621 α      lambda       -0.3011054E-03
   maximum displ.:     0.1323813 α      in ANC's #44, #4, #33, ...

........................................................................
.............................. CYCLE   45 ..............................
........................................................................

 iter      E             dE          RMSdq      gap      omega  full diag
   1   -402.6681565 -0.402668E+03  0.341E-02    1.56       0.0  T
   2   -402.6681591 -0.265761E-05  0.201E-02    1.56       1.0  T
   3   -402.6681473  0.118189E-04  0.607E-03    1.56       1.0  T
   4   -402.6681597 -0.123438E-04  0.177E-03    1.56       3.6  T
   5   -402.6681605 -0.889447E-06  0.861E-04    1.56       7.4  T
   6   -402.6681606 -0.487285E-07  0.578E-04    1.56      11.0  T
     SCC iter.                  ...        0 min,  1.037 sec
     gradient                   ...        0 min,  0.301 sec
 * total energy  :  -396.0904414 Eh     change       -0.2044078E-03 Eh
   gradient norm :     0.0047667 Eh/α   predicted    -0.1643488E-03 ( -19.60%)
   displ. norm   :     0.2689028 α      lambda       -0.1521936E-03
   maximum displ.:     0.1129532 α      in ANC's #44, #4, #3, ...

........................................................................
.............................. CYCLE   46 ..............................
........................................................................

 iter      E             dE          RMSdq      gap      omega  full diag
   1   -402.6677518 -0.402668E+03  0.282E-02    1.56       0.0  T
   2   -402.6677525 -0.712236E-06  0.166E-02    1.56       1.0  T
   3   -402.6677470  0.549017E-05  0.397E-03    1.56       1.6  T
   4   -402.6677528 -0.580415E-05  0.924E-04    1.56       6.9  T
   5   -402.6677531 -0.237877E-06  0.469E-04    1.56      13.5  T
   6   -402.6677531 -0.239857E-07  0.273E-04    1.56      23.3  T
     SCC iter.                  ...        0 min,  1.459 sec
     gradient                   ...        0 min,  0.302 sec
 * total energy  :  -396.0905652 Eh     change       -0.1237515E-03 Eh
   gradient norm :     0.0064072 Eh/α   predicted    -0.8159944E-04 ( -34.06%)
   displ. norm   :     0.4172358 α      lambda       -0.2287754E-03
   maximum displ.:     0.1633167 α      in ANC's #4, #44, #5, ...

........................................................................
.............................. CYCLE   47 ..............................
........................................................................

 iter      E             dE          RMSdq      gap      omega  full diag
   1   -402.6670367 -0.402667E+03  0.418E-02    1.56       0.0  T
   2   -402.6670381 -0.136577E-05  0.245E-02    1.56       1.0  T
   3   -402.6670297  0.832763E-05  0.498E-03    1.56       1.3  T
   4   -402.6670387 -0.899333E-05  0.110E-03    1.56       5.8  T
   5   -402.6670390 -0.251449E-06  0.633E-04    1.56      10.0  T
   6   -402.6670390 -0.490905E-07  0.352E-04    1.56      18.0  T
     SCC iter.                  ...        0 min,  1.053 sec
     gradient                   ...        0 min,  0.295 sec
 * total energy  :  -396.0907536 Eh     change       -0.1884675E-03 Eh
   gradient norm :     0.0057800 Eh/α   predicted    -0.1343013E-03 ( -28.74%)
   displ. norm   :     0.5002105 α      lambda       -0.2631237E-03
   maximum displ.:     0.2071763 α      in ANC's #4, #44, #5, ...

........................................................................
.............................. CYCLE   48 ..............................
........................................................................

 iter      E             dE          RMSdq      gap      omega  full diag
   1   -402.6665273 -0.402667E+03  0.472E-02    1.56       0.0  T
   2   -402.6665295 -0.225315E-05  0.277E-02    1.56       1.0  T
   3   -402.6665200  0.953986E-05  0.542E-03    1.56       1.2  T
   4   -402.6665302 -0.102389E-04  0.134E-03    1.56       4.8  T
   5   -402.6665307 -0.425270E-06  0.724E-04    1.56       8.8  T
   6   -402.6665307 -0.744743E-07  0.414E-04    1.56      15.3  T
     SCC iter.                  ...        0 min,  1.452 sec
     gradient                   ...        0 min,  0.285 sec
 * total energy  :  -396.0909676 Eh     change       -0.2140002E-03 Eh
   gradient norm :     0.0035908 Eh/α   predicted    -0.1644845E-03 ( -23.14%)
   displ. norm   :     0.5133758 α      lambda       -0.2390795E-03
   maximum displ.:     0.2245603 α      in ANC's #4, #5, #3, ...

........................................................................
.............................. CYCLE   49 ..............................
........................................................................

 iter      E             dE          RMSdq      gap      omega  full diag
   1   -402.6667599 -0.402667E+03  0.444E-02    1.56       0.0  T
   2   -402.6667622 -0.227882E-05  0.260E-02    1.56       1.0  T
   3   -402.6667555  0.666103E-05  0.466E-03    1.56       1.4  T
   4   -402.6667626 -0.714555E-05  0.126E-03    1.56       5.0  T
   5   -402.6667631 -0.413147E-06  0.638E-04    1.56      10.0  T
   6   -402.6667631 -0.667106E-07  0.354E-04    1.56      17.9  T
     SCC iter.                  ...        0 min,  1.123 sec
     gradient                   ...        0 min,  0.285 sec
 * total energy  :  -396.0911631 Eh     change       -0.1955083E-03 Eh
   gradient norm :     0.0032868 Eh/α   predicted    -0.1510482E-03 ( -22.74%)
   displ. norm   :     0.5157001 α      lambda       -0.2180573E-03
   maximum displ.:     0.2349983 α      in ANC's #4, #5, #3, ...

........................................................................
.............................. CYCLE   50 ..............................
........................................................................

 iter      E             dE          RMSdq      gap      omega  full diag
   1   -402.6674889 -0.402667E+03  0.399E-02    1.56       0.0  T
   2   -402.6674906 -0.170028E-05  0.234E-02    1.56       1.0  T
   3   -402.6674874  0.320800E-05  0.346E-03    1.56       1.8  T
   4   -402.6674910 -0.360369E-05  0.107E-03    1.56       6.0  T
   5   -402.6674912 -0.200620E-06  0.603E-04    1.56      10.5  T
   6   -402.6674913 -0.177977E-07  0.397E-04    1.56      16.0  T
     SCC iter.                  ...        0 min,  0.896 sec
     gradient                   ...        0 min,  0.281 sec
 * total energy  :  -396.0913497 Eh     change       -0.1865663E-03 Eh
   gradient norm :     0.0045240 Eh/α   predicted    -0.1380414E-03 ( -26.01%)
   displ. norm   :     0.5514650 α      lambda       -0.2424083E-03
   maximum displ.:     0.2587013 α      in ANC's #4, #5, #3, ...

........................................................................
.............................. CYCLE   51 ..............................
........................................................................

 iter      E             dE          RMSdq      gap      omega  full diag
   1   -402.6686639 -0.402669E+03  0.374E-02    1.56       0.0  T
   2   -402.6686653 -0.138033E-05  0.219E-02    1.56       1.0  T
   3   -402.6686633  0.200725E-05  0.298E-03    1.56       2.1  T
   4   -402.6686657 -0.239260E-05  0.109E-03    1.56       5.8  T
   5   -402.6686658 -0.105049E-06  0.696E-04    1.56       9.1  T
   6   -402.6686658 -0.130842E-07  0.453E-04    1.56      14.0  T
     SCC iter.                  ...        0 min,  1.242 sec
     gradient                   ...        0 min,  0.282 sec
 * total energy  :  -396.0915655 Eh     change       -0.2157569E-03 Eh
   gradient norm :     0.0051168 Eh/α   predicted    -0.1580644E-03 ( -26.74%)
   displ. norm   :     0.6253028 α      lambda       -0.3004441E-03
   maximum displ.:     0.2983941 α      in ANC's #4, #5, #3, ...

........................................................................
.............................. CYCLE   52 ..............................
........................................................................

 iter      E             dE          RMSdq      gap      omega  full diag
   1   -402.6698850 -0.402670E+03  0.369E-02    1.56       0.0  T
   2   -402.6698864 -0.141133E-05  0.216E-02    1.56       1.0  T
   3   -402.6698789  0.750892E-05  0.476E-03    1.56       1.3  T
   4   -402.6698869 -0.801116E-05  0.145E-03    1.56       4.4  T
   5   -402.6698873 -0.367430E-06  0.877E-04    1.56       7.2  T
   6   -402.6698874 -0.567393E-07  0.492E-04    1.56      12.9  T
     SCC iter.                  ...        0 min,  1.098 sec
     gradient                   ...        0 min,  0.306 sec
 * total energy  :  -396.0918371 Eh     change       -0.2716835E-03 Eh
   gradient norm :     0.0047568 Eh/α   predicted    -0.2089628E-03 ( -23.09%)
   displ. norm   :     0.7038506 α      lambda       -0.3564171E-03
   maximum displ.:     0.3384205 α      in ANC's #4, #5, #3, ...

........................................................................
.............................. CYCLE   53 ..............................
........................................................................

 iter      E             dE          RMSdq      gap      omega  full diag
   1   -402.6704529 -0.402670E+03  0.371E-02    1.56       0.0  T
   2   -402.6704546 -0.171348E-05  0.218E-02    1.56       1.0  T
   3   -402.6704404  0.142594E-04  0.633E-03    1.56       1.0  T
   4   -402.6704556 -0.151689E-04  0.157E-03    1.56       4.1  T
   5   -402.6704561 -0.536788E-06  0.881E-04    1.56       7.2  T
   6   -402.6704562 -0.624716E-07  0.473E-04    1.56      13.4  T
     SCC iter.                  ...        0 min,  1.568 sec
     gradient                   ...        0 min,  0.287 sec
 * total energy  :  -396.0921606 Eh     change       -0.3235000E-03 Eh
   gradient norm :     0.0039915 Eh/α   predicted    -0.2664946E-03 ( -17.62%)
   displ. norm   :     0.7470169 α      lambda       -0.3869312E-03
   maximum displ.:     0.3605051 α      in ANC's #4, #5, #3, ...

........................................................................
.............................. CYCLE   54 ..............................
........................................................................

 iter      E             dE          RMSdq      gap      omega  full diag
   1   -402.6708162 -0.402671E+03  0.358E-02    1.56       0.0  T
   2   -402.6708180 -0.176843E-05  0.210E-02    1.56       1.0  T
   3   -402.6707986  0.193144E-04  0.725E-03    1.56       1.0  T
   4   -402.6708192 -0.205893E-04  0.158E-03    1.56       4.0  T
   5   -402.6708198 -0.595521E-06  0.848E-04    1.56       7.5  T
   6   -402.6708199 -0.678934E-07  0.434E-04    1.56      14.6  T
     SCC iter.                  ...        0 min,  1.184 sec
     gradient                   ...        0 min,  0.324 sec
 * total energy  :  -396.0925113 Eh     change       -0.3506138E-03 Eh
   gradient norm :     0.0040908 Eh/α   predicted    -0.3014262E-03 ( -14.03%)
   displ. norm   :     0.7679198 α      lambda       -0.3944029E-03
   maximum displ.:     0.3715126 α      in ANC's #4, #5, #3, ...

........................................................................
.............................. CYCLE   55 ..............................
........................................................................

 iter      E             dE          RMSdq      gap      omega  full diag
   1   -402.6709016 -0.402671E+03  0.342E-02    1.56       0.0  T
   2   -402.6709032 -0.154474E-05  0.201E-02    1.56       1.0  T
   3   -402.6708857  0.175005E-04  0.690E-03    1.56       1.0  T
   4   -402.6709044 -0.186894E-04  0.148E-03    1.56       4.3  T
   5   -402.6709049 -0.496150E-06  0.821E-04    1.56       7.7  T
   6   -402.6709049 -0.696346E-07  0.408E-04    1.56      15.6  T
     SCC iter.                  ...        0 min,  1.254 sec
     gradient                   ...        0 min,  0.302 sec
 * total energy  :  -396.0928676 Eh     change       -0.3562961E-03 Eh
   gradient norm :     0.0046996 Eh/α   predicted    -0.3134915E-03 ( -12.01%)
   displ. norm   :     0.7762413 α      lambda       -0.3860960E-03
   maximum displ.:     0.3776180 α      in ANC's #4, #5, #3, ...

........................................................................
.............................. CYCLE   56 ..............................
........................................................................

 iter      E             dE          RMSdq      gap      omega  full diag
   1   -402.6709054 -0.402671E+03  0.317E-02    1.56       0.0  T
   2   -402.6709068 -0.139106E-05  0.186E-02    1.56       1.0  T
   3   -402.6708963  0.105248E-04  0.551E-03    1.56       1.2  T
   4   -402.6709075 -0.112099E-04  0.137E-03    1.56       4.6  T
   5   -402.6709079 -0.419948E-06  0.783E-04    1.56       8.1  T
   6   -402.6709080 -0.721126E-07  0.387E-04    1.56      16.4  T
     SCC iter.                  ...        0 min,  1.483 sec
     gradient                   ...        0 min,  0.307 sec
 * total energy  :  -396.0932145 Eh     change       -0.3469022E-03 Eh
   gradient norm :     0.0046205 Eh/α   predicted    -0.3093811E-03 ( -10.82%)
   displ. norm   :     0.7803011 α      lambda       -0.3659871E-03
   maximum displ.:     0.3830717 α      in ANC's #4, #5, #3, ...

........................................................................
.............................. CYCLE   57 ..............................
........................................................................

 iter      E             dE          RMSdq      gap      omega  full diag
   1   -402.6707992 -0.402671E+03  0.288E-02    1.56       0.0  T
   2   -402.6708007 -0.150756E-05  0.169E-02    1.56       1.0  T
   3   -402.6707961  0.463114E-05  0.406E-03    1.56       1.6  T
   4   -402.6708011 -0.497462E-05  0.122E-03    1.56       5.2  T
   5   -402.6708014 -0.309755E-06  0.733E-04    1.56       8.7  T
[...]
    25   6 C       26   6 C                                       1.4027362
    22   6 C       27   6 C                                       1.4062221
    26   6 C       27   6 C                                       1.3691650
    21   6 C       28   6 C                                       1.3990921
    25   6 C       28   6 C                                       1.3799927
    29   6 C       31   7 N                                       1.3181999
    31   7 N       32   7 N                                       1.3517496
    32   7 N       33   6 C                                       1.3911316
    33   6 C       34   7 N                                       1.3889522
    29   6 C       35   7 N                                       1.3198420
    34   7 N       35   7 N                                       1.3509520
    33   6 C       36   8 O                                       1.2100508
    30   6 C       37   7 N                                       1.3169388
    37   7 N       38   7 N                                       1.3521115
    38   7 N       39   6 C                                       1.3934861
    39   6 C       40   7 N                                       1.3915040
    30   6 C       41   7 N                                       1.3182486
    40   7 N       41   7 N                                       1.3485339
    39   6 C       42   8 O                                       1.2103312
    12   6 C       43   7 N                                       1.3745017
    16   6 C       43   7 N                                       1.3735866
    44  14 Si      45   6 C                                       1.9153386 (max)
    45   6 C       46   6 C                                       1.5172247
    46   6 C       47   8 O                                       1.4112184
    44  14 Si      48   6 C                                       1.9083884
    44  14 Si      49   6 C                                       1.9067418
    44  14 Si      50   6 C                                       1.9085064
    43   7 N       51   6 C                                       1.4243690
    47   8 O       51   6 C                                       1.4047626
    32   7 N       52   6 C                                       1.4059445
    52   6 C       53   6 C                                       1.3958852
    53   6 C       54   6 C                                       1.3789738
    54   6 C       55   6 C                                       1.3859406
    55   6 C       56   6 C                                       1.3848532
    52   6 C       57   6 C                                       1.3930697
    56   6 C       57   6 C                                       1.3826116
    34   7 N       58   6 C                                       1.4089972
    58   6 C       59   6 C                                       1.3915832
    59   6 C       60   6 C                                       1.3828320
    60   6 C       61   6 C                                       1.3850380
    61   6 C       62   6 C                                       1.3858755
    58   6 C       63   6 C                                       1.3945767
    62   6 C       63   6 C                                       1.3797193
    40   7 N       64   6 C                                       1.4073616
    64   6 C       65   6 C                                       1.3931159
    65   6 C       66   6 C                                       1.3828986
    66   6 C       67   6 C                                       1.3835214
    67   6 C       68   6 C                                       1.3856608
    64   6 C       69   6 C                                       1.3982373
    68   6 C       69   6 C                                       1.3774882
    38   7 N       70   6 C                                       1.4073479
    70   6 C       71   6 C                                       1.3972194
    71   6 C       72   6 C                                       1.3795545
    72   6 C       73   6 C                                       1.3856378
    73   6 C       74   6 C                                       1.3843992
    70   6 C       75   6 C                                       1.3945006
    74   6 C       75   6 C                                       1.3823339
    63   6 C       76   1 H                                       1.0778171
    62   6 C       77   1 H                                       1.0796439
    61   6 C       78   1 H                                       1.0797250
    60   6 C       79   1 H                                       1.0796715
    59   6 C       80   1 H                                       1.0768703
    57   6 C       81   1 H                                       1.0763166
    56   6 C       82   1 H                                       1.0797654
    55   6 C       83   1 H                                       1.0797505
    54   6 C       84   1 H                                       1.0799461
    53   6 C       85   1 H                                       1.0766661
    49   6 C       86   1 H                                       1.0861860
    49   6 C       87   1 H                                       1.0856920
    49   6 C       88   1 H                                       1.0861000
    48   6 C       89   1 H                                       1.0861731
    48   6 C       90   1 H                                       1.0853748
    48   6 C       91   1 H                                       1.0863199
    50   6 C       92   1 H                                       1.0858473
    50   6 C       93   1 H                                       1.0860025
    50   6 C       94   1 H                                       1.0857576
    45   6 C       95   1 H                                       1.0905635
    45   6 C       96   1 H                                       1.0900272
    46   6 C       97   1 H                                       1.1005464
    46   6 C       98   1 H                                       1.1008325
    51   6 C       99   1 H                                       1.1069998
    51   6 C      100   1 H                                       1.1006264
    13   6 C      101   1 H                                       1.0794412
    14   6 C      102   1 H                                       1.0797623
     9   6 C      103   1 H                                       1.0804652
    10   6 C      104   1 H                                       1.0805606
    71   6 C      105   1 H                                       1.0772419
    72   6 C      106   1 H                                       1.0802066
    73   6 C      107   1 H                                       1.0792779
    74   6 C      108   1 H                                       1.0797172
    75   6 C      109   1 H                                       1.0757687
    65   6 C      110   1 H                                       1.0752916
    66   6 C      111   1 H                                       1.0796413
    67   6 C      112   1 H                                       1.0796747
    68   6 C      113   1 H                                       1.0801859
    69   6 C      114   1 H                                       1.0760067
    19   6 C      115   1 H                                       1.0800012
    20   6 C      116   1 H                                       1.0784094
     1   6 C      117   1 H                                       1.0814936
     2   6 C      118   1 H                                       1.0776471
     4   6 C      119   1 H                                       1.0753359
    28   6 C      120   1 H                                       1.0760763
    26   6 C      121   1 H                                       1.0783879
    27   6 C      122   1 H                                       1.0815671
    23   6 C      123   1 H                                       1.0810661
    24   6 C      124   1 H                                       1.0808392
   125   6 C      126   6 C                                       1.3693283
   126   6 C      127   6 C                                       1.4022754
   127   6 C      128   6 C                                       1.3801385
   128   6 C      129   6 C                                       1.3989329
   125   6 C      130   6 C                                       1.4060911
   129   6 C      130   6 C                                       1.4161773
   131   6 C      132   6 C                                       1.4148420
   132   6 C      133   6 C                                       1.4225586
   130   6 C      134   6 C                                       1.4197693
   133   6 C      134   6 C                                       1.3540294
   131   6 C      135   6 C                                       1.4222828
   135   6 C      136   6 C                                       1.4141249
   136   6 C      137   6 C                                       1.3962962
   132   6 C      138   6 C                                       1.4093770
   137   6 C      138   6 C                                       1.3671117
   139   6 C      140   6 C                                       1.4136055
   139   6 C      141   6 C                                       1.4217400
   141   6 C      142   6 C                                       1.4149454
   142   6 C      143   6 C                                       1.4096120
   140   6 C      144   6 C                                       1.3954134
   143   6 C      144   6 C                                       1.3665990
   145   6 C      146   6 C                                       1.4158431
   146   6 C      147   6 C                                       1.4191595
   142   6 C      148   6 C                                       1.4225641
   147   6 C      148   6 C                                       1.3541619
   149   6 C      150   6 C                                       1.4028833
   146   6 C      151   6 C                                       1.4064516
   150   6 C      151   6 C                                       1.3686523
   145   6 C      152   6 C                                       1.3984416
   149   6 C      152   6 C                                       1.3793608
   153   6 C      155   7 N                                       1.3181018
   155   7 N      156   7 N                                       1.3480852
   156   7 N      157   6 C                                       1.3897653
   157   6 C      158   7 N                                       1.3913037
   153   6 C      159   7 N                                       1.3166815
   158   7 N      159   7 N                                       1.3524857
   157   6 C      160   8 O                                       1.2105664
   154   6 C      161   7 N                                       1.3197033
   161   7 N      162   7 N                                       1.3513717
   162   7 N      163   6 C                                       1.3892465
   163   6 C      164   7 N                                       1.3910184
   154   6 C      165   7 N                                       1.3178896
   164   7 N      165   7 N                                       1.3516413
   163   6 C      166   8 O                                       1.2103614
   136   6 C      167   7 N                                       1.3742229
   140   6 C      167   7 N                                       1.3725119
   168  14 Si     169   6 C                                       1.9153016
   169   6 C      170   6 C                                       1.5160823
   170   6 C      171   8 O                                       1.4134422
   168  14 Si     172   6 C                                       1.9058763
   168  14 Si     173   6 C                                       1.9092652
   168  14 Si     174   6 C                                       1.9098316
   167   7 N      175   6 C                                       1.4244744
   171   8 O      175   6 C                                       1.4046212
   156   7 N      176   6 C                                       1.4078428
   176   6 C      177   6 C                                       1.3967319
   177   6 C      178   6 C                                       1.3776256
   178   6 C      179   6 C                                       1.3856231
   179   6 C      180   6 C                                       1.3836483
   176   6 C      181   6 C                                       1.3921899
   180   6 C      181   6 C                                       1.3828209
   158   7 N      182   6 C                                       1.4088567
   182   6 C      183   6 C                                       1.3927013
   183   6 C      184   6 C                                       1.3835980
   184   6 C      185   6 C                                       1.3841208
   185   6 C      186   6 C                                       1.3861799
   182   6 C      187   6 C                                       1.3976538
   186   6 C      187   6 C                                       1.3788142
   164   7 N      188   6 C                                       1.4060230
   188   6 C      189   6 C                                       1.3930608
   189   6 C      190   6 C                                       1.3825789
   190   6 C      191   6 C                                       1.3849039
   191   6 C      192   6 C                                       1.3859657
   188   6 C      193   6 C                                       1.3958757
   192   6 C      193   6 C                                       1.3790714
   162   7 N      194   6 C                                       1.4090950
   194   6 C      195   6 C                                       1.3951383
   195   6 C      196   6 C                                       1.3794861
   196   6 C      197   6 C                                       1.3858883
   197   6 C      198   6 C                                       1.3849048
   194   6 C      199   6 C                                       1.3918267
   198   6 C      199   6 C                                       1.3829851
   187   6 C      200   1 H                                       1.0776748
   186   6 C      201   1 H                                       1.0802304
   185   6 C      202   1 H                                       1.0796158
   184   6 C      203   1 H                                       1.0797807
   183   6 C      204   1 H                                       1.0755873
   181   6 C      205   1 H                                       1.0756024
   180   6 C      206   1 H                                       1.0800573
   179   6 C      207   1 H                                       1.0797083
   178   6 C      208   1 H                                       1.0789355
   177   6 C      209   1 H                                       1.0769488
   173   6 C      210   1 H                                       1.0856995
   173   6 C      211   1 H                                       1.0857493
   173   6 C      212   1 H                                       1.0859808
   172   6 C      213   1 H                                       1.0854895
   172   6 C      214   1 H                                       1.0851750
   172   6 C      215   1 H                                       1.0854968
   174   6 C      216   1 H                                       1.0860645
   174   6 C      217   1 H                                       1.0859613
   174   6 C      218   1 H                                       1.0857456
   169   6 C      219   1 H                                       1.0893206
   169   6 C      220   1 H                                       1.0898576
   170   6 C      221   1 H                                       1.0997507
   170   6 C      222   1 H                                       1.1003730
   175   6 C      223   1 H                                       1.1039030
   175   6 C      224   1 H                                       1.1021964
   137   6 C      225   1 H                                       1.0792492
   138   6 C      226   1 H                                       1.0799288
   133   6 C      227   1 H                                       1.0807708
   134   6 C      228   1 H                                       1.0811226
   195   6 C      229   1 H                                       1.0776722
   196   6 C      230   1 H                                       1.0795830
   197   6 C      231   1 H                                       1.0796866
   198   6 C      232   1 H                                       1.0797453
   199   6 C      233   1 H                                       1.0767180
   189   6 C      234   1 H                                       1.0763375
   190   6 C      235   1 H                                       1.0798025
   191   6 C      236   1 H                                       1.0797502
   192   6 C      237   1 H                                       1.0797621
Note: The following floating-point exceptions are signalling: IEEE_UNDERFLOW_FLAG
normal termination of xtb
   193   6 C      238   1 H                                       1.0766880
   143   6 C      239   1 H                                       1.0798297
   144   6 C      240   1 H                                       1.0786977
   125   6 C      241   1 H                                       1.0815570
   126   6 C      242   1 H                                       1.0783199
   128   6 C      243   1 H                                       1.0758945
   152   6 C      244   1 H                                       1.0743901 (min)
   150   6 C      245   1 H                                       1.0786945
   151   6 C      246   1 H                                       1.0812078
   147   6 C      247   1 H                                       1.0808396
   148   6 C      248   1 H                                       1.0805375

 * 6 distinct bonds (by element types)

   Z      Z             #   av. dist./Å        max./Å        min./Å
   1 H    6 C          98     1.0824590     1.1069998     1.0743901
   6 C    6 C         111     1.3964124     1.5172247     1.3540294
   6 C    7 N          30     1.3759049     1.4244744     1.3166815
   7 N    7 N           8     1.3508664     1.3524857     1.3480852
   6 C    8 O           8     1.3094193     1.4134422     1.2100508
   6 C   14 Si          8     1.9099062     1.9153386     1.9058763


optimized geometry written to: xtbopt.mol


           -------------------------------------------------
          | TOTAL ENERGY             -396.106287150393 Eh   |
          | GRADIENT NORM               0.000506274601 Eh/α |
          | HOMO-LUMO GAP               1.539446318451 eV   |
           -------------------------------------------------
########################################################################
[WARNING] Runtime exception occurred
-3- restart_readRestart: Dimension missmatch in restart file.
-2- restart_readRestart: Multiplicity missmatch in restart file.
-1- restart_readRestart: Number of electron missmatch in restart file.
########################################################################

------------------------------------------------------------------------
 * finished run on 2024/11/14 at 14:30:29.822     
------------------------------------------------------------------------
 total:
 * wall-time:     0 d,  0 h,  6 min, 55.753 sec
 *  cpu-time:     0 d,  0 h, 27 min,  4.965 sec
 * ratio c/w:     3.908 speedup
 SCF:
 * wall-time:     0 d,  0 h,  0 min,  3.332 sec
 *  cpu-time:     0 d,  0 h,  0 min, 13.008 sec
 * ratio c/w:     3.904 speedup
 ANC optimizer:
 * wall-time:     0 d,  0 h,  6 min, 52.349 sec
 *  cpu-time:     0 d,  0 h, 26 min, 51.837 sec
 * ratio c/w:     3.909 speedup

