      -----------------------------------------------------------      
     |                   =====================                   |     
     |                           x T B                           |     
     |                   =====================                   |     
     |                         S. Grimme                         |     
     |          Mulliken Center for Theoretical Chemistry        |     
     |                    University of Bonn                     |     
      -----------------------------------------------------------      

   * xtb version 6.6.1 (8d0f1dd) compiled by 'runner@Mac-1690902418499.local' on 2023-08-01

   xtb is free software: you can redistribute it and/or modify it under
   the terms of the GNU Lesser General Public License as published by
   the Free Software Foundation, either version 3 of the License, or
   (at your option) any later version.
   
   xtb is distributed in the hope that it will be useful,
   but WITHOUT ANY WARRANTY; without even the implied warranty of
   MERCHANTABILITY or FITNESS FOR A PARTICULAR PURPOSE.  See the
   GNU Lesser General Public License for more details.
   
   Cite this work as:
   * C. Bannwarth, E. Caldeweyher, S. Ehlert, A. Hansen, P. Pracht,
     J. Seibert, S. Spicher, S. Grimme, WIREs Comput. Mol. Sci., 2020, 11,
     e01493. DOI: 10.1002/wcms.1493
   
   for GFN2-xTB:
   * C. Bannwarth, S. Ehlert and S. Grimme., J. Chem. Theory Comput., 2019,
     15, 1652-1671. DOI: 10.1021/acs.jctc.8b01176
   for GFN1-xTB:
   * S. Grimme, C. Bannwarth, P. Shushkov, J. Chem. Theory Comput., 2017,
     13, 1989-2009. DOI: 10.1021/acs.jctc.7b00118
   for GFN0-xTB:
   * P. Pracht, E. Caldeweyher, S. Ehlert, S. Grimme, ChemRxiv, 2019, preprint.
     DOI: 10.26434/chemrxiv.8326202.v1
   for GFN-FF:
   * S. Spicher and S. Grimme, Angew. Chem. Int. Ed., 2020, 59, 15665-15673.
     DOI: 10.1002/anie.202004239
   
   for ALPB and GBSA implicit solvation:
   * S. Ehlert, M. Stahn, S. Spicher, S. Grimme, J. Chem. Theory Comput.,
     2021, 17, 4250-4261. DOI: 10.1021/acs.jctc.1c00471
   
   for DFT-D4:
   * E. Caldeweyher, C. Bannwarth and S. Grimme, J. Chem. Phys., 2017,
     147, 034112. DOI: 10.1063/1.4993215
   * E. Caldeweyher, S. Ehlert, A. Hansen, H. Neugebauer, S. Spicher,
     C. Bannwarth and S. Grimme, J. Chem. Phys., 2019, 150, 154122.
     DOI: 10.1063/1.5090222
   * E. Caldeweyher, J.-M. Mewes, S. Ehlert and S. Grimme, Phys. Chem. Chem. Phys.
     2020, 22, 8499-8512. DOI: 10.1039/D0CP00502A
   
   for sTDA-xTB:
   * S. Grimme and C. Bannwarth, J. Chem. Phys., 2016, 145, 054103.
     DOI: 10.1063/1.4959605
   
   in the mass-spec context:
   * V. Asgeirsson, C. Bauer and S. Grimme, Chem. Sci., 2017, 8, 4879.
     DOI: 10.1039/c7sc00601b
   * J. Koopman and S. Grimme, ACS Omega 2019, 4, 12, 15120-15133.
     DOI: 10.1021/acsomega.9b02011
   
   for metadynamics refer to:
   * S. Grimme, J. Chem. Theory Comput., 2019, 155, 2847-2862
     DOI: 10.1021/acs.jctc.9b00143
   
   for SPH calculations refer to:
   * S. Spicher and S. Grimme, J. Chem. Theory Comput., 2021, 17, 1701-1714
     DOI: 10.1021/acs.jctc.0c01306
   
   with help from (in alphabetical order)
   P. Atkinson, C. Bannwarth, F. Bohle, G. Brandenburg, E. Caldeweyher
   M. Checinski, S. Dohm, S. Ehlert, S. Ehrlich, I. Gerasimov, C. Hölzer
   A. Katbashev, J. Koopman, C. Lavigne, S. Lehtola, F. März, M. Müller,
   F. Musil, H. Neugebauer, J. Pisarek, C. Plett, P. Pracht, F. Pultar,
   J. Seibert, P. Shushkov, S. Spicher, M. Stahn, M. Steiner, T. Strunk,
   J. Stückrath, T. Rose, and J. Unsleber
   
 * started run on 2024/11/14 at 14:16:10.952     

           -------------------------------------------------
          |                Calculation Setup                |
           -------------------------------------------------

          program call               : xtb Verdazyl3.mol --opt --gfn2 --chrg 0 --uhf 2 --tight
          coordinate file            : Verdazyl3.mol
          omp threads                :                     8

   ID    Z sym.   atoms
    1    6 C      1-30, 33, 39, 45, 46, 48-75
    2    7 N      31, 32, 34, 35, 37, 38, 40, 41, 43
    3    8 O      36, 42, 47
    4   14 Si     44
    5    1 H      76-124
########################################################################
[WARNING] Please study the warnings concerning your input carefully
-1- prog_main_parseArguments: Unknown option '--tight' provided
########################################################################

           -------------------------------------------------
          |                 G F N 2 - x T B                 |
           -------------------------------------------------

        Reference                      10.1021/acs.jctc.8b01176
      * Hamiltonian:
        H0-scaling (s, p, d)           1.850000    2.230000    2.230000
        zeta-weighting                 0.500000
      * Dispersion:
        s8                             2.700000
        a1                             0.520000
        a2                             5.000000
        s9                             5.000000
      * Repulsion:
        kExp                           1.500000    1.000000
        rExp                           1.000000
      * Coulomb:
        alpha                          2.000000
        third order                    shell-resolved
        anisotropic                    true
        a3                             3.000000
        a5                             4.000000
        cn-shift                       1.200000
        cn-exp                         4.000000
        max-rad                        5.000000


          ...................................................
          :                      SETUP                      :
          :.................................................:
          :  # basis functions                 355          :
          :  # atomic orbitals                 354          :
          :  # shells                          200          :
          :  # electrons                       364          :
          :  max. iterations                   250          :
          :  Hamiltonian                  GFN2-xTB          :
          :  restarted?                      false          :
          :  GBSA solvation                  false          :
          :  PC potential                    false          :
          :  electronic temp.          300.0000000     K    :
          :  accuracy                    1.0000000          :
          :  -> integral cutoff          0.2500000E+02      :
          :  -> integral neglect         0.1000000E-07      :
          :  -> SCF convergence          0.1000000E-05 Eh   :
          :  -> wf. convergence          0.1000000E-03 e    :
          :  Broyden damping             0.4000000          :
          ...................................................

 iter      E             dE          RMSdq      gap      omega  full diag
   1   -200.4223803 -0.200422E+03  0.465E+00    0.26       0.0  T
   2   -200.7695335 -0.347153E+00  0.336E+00    0.48       1.0  T
   3   -200.7822616 -0.127281E-01  0.161E+00    1.21       1.0  T
   4   -200.7870255 -0.476393E-02  0.755E-01    1.14       1.0  T
   5   -200.8481075 -0.610820E-01  0.256E-01    1.42       1.0  T
   6   -200.8507396 -0.263211E-02  0.149E-01    1.44       1.0  T
   7   -200.8520528 -0.131314E-02  0.107E-01    1.41       1.0  T
   8   -200.8521899 -0.137143E-03  0.634E-02    1.41       1.0  T
   9   -200.8522332 -0.432449E-04  0.201E-02    1.41       1.0  T
  10   -200.8522641 -0.309407E-04  0.102E-02    1.41       1.0  T
  11   -200.8522671 -0.296992E-05  0.422E-03    1.41       2.1  T
  12   -200.8522672 -0.104719E-06  0.307E-03    1.41       2.9  T
  13   -200.8522673 -0.101854E-06  0.164E-03    1.41       5.5  T
  14   -200.8522673 -0.131896E-07  0.112E-03    1.41       8.0  T
  15   -200.8522673 -0.223382E-07  0.520E-04    1.41      17.3  T
  16   -200.8522673 -0.627392E-08  0.283E-04    1.41      31.7  T

   *** convergence criteria satisfied after 16 iterations ***

         #    Occupation            Energy/Eh            Energy/eV
      -------------------------------------------------------------
         1        2.0000           -0.7306691             -19.8825
       ...           ...                  ...                  ...
       177        2.0000           -0.3596718              -9.7872
       178        2.0000           -0.3591727              -9.7736
       179        2.0000           -0.3581697              -9.7463
       180        2.0000           -0.3574595              -9.7270
       181        1.9998           -0.3412583              -9.2861
       182        1.0002           -0.3249612              -8.8426
       183        1.0001           -0.3242441              -8.8231 (HOMO)
       184                         -0.2724330              -7.4133 (LUMO)
       185                         -0.2700385              -7.3481
       186                         -0.2667797              -7.2594
       187                         -0.2634820              -7.1697
       188                         -0.2475123              -6.7352
       ...                                ...                  ...
       354                          0.9058037              24.6482
      -------------------------------------------------------------
                  HL-Gap            0.0518111 Eh            1.4099 eV
             Fermi-level           -0.3157421 Eh           -8.5918 eV

 transition dipole moment (au) for excitation:         182         183
     X       Y       Z   
   0.0315  -0.0552   0.0249  total (au/Debye):    0.068   0.173
 dE (eV)             :    0.020
 oscillator strength :  0.31484E-05

 SCC (total)                   0 d,  0 h,  0 min,  1.650 sec
 SCC setup                      ...        0 min,  0.001 sec (  0.054%)
 Dispersion                     ...        0 min,  0.003 sec (  0.175%)
 classical contributions        ...        0 min,  0.001 sec (  0.047%)
 integral evaluation            ...        0 min,  0.011 sec (  0.686%)
 iterations                     ...        0 min,  1.561 sec ( 94.612%)
 molecular gradient             ...        0 min,  0.049 sec (  2.953%)
 printout                       ...        0 min,  0.024 sec (  1.471%)

         :::::::::::::::::::::::::::::::::::::::::::::::::::::
         ::                     SUMMARY                     ::
         :::::::::::::::::::::::::::::::::::::::::::::::::::::
         :: total energy            -197.828415310994 Eh    ::
         :: gradient norm              0.227668150606 Eh/a0 ::
         :: HOMO-LUMO gap              1.409852527294 eV    ::
         ::.................................................::
         :: SCC energy              -200.852267323773 Eh    ::
         :: -> isotropic ES            0.153483326655 Eh    ::
         :: -> anisotropic ES          0.012891853019 Eh    ::
         :: -> anisotropic XC          0.113557348794 Eh    ::
         :: -> dispersion             -0.182772205266 Eh    ::
         :: repulsion energy           3.019600891402 Eh    ::
         :: add. restraining           0.000000000000 Eh    ::
         :: total charge              -0.000000000002 e     ::
         :::::::::::::::::::::::::::::::::::::::::::::::::::::

      ----------------------------------------------------------- 
     |                   =====================                   |
     |                        A N C O P T                        |
     |                   =====================                   |
     |               Approximate Normal Coordinate               |
     |                Rational Function Optimizer                |
      ----------------------------------------------------------- 

          ...................................................
          :                      SETUP                      :
          :.................................................:
          :   optimization level            normal          :
          :   max. optcycles                   372          :
          :   ANC micro-cycles                  20          :
          :   degrees of freedom               366          :
          :.................................................:
          :   RF solver                   davidson          :
          :   write xtbopt.log                true          :
          :   linear?                        false          :
          :   energy convergence         0.5000000E-05 Eh   :
          :   grad. convergence          0.1000000E-02 Eh/α :
          :   maxmium RF displ.          1.0000000          :
          :   Hlow (freq-cutoff)         0.1000000E-01      :
          :   Hmax (freq-cutoff)         5.0000000          :
          :   S6 in model hess.         20.0000000          :
          ...................................................

generating ANC from model Hessian ...
Using Lindh-Hessian (1995)
 Shifting diagonal of input Hessian by    9.9882999509042728E-003
 Lowest  eigenvalues of input Hessian
    0.000000    0.000000    0.000000    0.000000    0.000000    0.000000
    0.010000    0.010015    0.010038    0.010040    0.010057    0.010094
    0.010142    0.010256    0.010312    0.010425    0.010584    0.010663
 Highest eigenvalues
    2.148353    2.151349    2.154004    2.179863    2.461078    2.463365


........................................................................
.............................. CYCLE    1 ..............................
........................................................................

 iter      E             dE          RMSdq      gap      omega  full diag
   1   -200.8522673 -0.200852E+03  0.149E-04    1.41       0.0  T
   2   -200.8522673 -0.158167E-09  0.120E-04    1.41      74.8  T
   3   -200.8522673 -0.128438E-08  0.637E-05    1.41     141.1  T
     SCC iter.                  ...        0 min,  0.143 sec
     gradient                   ...        0 min,  0.049 sec
 * total energy  :  -197.8284153 Eh     change       -0.2903136E-08 Eh
   gradient norm :     0.2276681 Eh/α   predicted     0.0000000E+00 (-100.00%)
   displ. norm   :     0.5617118 α      lambda       -0.7662701E-01
   maximum displ.:     0.1661181 α      in ANC's #86, #119, #185, ...

........................................................................
.............................. CYCLE    2 ..............................
........................................................................

 iter      E             dE          RMSdq      gap      omega  full diag
   1   -200.9689329 -0.200969E+03  0.325E-01    1.55       0.0  T
   2   -200.9696205 -0.687604E-03  0.209E-01    1.54       1.0  T
   3   -200.9693342  0.286248E-03  0.947E-02    1.56       1.0  T
   4   -200.9697544 -0.420153E-03  0.230E-02    1.55       1.0  T
   5   -200.9697994 -0.450728E-04  0.201E-02    1.55       1.0  T
   6   -200.9698065 -0.701886E-05  0.135E-02    1.55       1.0  T
   7   -200.9698061  0.317109E-06  0.802E-03    1.55       1.1  T
   8   -200.9698070 -0.832247E-06  0.555E-03    1.55       1.6  T
   9   -200.9698080 -0.981991E-06  0.286E-03    1.55       3.1  T
  10   -200.9698081 -0.951994E-07  0.127E-03    1.55       7.1  T
  11   -200.9698081 -0.547960E-07  0.628E-04    1.55      14.3  T
  12   -200.9698081 -0.823215E-08  0.352E-04    1.55      25.5  T
     SCC iter.                  ...        0 min,  0.854 sec
     gradient                   ...        0 min,  0.061 sec
 * total energy  :  -197.8826559 Eh     change       -0.5424060E-01 Eh
   gradient norm :     0.0978198 Eh/α   predicted    -0.5047533E-01 (  -6.94%)
   displ. norm   :     0.6240679 α      lambda       -0.3303506E-01
   maximum displ.:     0.1796898 α      in ANC's #56, #54, #58, ...

........................................................................
.............................. CYCLE    3 ..............................
........................................................................

 iter      E             dE          RMSdq      gap      omega  full diag
   1   -201.0595209 -0.201060E+03  0.196E-01    1.67       0.0  T
   2   -201.0598112 -0.290270E-03  0.119E-01    1.67       1.0  T
   3   -201.0597026  0.108644E-03  0.557E-02    1.68       1.0  T
   4   -201.0598897 -0.187104E-03  0.180E-02    1.68       1.0  T
   5   -201.0599035 -0.138649E-04  0.835E-03    1.67       1.1  T
   6   -201.0599029  0.657451E-06  0.532E-03    1.68       1.7  T
   7   -201.0599046 -0.176409E-05  0.240E-03    1.67       3.7  T
   8   -201.0599051 -0.474172E-06  0.966E-04    1.67       9.3  T
   9   -201.0599051 -0.181788E-07  0.429E-04    1.67      20.9  T
     SCC iter.                  ...        0 min,  0.535 sec
     gradient                   ...        0 min,  0.050 sec
 * total energy  :  -197.9051548 Eh     change       -0.2249886E-01 Eh
   gradient norm :     0.0347569 Eh/α   predicted    -0.2295087E-01 (   2.01%)
   displ. norm   :     0.6850139 α      lambda       -0.1620431E-01
   maximum displ.:     0.2047247 α      in ANC's #56, #54, #58, ...

........................................................................
.............................. CYCLE    4 ..............................
........................................................................

 iter      E             dE          RMSdq      gap      omega  full diag
   1   -201.0982719 -0.201098E+03  0.139E-01    1.70       0.0  T
   2   -201.0983937 -0.121794E-03  0.880E-02    1.71       1.0  T
   3   -201.0983351  0.586588E-04  0.509E-02    1.71       1.0  T
   4   -201.0984718 -0.136738E-03  0.103E-02    1.71       1.0  T
   5   -201.0984743 -0.252401E-05  0.495E-03    1.71       1.8  T
   6   -201.0984742  0.137019E-06  0.356E-03    1.71       2.5  T
   7   -201.0984744 -0.250337E-06  0.217E-03    1.71       4.1  T
   8   -201.0984745 -0.278279E-07  0.162E-03    1.71       5.5  T
   9   -201.0984744  0.661066E-08  0.952E-04    1.71       9.4  T
  10   -201.0984745 -0.194344E-07  0.417E-04    1.71      21.5  T
     SCC iter.                  ...        0 min,  0.627 sec
     gradient                   ...        0 min,  0.048 sec
 * total energy  :  -197.9176921 Eh     change       -0.1253733E-01 Eh
   gradient norm :     0.0276472 Eh/α   predicted    -0.1190405E-01 (  -5.05%)
   displ. norm   :     0.7319773 α      lambda       -0.1142865E-01
   maximum displ.:     0.2238221 α      in ANC's #8, #56, #54, ...

........................................................................
.............................. CYCLE    5 ..............................
........................................................................

 iter      E             dE          RMSdq      gap      omega  full diag
   1   -201.1295375 -0.201130E+03  0.127E-01    1.70       0.0  T
   2   -201.1296589 -0.121343E-03  0.866E-02    1.72       1.0  T
   3   -201.1296062  0.527198E-04  0.390E-02    1.71       1.0  T
   4   -201.1296993 -0.931161E-04  0.146E-02    1.71       1.0  T
   5   -201.1297080 -0.868936E-05  0.610E-03    1.71       1.5  T
   6   -201.1297073  0.643344E-06  0.414E-03    1.71       2.2  T
   7   -201.1297082 -0.881025E-06  0.170E-03    1.71       5.3  T
   8   -201.1297084 -0.150783E-06  0.882E-04    1.71      10.2  T
   9   -201.1297084 -0.207521E-07  0.601E-04    1.71      14.9  T
     SCC iter.                  ...        0 min,  0.675 sec
     gradient                   ...        0 min,  0.050 sec
 * total energy  :  -197.9267324 Eh     change       -0.9040250E-02 Eh
   gradient norm :     0.0189875 Eh/α   predicted    -0.8776019E-02 (  -2.92%)
   displ. norm   :     0.7714292 α      lambda       -0.8209715E-02
   maximum displ.:     0.3125583 α      in ANC's #8, #9, #22, ...

........................................................................
.............................. CYCLE    6 ..............................
........................................................................

 iter      E             dE          RMSdq      gap      omega  full diag
   1   -201.1562889 -0.201156E+03  0.144E-01    1.70       0.0  T
   2   -201.1563908 -0.101953E-03  0.107E-01    1.70       1.0  T
   3   -201.1562606  0.130200E-03  0.376E-02    1.70       1.0  T
   4   -201.1564306 -0.170003E-03  0.230E-02    1.70       1.0  T
   5   -201.1564467 -0.161030E-04  0.102E-02    1.70       1.0  T
   6   -201.1564478 -0.111304E-05  0.461E-03    1.70       1.9  T
   7   -201.1564486 -0.744097E-06  0.212E-03    1.70       4.2  T
   8   -201.1564487 -0.132260E-06  0.174E-03    1.70       5.2  T
   9   -201.1564488 -0.113425E-06  0.114E-03    1.70       7.9  T
  10   -201.1564488 -0.186844E-09  0.926E-04    1.70       9.7  T
  11   -201.1564488 -0.313565E-08  0.341E-04    1.70      26.4  T
     SCC iter.                  ...        0 min,  0.732 sec
     gradient                   ...        0 min,  0.050 sec
 * total energy  :  -197.9339092 Eh     change       -0.7176808E-02 Eh
   gradient norm :     0.0164989 Eh/α   predicted    -0.6547675E-02 (  -8.77%)
   displ. norm   :     0.8493370 α      lambda       -0.7904160E-02
   maximum displ.:     0.3750177 α      in ANC's #8, #9, #22, ...

........................................................................
.............................. CYCLE    7 ..............................
........................................................................

 iter      E             dE          RMSdq      gap      omega  full diag
   1   -201.1778530 -0.201178E+03  0.197E-01    1.68       0.0  T
   2   -201.1779341 -0.810573E-04  0.141E-01    1.69       1.0  T
   3   -201.1775482  0.385911E-03  0.504E-02    1.68       1.0  T
   4   -201.1779751 -0.426944E-03  0.250E-02    1.68       1.0  T
   5   -201.1779921 -0.169677E-04  0.104E-02    1.68       1.0  T
   6   -201.1779934 -0.129609E-05  0.388E-03    1.68       2.3  T
   7   -201.1779935 -0.114857E-06  0.331E-03    1.68       2.7  T
   8   -201.1779938 -0.271419E-06  0.212E-03    1.68       4.2  T
   9   -201.1779939 -0.106570E-06  0.150E-03    1.68       6.0  T
  10   -201.1779938  0.150923E-07  0.840E-04    1.68      10.7  T
  11   -201.1779939 -0.281529E-07  0.268E-04    1.68      33.5  T
     SCC iter.                  ...        0 min,  0.558 sec
     gradient                   ...        0 min,  0.049 sec
 * total energy  :  -197.9413949 Eh     change       -0.7485691E-02 Eh
   gradient norm :     0.0182520 Eh/α   predicted    -0.6803013E-02 (  -9.12%)
   displ. norm   :     0.9074615 α      lambda       -0.8698110E-02
   maximum displ.:     0.4162795 α      in ANC's #8, #9, #22, ...

........................................................................
.............................. CYCLE    8 ..............................
........................................................................

 iter      E             dE          RMSdq      gap      omega  full diag
   1   -201.1953076 -0.201195E+03  0.238E-01    1.66       0.0  T
   2   -201.1953681 -0.605265E-04  0.164E-01    1.66       1.0  T
   3   -201.1949685  0.399573E-03  0.512E-02    1.66       1.0  T
   4   -201.1953984 -0.429892E-03  0.248E-02    1.66       1.0  T
   5   -201.1954143 -0.159065E-04  0.865E-03    1.66       1.0  T
   6   -201.1954153 -0.978289E-06  0.378E-03    1.66       2.4  T
   7   -201.1954152  0.141903E-06  0.325E-03    1.66       2.8  T
   8   -201.1954155 -0.357567E-06  0.197E-03    1.66       4.6  T
   9   -201.1954156 -0.100446E-06  0.131E-03    1.66       6.9  T
  10   -201.1954156  0.438456E-08  0.734E-04    1.66      12.2  T
  11   -201.1954156 -0.943294E-08  0.272E-04    1.66      33.0  T
     SCC iter.                  ...        0 min,  0.783 sec
     gradient                   ...        0 min,  0.048 sec
 * total energy  :  -197.9498469 Eh     change       -0.8452008E-02 Eh
   gradient norm :     0.0211134 Eh/α   predicted    -0.7930455E-02 (  -6.17%)
   displ. norm   :     0.9243961 α      lambda       -0.9552482E-02
   maximum displ.:     0.4305537 α      in ANC's #8, #9, #22, ...

........................................................................
.............................. CYCLE    9 ..............................
........................................................................

 iter      E             dE          RMSdq      gap      omega  full diag
   1   -201.2089798 -0.201209E+03  0.257E-01    1.64       0.0  T
   2   -201.2090292 -0.494065E-04  0.170E-01    1.64       1.0  T
   3   -201.2089069  0.122287E-03  0.296E-02    1.64       1.0  T
   4   -201.2090400 -0.133061E-03  0.223E-02    1.64       1.0  T
   5   -201.2090541 -0.141268E-04  0.697E-03    1.64       1.3  T
   6   -201.2090547 -0.544464E-06  0.378E-03    1.64       2.4  T
   7   -201.2090553 -0.634585E-06  0.241E-03    1.64       3.7  T
   8   -201.2090556 -0.261647E-06  0.156E-03    1.64       5.8  T
   9   -201.2090556 -0.844678E-07  0.738E-04    1.64      12.2  T
  10   -201.2090556 -0.196576E-08  0.467E-04    1.64      19.2  T
     SCC iter.                  ...        0 min,  0.679 sec
     gradient                   ...        0 min,  0.048 sec
 * total energy  :  -197.9590309 Eh     change       -0.9184001E-02 Eh
   gradient norm :     0.0229420 Eh/α   predicted    -0.8857583E-02 (  -3.55%)
   displ. norm   :     0.9342588 α      lambda       -0.9651802E-02
   maximum displ.:     0.4520804 α      in ANC's #9, #8, #22, ...

........................................................................
.............................. CYCLE   10 ..............................
........................................................................

 iter      E             dE          RMSdq      gap      omega  full diag
   1   -201.2166510 -0.201217E+03  0.230E-01    1.64       0.0  T
   2   -201.2167001 -0.491045E-04  0.150E-01    1.64       1.0  T
   3   -201.2166427  0.574333E-04  0.244E-02    1.64       1.0  T
   4   -201.2167028 -0.600929E-04  0.201E-02    1.64       1.0  T
   5   -201.2167180 -0.151704E-04  0.852E-03    1.64       1.1  T
   6   -201.2167179  0.413078E-07  0.508E-03    1.64       1.8  T
   7   -201.2167189 -0.100206E-05  0.341E-03    1.64       2.6  T
   8   -201.2167192 -0.264221E-06  0.225E-03    1.64       4.0  T
   9   -201.2167193 -0.118455E-06  0.125E-03    1.64       7.2  T
  10   -201.2167193  0.512674E-08  0.602E-04    1.64      14.9  T
  11   -201.2167193 -0.103313E-07  0.236E-04    1.64      38.1  T
     SCC iter.                  ...        0 min,  0.813 sec
     gradient                   ...        0 min,  0.050 sec
 * total energy  :  -197.9682848 Eh     change       -0.9253962E-02 Eh
   gradient norm :     0.0231379 Eh/α   predicted    -0.9038139E-02 (  -2.33%)
   displ. norm   :     0.9280429 α      lambda       -0.9441724E-02
   maximum displ.:     0.4636818 α      in ANC's #9, #8, #22, ...

........................................................................
.............................. CYCLE   11 ..............................
........................................................................

 iter      E             dE          RMSdq      gap      omega  full diag
   1   -201.2259604 -0.201226E+03  0.220E-01    1.66       0.0  T
   2   -201.2260163 -0.558631E-04  0.142E-01    1.65       1.0  T
   3   -201.2260026  0.136521E-04  0.242E-02    1.65       1.0  T
   4   -201.2260218 -0.191424E-04  0.135E-02    1.65       1.0  T
   5   -201.2260282 -0.645128E-05  0.706E-03    1.65       1.3  T
   6   -201.2260292 -0.960303E-06  0.326E-03    1.65       2.8  T
   7   -201.2260301 -0.877172E-06  0.172E-03    1.65       5.2  T
   8   -201.2260302 -0.102678E-06  0.927E-04    1.65       9.7  T
   9   -201.2260302 -0.353490E-07  0.519E-04    1.65      17.3  T
     SCC iter.                  ...        0 min,  0.557 sec
     gradient                   ...        0 min,  0.050 sec
 * total energy  :  -197.9771373 Eh     change       -0.8852439E-02 Eh
   gradient norm :     0.0200763 Eh/α   predicted    -0.8786784E-02 (  -0.74%)
   displ. norm   :     0.9354822 α      lambda       -0.8748380E-02
   maximum displ.:     0.4923253 α      in ANC's #9, #8, #22, ...

........................................................................
.............................. CYCLE   12 ..............................
........................................................................

 iter      E             dE          RMSdq      gap      omega  full diag
   1   -201.2266155 -0.201227E+03  0.159E-01    1.66       0.0  T
   2   -201.2266405 -0.249415E-04  0.108E-01    1.66       1.0  T
   3   -201.2265552  0.852702E-04  0.306E-02    1.66       1.0  T
   4   -201.2266487 -0.935590E-04  0.192E-02    1.66       1.0  T
   5   -201.2266543 -0.559930E-05  0.113E-02    1.66       1.0  T
   6   -201.2266560 -0.166614E-05  0.672E-03    1.66       1.3  T
   7   -201.2266562 -0.202842E-06  0.477E-03    1.66       1.9  T
   8   -201.2266569 -0.715879E-06  0.274E-03    1.66       3.3  T
   9   -201.2266571 -0.193516E-06  0.118E-03    1.66       7.6  T
  10   -201.2266572 -0.253889E-07  0.508E-04    1.66      17.7  T
  11   -201.2266572 -0.109937E-07  0.197E-04    1.66      45.6  T
     SCC iter.                  ...        0 min,  0.645 sec
     gradient                   ...        0 min,  0.048 sec
 * total energy  :  -197.9849775 Eh     change       -0.7840218E-02 Eh
   gradient norm :     0.0205985 Eh/α   predicted    -0.8202169E-02 (   4.62%)
   displ. norm   :     0.8929996 α      lambda       -0.8188591E-02
   maximum displ.:     0.4549606 α      in ANC's #9, #8, #86, ...

........................................................................
.............................. CYCLE   13 ..............................
........................................................................

 iter      E             dE          RMSdq      gap      omega  full diag
   1   -201.2429143 -0.201243E+03  0.177E-01    1.69       0.0  T
   2   -201.2429573 -0.430355E-04  0.112E-01    1.69       1.0  T
   3   -201.2429011  0.561803E-04  0.380E-02    1.69       1.0  T
   4   -201.2429701 -0.689513E-04  0.107E-02    1.69       1.0  T
   5   -201.2429692  0.863774E-06  0.855E-03    1.69       1.1  T
   6   -201.2429708 -0.162435E-05  0.309E-03    1.69       2.9  T
   7   -201.2429715 -0.641966E-06  0.182E-03    1.69       4.9  T
   8   -201.2429716 -0.151247E-06  0.965E-04    1.69       9.3  T
   9   -201.2429716 -0.195221E-07  0.615E-04    1.69      14.6  T
     SCC iter.                  ...        0 min,  0.451 sec
     gradient                   ...        0 min,  0.047 sec
 * total energy  :  -197.9918964 Eh     change       -0.6918887E-02 Eh
   gradient norm :     0.0200763 Eh/α   predicted    -0.7359288E-02 (   6.37%)
   displ. norm   :     0.8828941 α      lambda       -0.6552455E-02
   maximum displ.:     0.4758896 α      in ANC's #9, #8, #22, ...

........................................................................
.............................. CYCLE   14 ..............................
........................................................................

 iter      E             dE          RMSdq      gap      omega  full diag
   1   -201.2460297 -0.201246E+03  0.136E-01    1.68       0.0  T
   2   -201.2460468 -0.171108E-04  0.926E-02    1.68       1.0  T
   3   -201.2460094  0.373565E-04  0.222E-02    1.68       1.0  T
   4   -201.2460493 -0.398802E-04  0.143E-02    1.68       1.0  T
   5   -201.2460531 -0.380096E-05  0.861E-03    1.68       1.0  T
   6   -201.2460549 -0.182045E-05  0.470E-03    1.68       1.9  T
   7   -201.2460559 -0.993833E-06  0.290E-03    1.68       3.1  T
   8   -201.2460561 -0.122536E-06  0.167E-03    1.68       5.4  T
   9   -201.2460561 -0.495084E-07  0.758E-04    1.68      11.9  T
  10   -201.2460561 -0.208028E-07  0.311E-04    1.68      28.9  T
     SCC iter.                  ...        0 min,  0.597 sec
     gradient                   ...        0 min,  0.047 sec
 * total energy  :  -197.9975969 Eh     change       -0.5700513E-02 Eh
   gradient norm :     0.0196650 Eh/α   predicted    -0.5830059E-02 (   2.27%)
   displ. norm   :     0.8274934 α      lambda       -0.5497759E-02
   maximum displ.:     0.4509168 α      in ANC's #9, #8, #86, ...

........................................................................
.............................. CYCLE   15 ..............................
........................................................................

 iter      E             dE          RMSdq      gap      omega  full diag
   1   -201.2585856 -0.201259E+03  0.108E-01    1.67       0.0  T
   2   -201.2586069 -0.212809E-04  0.687E-02    1.68       1.0  T
   3   -201.2585735  0.333276E-04  0.269E-02    1.67       1.0  T
   4   -201.2586135 -0.399605E-04  0.113E-02    1.67       1.0  T
   5   -201.2586138 -0.283595E-06  0.800E-03    1.67       1.1  T
   6   -201.2586133  0.537680E-06  0.441E-03    1.67       2.0  T
   7   -201.2586152 -0.198999E-05  0.252E-03    1.67       3.6  T
   8   -201.2586155 -0.214766E-06  0.123E-03    1.67       7.3  T
   9   -201.2586155 -0.136488E-07  0.547E-04    1.67      16.4  T
  10   -201.2586155 -0.415307E-08  0.275E-04    1.67      32.6  T
     SCC iter.                  ...        0 min,  0.771 sec
     gradient                   ...        0 min,  0.049 sec
 * total energy  :  -198.0021651 Eh     change       -0.4568173E-02 Eh
   gradient norm :     0.0163744 Eh/α   predicted    -0.4631169E-02 (   1.38%)
   displ. norm   :     0.8253617 α      lambda       -0.4950971E-02
   maximum displ.:     0.4192311 α      in ANC's #9, #8, #25, ...

........................................................................
.............................. CYCLE   16 ..............................
........................................................................

 iter      E             dE          RMSdq      gap      omega  full diag
   1   -201.2640155 -0.201264E+03  0.123E-01    1.65       0.0  T
   2   -201.2640498 -0.343018E-04  0.773E-02    1.65       1.0  T
   3   -201.2640412  0.859602E-05  0.289E-02    1.65       1.0  T
   4   -201.2640553 -0.141202E-04  0.141E-02    1.65       1.0  T
   5   -201.2640499  0.545635E-05  0.107E-02    1.65       1.0  T
   6   -201.2640565 -0.664941E-05  0.397E-03    1.65       2.3  T
   7   -201.2640578 -0.131561E-05  0.183E-03    1.65       4.9  T
   8   -201.2640579 -0.499117E-07  0.107E-03    1.65       8.4  T
   9   -201.2640579 -0.735588E-08  0.569E-04    1.65      15.8  T
  10   -201.2640579 -0.176104E-08  0.330E-04    1.65      27.2  T
     SCC iter.                  ...        0 min,  0.672 sec
     gradient                   ...        0 min,  0.051 sec
 * total energy  :  -198.0052457 Eh     change       -0.3080629E-02 Eh
   gradient norm :     0.0245507 Eh/α   predicted    -0.4161849E-02 (  35.10%)
   displ. norm   :     0.6570851 α      lambda       -0.3839594E-02
   maximum displ.:     0.3636394 α      in ANC's #9, #8, #86, ...

........................................................................
.............................. CYCLE   17 ..............................
........................................................................

 iter      E             dE          RMSdq      gap      omega  full diag
   1   -201.2721622 -0.201272E+03  0.941E-02    1.65       0.0  T
   2   -201.2721873 -0.251263E-04  0.652E-02    1.65       1.0  T
   3   -201.2721727  0.145604E-04  0.279E-02    1.65       1.0  T
   4   -201.2721887 -0.159571E-04  0.168E-02    1.65       1.0  T
   5   -201.2721934 -0.472441E-05  0.102E-02    1.65       1.0  T
   6   -201.2721957 -0.232390E-05  0.364E-03    1.65       2.5  T
   7   -201.2721963 -0.575362E-06  0.202E-03    1.65       4.4  T
   8   -201.2721965 -0.141946E-06  0.104E-03    1.65       8.6  T
   9   -201.2721965 -0.242017E-07  0.501E-04    1.65      17.9  T
  10   -201.2721965 -0.187753E-07  0.245E-04    1.65      36.7  T
     SCC iter.                  ...        0 min,  0.681 sec
     gradient                   ...        0 min,  0.050 sec
 * total energy  :  -198.0076636 Eh     change       -0.2417940E-02 Eh
   gradient norm :     0.0206646 Eh/α   predicted    -0.2748692E-02 (  13.68%)
   displ. norm   :     0.6188645 α      lambda       -0.2775342E-02
   maximum displ.:     0.3603609 α      in ANC's #9, #8, #86, ...

........................................................................
.............................. CYCLE   18 ..............................
........................................................................

 iter      E             dE          RMSdq      gap      omega  full diag
   1   -201.2744200 -0.201274E+03  0.971E-02    1.65       0.0  T
   2   -201.2744544 -0.344757E-04  0.636E-02    1.65       1.0  T
   3   -201.2744469  0.754425E-05  0.282E-02    1.65       1.0  T
   4   -201.2744580 -0.111501E-04  0.128E-02    1.65       1.0  T
   5   -201.2744560  0.203918E-05  0.926E-03    1.65       1.0  T
   6   -201.2744590 -0.295673E-05  0.331E-03    1.65       2.7  T
   7   -201.2744600 -0.103256E-05  0.143E-03    1.65       6.3  T
   8   -201.2744601 -0.134567E-06  0.745E-04    1.65      12.1  T
   9   -201.2744601 -0.994501E-08  0.376E-04    1.65      23.9  T
     SCC iter.                  ...        0 min,  0.576 sec
     gradient                   ...        0 min,  0.047 sec
 * total energy  :  -198.0089882 Eh     change       -0.1324551E-02 Eh
   gradient norm :     0.0213143 Eh/α   predicted    -0.1919143E-02 (  44.89%)
   displ. norm   :     0.5182519 α      lambda       -0.2191873E-02
   maximum displ.:     0.2372122 α      in ANC's #9, #25, #10, ...

........................................................................
.............................. CYCLE   19 ..............................
........................................................................

 iter      E             dE          RMSdq      gap      omega  full diag
   1   -201.2763129 -0.201276E+03  0.814E-02    1.65       0.0  T
   2   -201.2763410 -0.281522E-04  0.508E-02    1.65       1.0  T
   3   -201.2763311  0.989640E-05  0.265E-02    1.65       1.0  T
   4   -201.2763466 -0.154157E-04  0.142E-02    1.65       1.0  T
   5   -201.2763450  0.159599E-05  0.954E-03    1.65       1.0  T
   6   -201.2763470 -0.198381E-05  0.316E-03    1.65       2.8  T
   7   -201.2763479 -0.905233E-06  0.150E-03    1.65       6.0  T
   8   -201.2763480 -0.151583E-06  0.701E-04    1.65      12.8  T
   9   -201.2763480 -0.962277E-08  0.339E-04    1.65      26.5  T
     SCC iter.                  ...        0 min,  0.562 sec
     gradient                   ...        0 min,  0.049 sec
 * total energy  :  -198.0099826 Eh     change       -0.9944198E-03 Eh
   gradient norm :     0.0210904 Eh/α   predicted    -0.1390291E-02 (  39.81%)
   displ. norm   :     0.4525588 α      lambda       -0.1865750E-02
   maximum displ.:     0.2384124 α      in ANC's #9, #10, #25, ...

........................................................................
.............................. CYCLE   20 ..............................
........................................................................

 iter      E             dE          RMSdq      gap      omega  full diag
   1   -201.2757751 -0.201276E+03  0.690E-02    1.64       0.0  T
   2   -201.2757998 -0.247178E-04  0.398E-02    1.64       1.0  T
   3   -201.2757966  0.325890E-05  0.190E-02    1.64       1.0  T
   4   -201.2758032 -0.658184E-05  0.950E-03    1.64       1.0  T
   5   -201.2758034 -0.221611E-06  0.724E-03    1.64       1.2  T
   6   -201.2758033  0.296807E-07  0.288E-03    1.64       3.1  T
   7   -201.2758041 -0.797053E-06  0.123E-03    1.64       7.3  T
   8   -201.2758042 -0.685028E-07  0.481E-04    1.64      18.7  T
   9   -201.2758042 -0.698921E-08  0.234E-04    1.64      38.5  T
     SCC iter.                  ...        0 min,  0.538 sec
     gradient                   ...        0 min,  0.051 sec
 * total energy  :  -198.0104724 Eh     change       -0.4898153E-03 Eh
   gradient norm :     0.0261572 Eh/α   predicted    -0.1123939E-02 ( 129.46%)
   displ. norm   :     0.2743236 α      lambda       -0.1480993E-02
   maximum displ.:     0.1099274 α      in ANC's #9, #10, #12, ...
 * RMSD in coord.:     1.0970065 α      energy gain  -0.1820571E+00 Eh

generating ANC from model Hessian ...
Using Lindh-Hessian (1995)
 Shifting diagonal of input Hessian by    9.9712579762173629E-003
 Lowest  eigenvalues of input Hessian
    0.000000    0.000000    0.000000    0.000000    0.000000    0.000000
    0.010000    0.010028    0.010037    0.010055    0.010058    0.010119
    0.010176    0.010382    0.010510    0.010627    0.010772    0.010842
 Highest eigenvalues
    2.159718    2.173403    2.290417    2.290850    2.513530    2.539112


........................................................................
.............................. CYCLE   21 ..............................
........................................................................

 iter      E             dE          RMSdq      gap      omega  full diag
   1   -201.2833752 -0.201283E+03  0.464E-02    1.64       0.0  T
   2   -201.2833941 -0.189429E-04  0.279E-02    1.64       1.0  T
   3   -201.2833899  0.424897E-05  0.117E-02    1.64       1.0  T
   4   -201.2833963 -0.636971E-05  0.439E-03    1.64       2.0  T
   5   -201.2833971 -0.813994E-06  0.279E-03    1.64       3.2  T
   6   -201.2833971 -0.580890E-07  0.158E-03    1.64       5.7  T
   7   -201.2833972 -0.937694E-07  0.698E-04    1.64      12.9  T
   8   -201.2833972 -0.250206E-07  0.351E-04    1.64      25.6  T
     SCC iter.                  ...        0 min,  0.652 sec
     gradient                   ...        0 min,  0.047 sec
 * total energy  :  -198.0111990 Eh     change       -0.7265806E-03 Eh
   gradient norm :     0.0150361 Eh/α   predicted     0.0000000E+00 (-100.00%)
   displ. norm   :     0.1689467 α      lambda       -0.7076797E-03
   maximum displ.:     0.0618005 α      in ANC's #11, #26, #10, ...

........................................................................
.............................. CYCLE   22 ..............................
........................................................................

 iter      E             dE          RMSdq      gap      omega  full diag
   1   -201.2825130 -0.201283E+03  0.331E-02    1.64       0.0  T
   2   -201.2825168 -0.382742E-05  0.209E-02    1.64       1.0  T
   3   -201.2825147  0.212714E-05  0.729E-03    1.64       1.2  T
   4   -201.2825170 -0.235572E-05  0.337E-03    1.64       2.7  T
   5   -201.2825174 -0.402947E-06  0.209E-03    1.64       4.3  T
   6   -201.2825175 -0.353646E-07  0.107E-03    1.64       8.4  T
   7   -201.2825176 -0.116423E-06  0.419E-04    1.64      21.4  T
   8   -201.2825176 -0.105923E-07  0.230E-04    1.64      39.1  T
     SCC iter.                  ...        0 min,  0.421 sec
     gradient                   ...        0 min,  0.048 sec
 * total energy  :  -198.0117422 Eh     change       -0.5432218E-03 Eh
   gradient norm :     0.0046192 Eh/α   predicted    -0.3639420E-03 ( -33.00%)
   displ. norm   :     0.3829588 α      lambda       -0.8108875E-03
   maximum displ.:     0.1457251 α      in ANC's #11, #10, #26, ...

........................................................................
.............................. CYCLE   23 ..............................
........................................................................

 iter      E             dE          RMSdq      gap      omega  full diag
   1   -201.2808902 -0.201281E+03  0.452E-02    1.64       0.0  T
   2   -201.2808955 -0.533740E-05  0.275E-02    1.64       1.0  T
   3   -201.2808926  0.298373E-05  0.855E-03    1.64       1.1  T
   4   -201.2808961 -0.354630E-05  0.410E-03    1.64       2.2  T
   5   -201.2808965 -0.347559E-06  0.273E-03    1.64       3.3  T
   6   -201.2808964  0.303578E-07  0.139E-03    1.64       6.5  T
   7   -201.2808966 -0.200479E-06  0.572E-04    1.64      15.7  T
   8   -201.2808966 -0.144603E-07  0.309E-04    1.64      29.0  T
     SCC iter.                  ...        0 min,  0.561 sec
     gradient                   ...        0 min,  0.049 sec
 * total energy  :  -198.0123648 Eh     change       -0.6225978E-03 Eh
   gradient norm :     0.0081805 Eh/α   predicted    -0.4649275E-03 ( -25.32%)
   displ. norm   :     0.5253017 α      lambda       -0.7894205E-03
   maximum displ.:     0.1954918 α      in ANC's #11, #10, #26, ...

........................................................................
.............................. CYCLE   24 ..............................
........................................................................

 iter      E             dE          RMSdq      gap      omega  full diag
   1   -201.2789730 -0.201279E+03  0.527E-02    1.64       0.0  T
   2   -201.2789760 -0.298609E-05  0.316E-02    1.64       1.0  T
   3   -201.2789738  0.225069E-05  0.633E-03    1.64       1.4  T
   4   -201.2789766 -0.282569E-05  0.331E-03    1.64       2.7  T
   5   -201.2789768 -0.174479E-06  0.217E-03    1.64       4.1  T
   6   -201.2789767  0.315560E-07  0.109E-03    1.64       8.2  T
   7   -201.2789769 -0.120853E-06  0.498E-04    1.64      18.0  T
   8   -201.2789769 -0.800489E-08  0.234E-04    1.64      38.4  T
     SCC iter.                  ...        0 min,  0.575 sec
     gradient                   ...        0 min,  0.050 sec
 * total energy  :  -198.0130336 Eh     change       -0.6688038E-03 Eh
   gradient norm :     0.0133516 Eh/α   predicted    -0.5036694E-03 ( -24.69%)
   displ. norm   :     0.6488378 α      lambda       -0.9422310E-03
   maximum displ.:     0.2351134 α      in ANC's #11, #3, #9, ...

........................................................................
.............................. CYCLE   25 ..............................
........................................................................

 iter      E             dE          RMSdq      gap      omega  full diag
   1   -201.2780000 -0.201278E+03  0.626E-02    1.64       0.0  T
   2   -201.2780027 -0.270984E-05  0.374E-02    1.64       1.0  T
   3   -201.2780006  0.204242E-05  0.579E-03    1.64       1.6  T
   4   -201.2780034 -0.278827E-05  0.301E-03    1.64       3.0  T
   5   -201.2780036 -0.139745E-06  0.182E-03    1.64       4.9  T
   6   -201.2780036 -0.211785E-07  0.814E-04    1.64      11.0  T
   7   -201.2780036 -0.313269E-07  0.429E-04    1.64      20.9  T
     SCC iter.                  ...        0 min,  0.500 sec
     gradient                   ...        0 min,  0.048 sec
 * total energy  :  -198.0138403 Eh     change       -0.8066928E-03 Eh
   gradient norm :     0.0123581 Eh/α   predicted    -0.6694518E-03 ( -17.01%)
   displ. norm   :     0.6630173 α      lambda       -0.9729372E-03
   maximum displ.:     0.2452014 α      in ANC's #3, #9, #11, ...

........................................................................
.............................. CYCLE   26 ..............................
........................................................................

 iter      E             dE          RMSdq      gap      omega  full diag
   1   -201.2803885 -0.201280E+03  0.626E-02    1.63       0.0  T
   2   -201.2803924 -0.385468E-05  0.373E-02    1.63       1.0  T
   3   -201.2803889  0.343873E-05  0.647E-03    1.63       1.4  T
   4   -201.2803930 -0.405536E-05  0.288E-03    1.63       3.1  T
   5   -201.2803934 -0.402438E-06  0.174E-03    1.63       5.1  T
   6   -201.2803934 -0.622947E-08  0.904E-04    1.63       9.9  T
   7   -201.2803935 -0.650086E-07  0.377E-04    1.63      23.8  T
     SCC iter.                  ...        0 min,  0.597 sec
     gradient                   ...        0 min,  0.050 sec
 * total energy  :  -198.0146449 Eh     change       -0.8045527E-03 Eh
   gradient norm :     0.0064765 Eh/α   predicted    -0.7003532E-03 ( -12.95%)
   displ. norm   :     0.6577673 α      lambda       -0.7850676E-03
   maximum displ.:     0.2641876 α      in ANC's #3, #9, #11, ...

........................................................................
.............................. CYCLE   27 ..............................
........................................................................

 iter      E             dE          RMSdq      gap      omega  full diag
   1   -201.2837288 -0.201284E+03  0.613E-02    1.63       0.0  T
   2   -201.2837320 -0.317009E-05  0.364E-02    1.63       1.0  T
   3   -201.2837278  0.422992E-05  0.648E-03    1.63       1.4  T
   4   -201.2837324 -0.460223E-05  0.274E-03    1.62       3.3  T
   5   -201.2837329 -0.565085E-06  0.157E-03    1.63       5.7  T
   6   -201.2837330 -0.274135E-07  0.889E-04    1.63      10.1  T
   7   -201.2837330 -0.621402E-07  0.323E-04    1.63      27.8  T
     SCC iter.                  ...        0 min,  0.374 sec
     gradient                   ...        0 min,  0.048 sec
 * total energy  :  -198.0152981 Eh     change       -0.6532653E-03 Eh
   gradient norm :     0.0050287 Eh/α   predicted    -0.5623732E-03 ( -13.91%)
   displ. norm   :     0.6883632 α      lambda       -0.6638473E-03
   maximum displ.:     0.2918710 α      in ANC's #3, #9, #11, ...

........................................................................
.............................. CYCLE   28 ..............................
........................................................................

 iter      E             dE          RMSdq      gap      omega  full diag
   1   -201.2850349 -0.201285E+03  0.642E-02    1.62       0.0  T
   2   -201.2850374 -0.249163E-05  0.379E-02    1.62       1.0  T
   3   -201.2850318  0.557699E-05  0.674E-03    1.62       1.3  T
   4   -201.2850379 -0.610921E-05  0.235E-03    1.62       3.8  T
   5   -201.2850383 -0.448285E-06  0.136E-03    1.62       6.6  T
   6   -201.2850384 -0.416416E-07  0.781E-04    1.62      11.5  T
   7   -201.2850384 -0.354453E-07  0.334E-04    1.62      26.9  T
     SCC iter.                  ...        0 min,  0.461 sec
     gradient                   ...        0 min,  0.047 sec
 * total energy  :  -198.0158759 Eh     change       -0.5777525E-03 Eh
   gradient norm :     0.0059807 Eh/α   predicted    -0.4892173E-03 ( -15.32%)
   displ. norm   :     0.6818473 α      lambda       -0.6443823E-03
   maximum displ.:     0.3129835 α      in ANC's #3, #9, #11, ...

........................................................................
.............................. CYCLE   29 ..............................
........................................................................

 iter      E             dE          RMSdq      gap      omega  full diag
   1   -201.2885090 -0.201289E+03  0.651E-02    1.62       0.0  T
   2   -201.2885115 -0.255883E-05  0.383E-02    1.62       1.0  T
   3   -201.2885038  0.775126E-05  0.758E-03    1.62       1.2  T
   4   -201.2885122 -0.845984E-05  0.242E-03    1.62       3.7  T
   5   -201.2885127 -0.430796E-06  0.147E-03    1.62       6.1  T
   6   -201.2885127 -0.134111E-07  0.936E-04    1.62       9.6  T
   7   -201.2885127 -0.382954E-07  0.434E-04    1.62      20.7  T
     SCC iter.                  ...        0 min,  0.378 sec
     gradient                   ...        0 min,  0.050 sec
 * total energy  :  -198.0164147 Eh     change       -0.5388120E-03 Eh
   gradient norm :     0.0053221 Eh/α   predicted    -0.4719834E-03 ( -12.40%)
   displ. norm   :     0.7345662 α      lambda       -0.5704966E-03
   maximum displ.:     0.3414126 α      in ANC's #3, #9, #11, ...

........................................................................
.............................. CYCLE   30 ..............................
........................................................................

 iter      E             dE          RMSdq      gap      omega  full diag
   1   -201.2847255 -0.201285E+03  0.729E-02    1.62       0.0  T
   2   -201.2847289 -0.342024E-05  0.430E-02    1.62       1.0  T
   3   -201.2847203  0.865438E-05  0.875E-03    1.62       1.0  T
   4   -201.2847298 -0.954956E-05  0.347E-03    1.62       2.6  T
   5   -201.2847303 -0.502424E-06  0.233E-03    1.62       3.9  T
   6   -201.2847303  0.576720E-07  0.138E-03    1.62       6.5  T
   7   -201.2847304 -0.140259E-06  0.569E-04    1.62      15.8  T
   8   -201.2847304 -0.334086E-08  0.269E-04    1.62      33.4  T
     SCC iter.                  ...        0 min,  0.535 sec
     gradient                   ...        0 min,  0.055 sec
 * total energy  :  -198.0168462 Eh     change       -0.4315076E-03 Eh
   gradient norm :     0.0055928 Eh/α   predicted    -0.4391652E-03 (   1.77%)
   displ. norm   :     0.5774672 α      lambda       -0.4645467E-03
   maximum displ.:     0.3006979 α      in ANC's #3, #9, #8, ...

........................................................................
.............................. CYCLE   31 ..............................
........................................................................

 iter      E             dE          RMSdq      gap      omega  full diag
   1   -201.2887338 -0.201289E+03  0.610E-02    1.62       0.0  T
   2   -201.2887360 -0.221873E-05  0.359E-02    1.62       1.0  T
   3   -201.2887283  0.778146E-05  0.716E-03    1.62       1.3  T
   4   -201.2887364 -0.815763E-05  0.231E-03    1.62       3.9  T
   5   -201.2887371 -0.662851E-06  0.120E-03    1.62       7.5  T
   6   -201.2887371 -0.266467E-07  0.786E-04    1.62      11.4  T
   7   -201.2887371 -0.141438E-07  0.364E-04    1.62      24.7  T
     SCC iter.                  ...        0 min,  0.504 sec
     gradient                   ...        0 min,  0.047 sec
 * total energy  :  -198.0172004 Eh     change       -0.3542449E-03 Eh
   gradient norm :     0.0050205 Eh/α   predicted    -0.3097299E-03 ( -12.57%)
   displ. norm   :     0.5633386 α      lambda       -0.3322647E-03
   maximum displ.:     0.3015161 α      in ANC's #3, #9, #8, ...

........................................................................
.............................. CYCLE   32 ..............................
........................................................................

 iter      E             dE          RMSdq      gap      omega  full diag
   1   -201.2882249 -0.201288E+03  0.604E-02    1.62       0.0  T
   2   -201.2882264 -0.142170E-05  0.356E-02    1.62       1.0  T
   3   -201.2882212  0.520277E-05  0.609E-03    1.62       1.5  T
   4   -201.2882269 -0.574725E-05  0.201E-03    1.62       4.5  T
   5   -201.2882271 -0.177772E-06  0.135E-03    1.62       6.7  T
   6   -201.2882271 -0.566524E-07  0.725E-04    1.62      12.4  T
   7   -201.2882272 -0.201720E-07  0.294E-04    1.62      30.6  T
     SCC iter.                  ...        0 min,  0.474 sec
     gradient                   ...        0 min,  0.048 sec
 * total energy  :  -198.0174921 Eh     change       -0.2916918E-03 Eh
   gradient norm :     0.0044202 Eh/α   predicted    -0.2188574E-03 ( -24.97%)
   displ. norm   :     0.5338855 α      lambda       -0.3608162E-03
   maximum displ.:     0.3073425 α      in ANC's #3, #9, #8, ...

........................................................................
.............................. CYCLE   33 ..............................
........................................................................

 iter      E             dE          RMSdq      gap      omega  full diag
   1   -201.2901953 -0.201290E+03  0.630E-02    1.62       0.0  T
   2   -201.2901970 -0.172333E-05  0.371E-02    1.62       1.0  T
   3   -201.2901932  0.384058E-05  0.540E-03    1.62       1.7  T
   4   -201.2901976 -0.440414E-05  0.148E-03    1.62       6.0  T
   5   -201.2901977 -0.145755E-06  0.922E-04    1.62       9.7  T
   6   -201.2901978 -0.311831E-07  0.533E-04    1.62      16.8  T
     SCC iter.                  ...        0 min,  0.478 sec
     gradient                   ...        0 min,  0.049 sec
 * total energy  :  -198.0178135 Eh     change       -0.3213478E-03 Eh
   gradient norm :     0.0038447 Eh/α   predicted    -0.2318306E-03 ( -27.86%)
   displ. norm   :     0.6173802 α      lambda       -0.4323535E-03
   maximum displ.:     0.3621355 α      in ANC's #3, #9, #8, ...

........................................................................
.............................. CYCLE   34 ..............................
........................................................................

 iter      E             dE          RMSdq      gap      omega  full diag
   1   -201.2894936 -0.201289E+03  0.775E-02    1.62       0.0  T
   2   -201.2894960 -0.248764E-05  0.456E-02    1.62       1.0  T
   3   -201.2894917  0.433542E-05  0.618E-03    1.62       1.5  T
   4   -201.2894969 -0.522089E-05  0.165E-03    1.62       5.4  T
   5   -201.2894970 -0.124068E-06  0.987E-04    1.62       9.1  T
   6   -201.2894971 -0.890736E-08  0.573E-04    1.62      15.7  T
     SCC iter.                  ...        0 min,  0.445 sec
     gradient                   ...        0 min,  0.049 sec
 * total energy  :  -198.0182018 Eh     change       -0.3882767E-03 Eh
   gradient norm :     0.0048420 Eh/α   predicted    -0.2985769E-03 ( -23.10%)
   displ. norm   :     0.6756054 α      lambda       -0.5145030E-03
   maximum displ.:     0.4045098 α      in ANC's #3, #9, #4, ...

........................................................................
.............................. CYCLE   35 ..............................
........................................................................

 iter      E             dE          RMSdq      gap      omega  full diag
   1   -201.2909891 -0.201291E+03  0.900E-02    1.62       0.0  T
   2   -201.2909924 -0.331837E-05  0.529E-02    1.62       1.0  T
   3   -201.2909867  0.570758E-05  0.738E-03    1.62       1.2  T
   4   -201.2909937 -0.698786E-05  0.195E-03    1.62       4.6  T
   5   -201.2909939 -0.142049E-06  0.119E-03    1.62       7.6  T
   6   -201.2909939  0.778300E-09  0.649E-04    1.62      13.8  T
   7   -201.2909939 -0.221060E-07  0.311E-04    1.62      28.9  T
     SCC iter.                  ...        0 min,  0.389 sec
     gradient                   ...        0 min,  0.047 sec
 * total energy  :  -198.0186444 Eh     change       -0.4426146E-03 Eh
   gradient norm :     0.0066992 Eh/α   predicted    -0.3746746E-03 ( -15.35%)
   displ. norm   :     0.7029931 α      lambda       -0.5609287E-03
   maximum displ.:     0.4232573 α      in ANC's #3, #9, #4, ...

........................................................................
.............................. CYCLE   36 ..............................
........................................................................

 iter      E             dE          RMSdq      gap      omega  full diag
   1   -201.2903518 -0.201290E+03  0.942E-02    1.62       0.0  T
   2   -201.2903560 -0.420550E-05  0.552E-02    1.62       1.0  T
   3   -201.2903499  0.605941E-05  0.875E-03    1.62       1.0  T
   4   -201.2903575 -0.754701E-05  0.327E-03    1.62       2.7  T
   5   -201.2903576 -0.101113E-06  0.244E-03    1.62       3.7  T
   6   -201.2903575  0.985011E-07  0.133E-03    1.62       6.8  T
   7   -201.2903576 -0.135254E-06  0.605E-04    1.62      14.8  T
   8   -201.2903576 -0.101335E-07  0.315E-04    1.62      28.5  T
     SCC iter.                  ...        0 min,  0.428 sec
     gradient                   ...        0 min,  0.048 sec
 * total energy  :  -198.0191190 Eh     change       -0.4746169E-03 Eh
   gradient norm :     0.0070179 Eh/α   predicted    -0.4190711E-03 ( -11.70%)
   displ. norm   :     0.6978272 α      lambda       -0.5596873E-03
   maximum displ.:     0.4227777 α      in ANC's #3, #9, #10, ...

........................................................................
.............................. CYCLE   37 ..............................
........................................................................

 iter      E             dE          RMSdq      gap      omega  full diag
   1   -201.2898373 -0.201290E+03  0.915E-02    1.63       0.0  T
   2   -201.2898410 -0.375021E-05  0.538E-02    1.63       1.0  T
   3   -201.2898357  0.534211E-05  0.738E-03    1.62       1.2  T
   4   -201.2898421 -0.646329E-05  0.221E-03    1.63       4.1  T
   5   -201.2898424 -0.245055E-06  0.134E-03    1.63       6.7  T
   6   -201.2898424 -0.225473E-07  0.717E-04    1.63      12.5  T
   7   -201.2898424 -0.190174E-07  0.346E-04    1.63      25.9  T
     SCC iter.                  ...        0 min,  1.000 sec
     gradient                   ...        0 min,  0.060 sec
 * total energy  :  -198.0196125 Eh     change       -0.4935199E-03 Eh
   gradient norm :     0.0057302 Eh/α   predicted    -0.4161190E-03 ( -15.68%)
   displ. norm   :     0.7132451 α      lambda       -0.5984611E-03
   maximum displ.:     0.4293252 α      in ANC's #3, #10, #9, ...

........................................................................
.............................. CYCLE   38 ..............................
........................................................................

 iter      E             dE          RMSdq      gap      omega  full diag
   1   -201.2935935 -0.201294E+03  0.924E-02    1.63       0.0  T
   2   -201.2935977 -0.423415E-05  0.545E-02    1.63       1.0  T
   3   -201.2935905  0.718532E-05  0.863E-03    1.63       1.0  T
   4   -201.2935990 -0.842783E-05  0.327E-03    1.63       2.7  T
   5   -201.2935993 -0.327754E-06  0.212E-03    1.63       4.2  T
   6   -201.2935993 -0.338411E-07  0.115E-03    1.63       7.8  T
   7   -201.2935994 -0.514543E-07  0.537E-04    1.63      16.7  T
   8   -201.2935994 -0.123639E-07  0.288E-04    1.63      31.2  T
     SCC iter.                  ...        0 min,  1.467 sec
     gradient                   ...        0 min,  0.065 sec
 * total energy  :  -198.0201285 Eh     change       -0.5159517E-03 Eh
   gradient norm :     0.0052037 Eh/α   predicted    -0.4514566E-03 ( -12.50%)
   displ. norm   :     0.7839300 α      lambda       -0.5850219E-03
   maximum displ.:     0.4805851 α      in ANC's #3, #9, #10, ...

........................................................................
.............................. CYCLE   39 ..............................
........................................................................

 iter      E             dE          RMSdq      gap      omega  full diag
   1   -201.2888407 -0.201289E+03  0.102E-01    1.63       0.0  T
   2   -201.2888449 -0.420304E-05  0.603E-02    1.62       1.0  T
   3   -201.2888329  0.119450E-04  0.101E-02    1.63       1.0  T
   4   -201.2888465 -0.135895E-04  0.285E-03    1.62       3.2  T
   5   -201.2888469 -0.340497E-06  0.189E-03    1.62       4.8  T
   6   -201.2888470 -0.129099E-06  0.101E-03    1.62       8.9  T
   7   -201.2888470 -0.437741E-07  0.450E-04    1.62      20.0  T
   8   -201.2888471 -0.700106E-08  0.243E-04    1.62      37.0  T
     SCC iter.                  ...        0 min,  0.628 sec
     gradient                   ...        0 min,  0.050 sec
 * total energy  :  -198.0206242 Eh     change       -0.4957089E-03 Eh
   gradient norm :     0.0066603 Eh/α   predicted    -0.4722785E-03 (  -4.73%)
   displ. norm   :     0.6960955 α      lambda       -0.5918039E-03
   maximum displ.:     0.4288198 α      in ANC's #3, #10, #14, ...

........................................................................
.............................. CYCLE   40 ..............................
........................................................................

 iter      E             dE          RMSdq      gap      omega  full diag
   1   -201.2935661 -0.201294E+03  0.867E-02    1.62       0.0  T
   2   -201.2935707 -0.457804E-05  0.509E-02    1.62       1.0  T
   3   -201.2935560  0.146241E-04  0.107E-02    1.62       1.0  T
   4   -201.2935722 -0.161693E-04  0.273E-03    1.62       3.3  T
   5   -201.2935728 -0.641355E-06  0.147E-03    1.62       6.1  T
   6   -201.2935729 -0.358542E-07  0.911E-04    1.62       9.9  T
   7   -201.2935729 -0.481232E-07  0.389E-04    1.62      23.1  T
     SCC iter.                  ...        0 min,  0.418 sec
     gradient                   ...        0 min,  0.049 sec
 * total energy  :  -198.0210676 Eh     change       -0.4433856E-03 Eh
   gradient norm :     0.0070335 Eh/α   predicted    -0.4392834E-03 (  -0.93%)
   displ. norm   :     0.7664296 α      lambda       -0.5239883E-03
   maximum displ.:     0.4856918 α      in ANC's #3, #9, #10, ...

........................................................................
.............................. CYCLE   41 ..............................
........................................................................

 iter      E             dE          RMSdq      gap      omega  full diag
   1   -201.2872754 -0.201287E+03  0.100E-01    1.62       0.0  T
   2   -201.2872801 -0.471283E-05  0.590E-02    1.62       1.0  T
   3   -201.2872615  0.186804E-04  0.121E-02    1.62       1.0  T
   4   -201.2872823 -0.207943E-04  0.347E-03    1.62       2.6  T
   5   -201.2872828 -0.564825E-06  0.231E-03    1.62       3.9  T
   6   -201.2872828  0.323006E-07  0.145E-03    1.62       6.2  T
   7   -201.2872829 -0.109261E-06  0.647E-04    1.62      13.9  T
   8   -201.2872829 -0.159070E-07  0.347E-04    1.62      25.9  T
     SCC iter.                  ...        0 min,  0.732 sec
     gradient                   ...        0 min,  0.050 sec
 * total energy  :  -198.0214663 Eh     change       -0.3987860E-03 Eh
   gradient norm :     0.0078305 Eh/α   predicted    -0.4158983E-03 (   4.29%)
   displ. norm   :     0.5918827 α      lambda       -0.4152371E-03
   maximum displ.:     0.3963878 α      in ANC's #3, #9, #14, ...

........................................................................
.............................. CYCLE   42 ..............................
........................................................................

 iter      E             dE          RMSdq      gap      omega  full diag
   1   -201.2887081 -0.201289E+03  0.713E-02    1.62       0.0  T
   2   -201.2887103 -0.226521E-05  0.418E-02    1.62       1.0  T
   3   -201.2886976  0.127681E-04  0.940E-03    1.62       1.0  T
   4   -201.2887117 -0.141256E-04  0.243E-03    1.62       3.7  T
   5   -201.2887120 -0.257346E-06  0.160E-03    1.62       5.6  T
   6   -201.2887119  0.193353E-07  0.973E-04    1.62       9.2  T
   7   -201.2887120 -0.489344E-07  0.463E-04    1.62      19.4  T
     SCC iter.                  ...        0 min,  0.367 sec
     gradient                   ...        0 min,  0.050 sec
 * total energy  :  -198.0218025 Eh     change       -0.3361151E-03 Eh
   gradient norm :     0.0074744 Eh/α   predicted    -0.2803543E-03 ( -16.59%)
   displ. norm   :     0.6238749 α      lambda       -0.4739906E-03
   maximum displ.:     0.4314411 α      in ANC's #3, #9, #4, ...
 * RMSD in coord.:     1.0384636 α      energy gain  -0.1133005E-01 Eh

generating ANC from model Hessian ...
Using Lindh-Hessian (1995)
 Shifting diagonal of input Hessian by    9.9808831497778094E-003
 Lowest  eigenvalues of input Hessian
    0.000000    0.000000    0.000000    0.000000    0.000000    0.000000
    0.010000    0.010039    0.010055    0.010066    0.010073    0.010132
    0.010278    0.010430    0.010595    0.010759    0.010810    0.010948
 Highest eigenvalues
    2.160773    2.170853    2.293482    2.294435    2.523230    2.524989


........................................................................
.............................. CYCLE   43 ..............................
........................................................................

 iter      E             dE          RMSdq      gap      omega  full diag
   1   -201.2916376 -0.201292E+03  0.757E-02    1.62       0.0  T
   2   -201.2916417 -0.405464E-05  0.444E-02    1.62       1.0  T
   3   -201.2916295  0.122226E-04  0.102E-02    1.62       1.0  T
   4   -201.2916429 -0.134626E-04  0.372E-03    1.62       2.4  T
   5   -201.2916435 -0.556390E-06  0.249E-03    1.62       3.6  T
   6   -201.2916434  0.966883E-07  0.155E-03    1.62       5.8  T
   7   -201.2916436 -0.163780E-06  0.665E-04    1.62      13.5  T
   8   -201.2916436 -0.113412E-07  0.322E-04    1.62      27.9  T
     SCC iter.                  ...        0 min,  0.944 sec
     gradient                   ...        0 min,  0.053 sec
 * total energy  :  -198.0221458 Eh     change       -0.3433041E-03 Eh
   gradient norm :     0.0068132 Eh/α   predicted     0.0000000E+00 (-100.00%)
   displ. norm   :     0.0782619 α      lambda       -0.1493379E-03
   maximum displ.:     0.0364639 α      in ANC's #3, #22, #13, ...

........................................................................
.............................. CYCLE   44 ..............................
........................................................................

 iter      E             dE          RMSdq      gap      omega  full diag
   1   -201.2937094 -0.201294E+03  0.149E-02    1.62       0.0  T
   2   -201.2937102 -0.820100E-06  0.887E-03    1.62       1.0  T
   3   -201.2937095  0.740333E-06  0.309E-03    1.62       2.9  T
   4   -201.2937103 -0.807605E-06  0.108E-03    1.62       8.3  T
   5   -201.2937104 -0.140177E-06  0.507E-04    1.62      17.7  T
   6   -201.2937105 -0.464516E-08  0.340E-04    1.62      26.4  T
     SCC iter.                  ...        0 min,  1.276 sec
     gradient                   ...        0 min,  0.093 sec
 * total energy  :  -198.0222643 Eh     change       -0.1185581E-03 Eh
   gradient norm :     0.0026412 Eh/α   predicted    -0.7604514E-04 ( -35.86%)
   displ. norm   :     0.1991118 α      lambda       -0.2041991E-03
   maximum displ.:     0.0944583 α      in ANC's #3, #22, #13, ...

........................................................................
.............................. CYCLE   45 ..............................
........................................................................

 iter      E             dE          RMSdq      gap      omega  full diag
   1   -201.2958798 -0.201296E+03  0.315E-02    1.62       0.0  T
   2   -201.2958813 -0.149452E-05  0.186E-02    1.62       1.0  T
   3   -201.2958789  0.240083E-05  0.468E-03    1.62       1.9  T
   4   -201.2958815 -0.260506E-05  0.144E-03    1.62       6.2  T
   5   -201.2958817 -0.269430E-06  0.649E-04    1.62      13.8  T
   6   -201.2958818 -0.163775E-07  0.413E-04    1.62      21.7  T
     SCC iter.                  ...        0 min,  0.879 sec
     gradient                   ...        0 min,  0.055 sec
 * total energy  :  -198.0224128 Eh     change       -0.1484754E-03 Eh
   gradient norm :     0.0038053 Eh/α   predicted    -0.1061489E-03 ( -28.51%)
   displ. norm   :     0.2596010 α      lambda       -0.1677381E-03
   maximum displ.:     0.1269254 α      in ANC's #3, #22, #13, ...

........................................................................
.............................. CYCLE   46 ..............................
........................................................................

 iter      E             dE          RMSdq      gap      omega  full diag
   1   -201.2962970 -0.201296E+03  0.393E-02    1.62       0.0  T
   2   -201.2962981 -0.117763E-05  0.231E-02    1.62       1.0  T
   3   -201.2962965  0.162270E-05  0.393E-03    1.62       2.3  T
   4   -201.2962985 -0.195171E-05  0.113E-03    1.62       8.0  T
   5   -201.2962986 -0.768032E-07  0.670E-04    1.62      13.4  T
   6   -201.2962986 -0.158777E-07  0.386E-04    1.62      23.3  T
     SCC iter.                  ...        0 min,  0.759 sec
     gradient                   ...        0 min,  0.059 sec
 * total energy  :  -198.0225468 Eh     change       -0.1339890E-03 Eh
   gradient norm :     0.0057341 Eh/α   predicted    -0.8952848E-04 ( -33.18%)
   displ. norm   :     0.3673802 α      lambda       -0.2073335E-03
   maximum displ.:     0.1827009 α      in ANC's #3, #13, #22, ...

........................................................................
.............................. CYCLE   47 ..............................
........................................................................

 iter      E             dE          RMSdq      gap      omega  full diag
   1   -201.2952734 -0.201295E+03  0.554E-02    1.63       0.0  T
   2   -201.2952753 -0.187173E-05  0.326E-02    1.62       1.0  T
   3   -201.2952729  0.244986E-05  0.496E-03    1.62       1.8  T
   4   -201.2952759 -0.307843E-05  0.143E-03    1.62       6.3  T
   5   -201.2952760 -0.631708E-07  0.885E-04    1.62      10.1  T
   6   -201.2952760 -0.209699E-07  0.465E-04    1.62      19.3  T
     SCC iter.                  ...        0 min,  0.427 sec
     gradient                   ...        0 min,  0.054 sec
 * total energy  :  -198.0227133 Eh     change       -0.1664774E-03 Eh
   gradient norm :     0.0053512 Eh/α   predicted    -0.1176588E-03 ( -29.32%)
   displ. norm   :     0.4089037 α      lambda       -0.2103054E-03
   maximum displ.:     0.2110924 α      in ANC's #3, #13, #18, ...

........................................................................
.............................. CYCLE   48 ..............................
........................................................................

 iter      E             dE          RMSdq      gap      omega  full diag
   1   -201.2938373 -0.201294E+03  0.612E-02    1.62       0.0  T
   2   -201.2938394 -0.212872E-05  0.359E-02    1.62       1.0  T
   3   -201.2938332  0.616858E-05  0.684E-03    1.63       1.3  T
   4   -201.2938402 -0.693387E-05  0.177E-03    1.62       5.1  T
   5   -201.2938404 -0.227294E-06  0.104E-03    1.62       8.7  T
   6   -201.2938405 -0.510368E-07  0.516E-04    1.62      17.4  T
   7   -201.2938405 -0.121222E-07  0.250E-04    1.62      36.0  T
     SCC iter.                  ...        0 min,  0.404 sec
     gradient                   ...        0 min,  0.058 sec
 * total energy  :  -198.0228825 Eh     change       -0.1692062E-03 Eh
   gradient norm :     0.0039874 Eh/α   predicted    -0.1227362E-03 ( -27.46%)
   displ. norm   :     0.4139226 α      lambda       -0.2115070E-03
   maximum displ.:     0.2227547 α      in ANC's #3, #13, #18, ...

........................................................................
.............................. CYCLE   49 ..............................
........................................................................

 iter      E             dE          RMSdq      gap      omega  full diag
   1   -201.2931987 -0.201293E+03  0.604E-02    1.62       0.0  T
   2   -201.2932008 -0.206157E-05  0.355E-02    1.62       1.0  T
   3   -201.2931903  0.104874E-04  0.846E-03    1.62       1.1  T
   4   -201.2932018 -0.115236E-04  0.181E-03    1.62       5.0  T
   5   -201.2932021 -0.265885E-06  0.103E-03    1.62       8.7  T
   6   -201.2932021 -0.425017E-07  0.539E-04    1.62      16.7  T
   7   -201.2932021 -0.120082E-07  0.280E-04    1.62      32.0  T
     SCC iter.                  ...        0 min,  0.581 sec
     gradient                   ...        0 min,  0.047 sec
 * total energy  :  -198.0230567 Eh     change       -0.1742129E-03 Eh
   gradient norm :     0.0041261 Eh/α   predicted    -0.1238787E-03 ( -28.89%)
   displ. norm   :     0.4383482 α      lambda       -0.2378563E-03
   maximum displ.:     0.2443219 α      in ANC's #3, #13, #18, ...

........................................................................
.............................. CYCLE   50 ..............................
........................................................................

 iter      E             dE          RMSdq      gap      omega  full diag
   1   -201.2936527 -0.201294E+03  0.616E-02    1.62       0.0  T
   2   -201.2936549 -0.218805E-05  0.362E-02    1.62       1.0  T
   3   -201.2936385  0.163859E-04  0.104E-02    1.62       1.0  T
   4   -201.2936564 -0.178898E-04  0.209E-03    1.62       4.3  T
   5   -201.2936567 -0.319430E-06  0.121E-03    1.62       7.4  T
   6   -201.2936567 -0.315953E-07  0.678E-04    1.62      13.3  T
   7   -201.2936568 -0.183563E-07  0.360E-04    1.62      24.9  T
     SCC iter.                  ...        0 min,  0.376 sec
     gradient                   ...        0 min,  0.050 sec
 * total energy  :  -198.0232510 Eh     change       -0.1943330E-03 Eh
   gradient norm :     0.0052279 Eh/α   predicted    -0.1418661E-03 ( -27.00%)
   displ. norm   :     0.4538166 α      lambda       -0.2278109E-03
   maximum displ.:     0.2609331 α      in ANC's #3, #13, #18, ...

........................................................................
.............................. CYCLE   51 ..............................
........................................................................

 iter      E             dE          RMSdq      gap      omega  full diag
   1   -201.2942389 -0.201294E+03  0.609E-02    1.62       0.0  T
   2   -201.2942410 -0.212363E-05  0.358E-02    1.62       1.0  T
   3   -201.2942244  0.166208E-04  0.105E-02    1.62       1.0  T
   4   -201.2942425 -0.181157E-04  0.218E-03    1.62       4.1  T
   5   -201.2942429 -0.339448E-06  0.130E-03    1.62       6.9  T
   6   -201.2942429 -0.283987E-07  0.743E-04    1.62      12.1  T
   7   -201.2942429 -0.222249E-07  0.372E-04    1.62      24.2  T
     SCC iter.                  ...        0 min,  0.386 sec
     gradient                   ...        0 min,  0.048 sec
 * total energy  :  -198.0234303 Eh     change       -0.1792856E-03 Eh
   gradient norm :     0.0050218 Eh/α   predicted    -0.1373660E-03 ( -23.38%)
   displ. norm   :     0.4070253 α      lambda       -0.1627510E-03
   maximum displ.:     0.2431104 α      in ANC's #3, #13, #18, ...

........................................................................
.............................. CYCLE   52 ..............................
........................................................................

 iter      E             dE          RMSdq      gap      omega  full diag
   1   -201.2947178 -0.201295E+03  0.521E-02    1.62       0.0  T
   2   -201.2947194 -0.160729E-05  0.306E-02    1.62       1.0  T
   3   -201.2947104  0.904078E-05  0.791E-03    1.62       1.1  T
   4   -201.2947202 -0.981757E-05  0.189E-03    1.62       4.8  T
   5   -201.2947205 -0.294755E-06  0.112E-03    1.62       8.0  T
   6   -201.2947205 -0.304756E-07  0.670E-04    1.62      13.4  T
   7   -201.2947205 -0.145220E-07  0.326E-04    1.62      27.5  T
     SCC iter.                  ...        0 min,  0.342 sec
     gradient                   ...        0 min,  0.051 sec
 * total energy  :  -198.0235576 Eh     change       -0.1272804E-03 Eh
   gradient norm :     0.0034805 Eh/α   predicted    -0.9485741E-04 ( -25.47%)
   displ. norm   :     0.3289921 α      lambda       -0.1135841E-03
   maximum displ.:     0.2046705 α      in ANC's #3, #13, #8, ...

........................................................................
.............................. CYCLE   53 ..............................
........................................................................

 iter      E             dE          RMSdq      gap      omega  full diag
   1   -201.2957524 -0.201296E+03  0.400E-02    1.62       0.0  T
   2   -201.2957535 -0.107505E-05  0.235E-02    1.62       1.0  T
   3   -201.2957504  0.310382E-05  0.493E-03    1.62       1.8  T
   4   -201.2957537 -0.336074E-05  0.148E-03    1.62       6.1  T
   5   -201.2957539 -0.203516E-06  0.848E-04    1.62      10.6  T
   6   -201.2957539 -0.192607E-07  0.526E-04    1.62      17.1  T
     SCC iter.                  ...        0 min,  0.396 sec
     gradient                   ...        0 min,  0.048 sec
 * total energy  :  -198.0236511 Eh     change       -0.9351060E-04 Eh
   gradient norm :     0.0020544 Eh/α   predicted    -0.6293939E-04 ( -32.69%)
   displ. norm   :     0.3068811 α      lambda       -0.1057622E-03
   maximum displ.:     0.1944790 α      in ANC's #3, #13, #8, ...

........................................................................
[...]
    29   6 C    3.966 --    35 N    1.384    31 N    1.382    25 C    1.046
    30   6 C    3.966 --    37 N    1.383    41 N    1.383     3 C    1.046
    31   7 N    2.905 --    29 C    1.382    32 N    1.157    35 N    0.123
    32   7 N    3.627 --    31 N    1.157    33 C    1.093    52 C    1.049
                            36 O    0.122
    33   6 C    3.959 --    36 O    1.631    34 N    1.097    32 N    1.093
    34   7 N    3.619 --    35 N    1.158    33 C    1.097    58 C    1.034
                            36 O    0.126
    35   7 N    2.901 --    29 C    1.384    34 N    1.158    31 N    0.123
    36   8 O    1.998 --    33 C    1.631    34 N    0.126    32 N    0.122
    37   7 N    2.900 --    30 C    1.383    38 N    1.158    41 N    0.123
    38   7 N    3.618 --    37 N    1.158    39 C    1.096    70 C    1.035
                            42 O    0.126
    39   6 C    3.959 --    42 O    1.631    38 N    1.096    40 N    1.095
    40   7 N    3.627 --    41 N    1.158    39 C    1.095    64 C    1.048
                            42 O    0.122
    41   7 N    2.906 --    30 C    1.383    40 N    1.158    37 N    0.123
    42   8 O    1.999 --    39 C    1.631    38 N    0.126    40 N    0.122
    43   7 N    3.549 --    16 C    1.144    12 C    1.144    51 C    1.007
    44  14 Si   3.619 --    50 C    0.902    49 C    0.902    48 C    0.896
                            45 C    0.844
    45   6 C    3.968 --    46 C    1.024    95 H    0.982    96 H    0.981
                            44 Si   0.844
    46   6 C    3.943 --    45 C    1.024    97 H    0.972    98 H    0.971
                            47 O    0.964
    47   8 O    2.068 --    51 C    0.982    46 C    0.964
    48   6 C    3.980 --    90 H    0.991    91 H    0.987    89 H    0.987
                            44 Si   0.896
    49   6 C    3.981 --    87 H    0.987    86 H    0.987    88 H    0.986
                            44 Si   0.902
    50   6 C    3.981 --    94 H    0.987    92 H    0.987    93 H    0.986
                            44 Si   0.902
    51   6 C    3.956 --    43 N    1.007    47 O    0.982    99 H    0.954
                           100 H    0.954
    52   6 C    3.951 --    57 C    1.367    53 C    1.353    32 N    1.049
    53   6 C    3.984 --    54 C    1.466    52 C    1.353    85 H    0.963
                            56 C    0.106
    54   6 C    3.991 --    53 C    1.466    55 C    1.421    84 H    0.970
                            57 C    0.103
    55   6 C    3.973 --    56 C    1.433    54 C    1.421    83 H    0.971
    56   6 C    3.990 --    57 C    1.451    55 C    1.433    82 H    0.970
                            53 C    0.106
    57   6 C    3.981 --    56 C    1.451    52 C    1.367    81 H    0.959
                            54 C    0.103
    58   6 C    3.952 --    59 C    1.375    63 C    1.364    34 N    1.034
    59   6 C    3.984 --    60 C    1.449    58 C    1.375    80 H    0.965
                            62 C    0.106
    60   6 C    3.990 --    59 C    1.449    61 C    1.435    79 H    0.970
                            63 C    0.107
    61   6 C    3.976 --    60 C    1.435    62 C    1.425    78 H    0.971
    62   6 C    3.991 --    63 C    1.461    61 C    1.425    77 H    0.970
                            59 C    0.106
    63   6 C    3.984 --    62 C    1.461    58 C    1.364    76 H    0.963
                            60 C    0.107
    64   6 C    3.950 --    65 C    1.367    69 C    1.353    40 N    1.048
    65   6 C    3.981 --    66 C    1.451    64 C    1.367   110 H    0.959
                            68 C    0.103
    66   6 C    3.990 --    65 C    1.451    67 C    1.433   111 H    0.970
                            69 C    0.106
    67   6 C    3.973 --    66 C    1.433    68 C    1.421   112 H    0.971
    68   6 C    3.991 --    69 C    1.466    67 C    1.421   113 H    0.970
                            65 C    0.103
    69   6 C    3.984 --    68 C    1.466    64 C    1.353   114 H    0.962
                            66 C    0.106
    70   6 C    3.952 --    75 C    1.375    71 C    1.363    38 N    1.035
    71   6 C    3.984 --    72 C    1.462    70 C    1.363   105 H    0.963
                            74 C    0.107
    72   6 C    3.991 --    71 C    1.462    73 C    1.424   106 H    0.970
                            75 C    0.105
    73   6 C    3.976 --    74 C    1.435    72 C    1.424   107 H    0.971
    74   6 C    3.990 --    75 C    1.449    73 C    1.435   108 H    0.970
                            71 C    0.107
    75   6 C    3.984 --    74 C    1.449    70 C    1.375   109 H    0.964
                            72 C    0.105
    76   1 H    0.996 --    63 C    0.963
    77   1 H    0.998 --    62 C    0.970
    78   1 H    0.998 --    61 C    0.971
    79   1 H    0.998 --    60 C    0.970
    80   1 H    0.996 --    59 C    0.965
    81   1 H    0.994 --    57 C    0.959
    82   1 H    0.998 --    56 C    0.970
    83   1 H    0.999 --    55 C    0.971
    84   1 H    0.998 --    54 C    0.970
    85   1 H    0.996 --    53 C    0.963
    86   1 H    0.999 --    49 C    0.987
    87   1 H    0.998 --    49 C    0.987
    88   1 H    0.999 --    49 C    0.986
    89   1 H    0.999 --    48 C    0.987
    90   1 H    0.999 --    48 C    0.991
    91   1 H    0.999 --    48 C    0.987
    92   1 H    0.999 --    50 C    0.987
    93   1 H    0.998 --    50 C    0.986
    94   1 H    0.998 --    50 C    0.987
    95   1 H    0.998 --    45 C    0.982
    96   1 H    0.998 --    45 C    0.981
    97   1 H    1.000 --    46 C    0.972
    98   1 H    1.000 --    46 C    0.971
    99   1 H    0.998 --    51 C    0.954
   100   1 H    0.998 --    51 C    0.954
   101   1 H    0.998 --    13 C    0.963
   102   1 H    0.998 --    14 C    0.968
   103   1 H    0.998 --     9 C    0.967
   104   1 H    0.998 --    10 C    0.967
   105   1 H    0.996 --    71 C    0.963
   106   1 H    0.998 --    72 C    0.970
   107   1 H    0.998 --    73 C    0.971
   108   1 H    0.998 --    74 C    0.970
   109   1 H    0.996 --    75 C    0.964
   110   1 H    0.994 --    65 C    0.959
   111   1 H    0.998 --    66 C    0.970
   112   1 H    0.999 --    67 C    0.971
   113   1 H    0.998 --    68 C    0.970
   114   1 H    0.996 --    69 C    0.962
   115   1 H    0.998 --    19 C    0.968
   116   1 H    0.997 --    20 C    0.965
   117   1 H    0.998 --     1 C    0.968
   118   1 H    0.997 --     2 C    0.967
   119   1 H    0.996 --     4 C    0.956
   120   1 H    0.996 --    28 C    0.956
   121   1 H    0.997 --    26 C    0.967
   122   1 H    0.998 --    27 C    0.968
   123   1 H    0.998 --    23 C    0.967
   124   1 H    0.998 --    24 C    0.967
 ---------------------------------------------------------------------------

Topologies differ in bond orders
Writing corrected topology to xtbtopo.mol

molecular dipole:
                 x           y           z       tot (Debye)
 q only:        1.783       1.119       0.418
   full:        1.833       1.283       0.220       5.714
molecular quadrupole (traceless):
                xx          xy          yy          xz          yz          zz
 q only:       35.346      48.662      -9.327      10.218      10.620     -26.019
  q+dip:       40.225      48.309       3.665       5.400      10.058     -43.890
   full:       30.663      48.066      -5.737       3.361       5.689     -24.926

           -------------------------------------------------
          |                Geometry Summary                 |
           -------------------------------------------------

      molecular mass/u    :      996.1987649
   center of mass at/Å    :        0.8466844       0.9504850      -1.0698670
  moments of inertia/u·Å² :        0.1405749E+05   0.2297927E+05   0.3417855E+05
rotational constants/cm⁻¹ :        0.1199192E-02   0.7336019E-03   0.4932226E-03

 * 131 selected distances

     #   Z          #   Z                                           value/Å
     1   6 C        2   6 C                                       1.3689049
     2   6 C        3   6 C                                       1.4028839
     3   6 C        4   6 C                                       1.3797005
     4   6 C        5   6 C                                       1.3981538
     1   6 C        6   6 C                                       1.4067225
     5   6 C        6   6 C                                       1.4163210
     7   6 C        8   6 C                                       1.4146585
     8   6 C        9   6 C                                       1.4221566
     6   6 C       10   6 C                                       1.4193393
     9   6 C       10   6 C                                       1.3544724
     7   6 C       11   6 C                                       1.4224660
    11   6 C       12   6 C                                       1.4148982
    12   6 C       13   6 C                                       1.3963646
     8   6 C       14   6 C                                       1.4094074
    13   6 C       14   6 C                                       1.3667636
    15   6 C       16   6 C                                       1.4134175
    15   6 C       17   6 C                                       1.4226723
    17   6 C       18   6 C                                       1.4147735
    18   6 C       19   6 C                                       1.4099903
    16   6 C       20   6 C                                       1.3960924
    19   6 C       20   6 C                                       1.3667345
    21   6 C       22   6 C                                       1.4161744
    22   6 C       23   6 C                                       1.4192416
    18   6 C       24   6 C                                       1.4221344
    23   6 C       24   6 C                                       1.3546189
    25   6 C       26   6 C                                       1.4029973
    22   6 C       27   6 C                                       1.4068261
    26   6 C       27   6 C                                       1.3688805
    21   6 C       28   6 C                                       1.3981583
    25   6 C       28   6 C                                       1.3795116
    29   6 C       31   7 N                                       1.3188365
    31   7 N       32   7 N                                       1.3514644
    32   7 N       33   6 C                                       1.3905954
    33   6 C       34   7 N                                       1.3890205
    29   6 C       35   7 N                                       1.3183016
    34   7 N       35   7 N                                       1.3508342
    33   6 C       36   8 O                                       1.2105485
    30   6 C       37   7 N                                       1.3183623
    37   7 N       38   7 N                                       1.3509020
    38   7 N       39   6 C                                       1.3898156
    39   6 C       40   7 N                                       1.3901051
    30   6 C       41   7 N                                       1.3185695
    40   7 N       41   7 N                                       1.3513952
    39   6 C       42   8 O                                       1.2105646
    12   6 C       43   7 N                                       1.3730468
    16   6 C       43   7 N                                       1.3724675
    44  14 Si      45   6 C                                       1.9154150 (max)
    45   6 C       46   6 C                                       1.5156591
    46   6 C       47   8 O                                       1.4131091
    44  14 Si      48   6 C                                       1.9060822
    44  14 Si      49   6 C                                       1.9090866
    44  14 Si      50   6 C                                       1.9094081
    43   7 N       51   6 C                                       1.4237361
    47   8 O       51   6 C                                       1.4033986
    32   7 N       52   6 C                                       1.4078968
    52   6 C       53   6 C                                       1.3971412
    53   6 C       54   6 C                                       1.3786542
    54   6 C       55   6 C                                       1.3858815
    55   6 C       56   6 C                                       1.3843461
    52   6 C       57   6 C                                       1.3933962
    56   6 C       57   6 C                                       1.3828688
    34   7 N       58   6 C                                       1.4093966
    58   6 C       59   6 C                                       1.3911802
    59   6 C       60   6 C                                       1.3830486
    60   6 C       61   6 C                                       1.3848557
    61   6 C       62   6 C                                       1.3861745
    58   6 C       63   6 C                                       1.3944117
    62   6 C       63   6 C                                       1.3798424
    40   7 N       64   6 C                                       1.4083935
    64   6 C       65   6 C                                       1.3933869
    65   6 C       66   6 C                                       1.3829506
    66   6 C       67   6 C                                       1.3843436
    67   6 C       68   6 C                                       1.3859631
    64   6 C       69   6 C                                       1.3972121
    68   6 C       69   6 C                                       1.3786501
    38   7 N       70   6 C                                       1.4092547
    70   6 C       71   6 C                                       1.3947052
    71   6 C       72   6 C                                       1.3796708
    72   6 C       73   6 C                                       1.3862307
    73   6 C       74   6 C                                       1.3847568
    70   6 C       75   6 C                                       1.3912455
    74   6 C       75   6 C                                       1.3831284
    63   6 C       76   1 H                                       1.0786642
    62   6 C       77   1 H                                       1.0798509
    61   6 C       78   1 H                                       1.0796304
    60   6 C       79   1 H                                       1.0796453
    59   6 C       80   1 H                                       1.0767858
    57   6 C       81   1 H                                       1.0757397
    56   6 C       82   1 H                                       1.0799820
    55   6 C       83   1 H                                       1.0798256
    54   6 C       84   1 H                                       1.0798450
    53   6 C       85   1 H                                       1.0772493
    49   6 C       86   1 H                                       1.0860700
    49   6 C       87   1 H                                       1.0857425
    49   6 C       88   1 H                                       1.0859437
    48   6 C       89   1 H                                       1.0855114
    48   6 C       90   1 H                                       1.0851567
    48   6 C       91   1 H                                       1.0854759
    50   6 C       92   1 H                                       1.0860849
    50   6 C       93   1 H                                       1.0859513
    50   6 C       94   1 H                                       1.0857473
    45   6 C       95   1 H                                       1.0897337
    45   6 C       96   1 H                                       1.0896704
    46   6 C       97   1 H                                       1.1007085
    46   6 C       98   1 H                                       1.1011530
    51   6 C       99   1 H                                       1.1052853
    51   6 C      100   1 H                                       1.1029134
    13   6 C      101   1 H                                       1.0789223
    14   6 C      102   1 H                                       1.0798325
     9   6 C      103   1 H                                       1.0806433
    10   6 C      104   1 H                                       1.0813497
    71   6 C      105   1 H                                       1.0786572
    72   6 C      106   1 H                                       1.0798724
    73   6 C      107   1 H                                       1.0796555
    74   6 C      108   1 H                                       1.0796648
    75   6 C      109   1 H                                       1.0767015
    65   6 C      110   1 H                                       1.0757277
    66   6 C      111   1 H                                       1.0800284
    67   6 C      112   1 H                                       1.0798481
    68   6 C      113   1 H                                       1.0796906
    69   6 C      114   1 H                                       1.0771587
    19   6 C      115   1 H                                       1.0797785
    20   6 C      116   1 H                                       1.0785177
     1   6 C      117   1 H                                       1.0820043
     2   6 C      118   1 H                                       1.0783765
     4   6 C      119   1 H                                       1.0754384 (min)
    28   6 C      120   1 H                                       1.0755005
    26   6 C      121   1 H                                       1.0783788
    27   6 C      122   1 H                                       1.0819796
    23   6 C      123   1 H                                       1.0813635
    24   6 C      124   1 H                                       1.0806674

 * 6 distinct bonds (by element types)

   Z      Z             #   av. dist./Å        max./Å        min./Å
   1 H    6 C          49     1.0826148     1.1052853     1.0754384
   6 C    6 C          55     1.3960935     1.5156591     1.3544724
   6 C    7 N          15     1.3758532     1.4237361     1.3183016
   7 N    7 N           4     1.3511489     1.3514644     1.3508342
   6 C    8 O           4     1.3094052     1.4131091     1.2105485
   6 C   14 Si          4     1.9099980     1.9154150     1.9060822


optimized geometry written to: xtbopt.mol


           -------------------------------------------------
          | TOTAL ENERGY             -198.026688769547 Eh   |
          | GRADIENT NORM               0.000507090005 Eh/α |
          | HOMO-LUMO GAP               1.612322869640 eV   |
           -------------------------------------------------
########################################################################
[WARNING] Runtime exception occurred
-3- restart_readRestart: Dimension missmatch in restart file.
-2- restart_readRestart: Multiplicity missmatch in restart file.
-1- restart_readRestart: Number of electron missmatch in restart file.
########################################################################

------------------------------------------------------------------------
 * finished run on 2024/11/14 at 14:17:20.371     
------------------------------------------------------------------------
 total:
 * wall-time:     0 d,  0 h,  1 min,  9.417 sec
 *  cpu-time:     0 d,  0 h,  4 min,  8.474 sec
 * ratio c/w:     3.579 speedup
 SCF:
 * wall-time:     0 d,  0 h,  0 min,  1.650 sec
 *  cpu-time:     0 d,  0 h,  0 min,  6.273 sec
Note: The following floating-point exceptions are signalling: IEEE_UNDERFLOW_FLAG
normal termination of xtb
 * ratio c/w:     3.801 speedup
 ANC optimizer:
 * wall-time:     0 d,  0 h,  1 min,  7.691 sec
 *  cpu-time:     0 d,  0 h,  4 min,  2.150 sec
 * ratio c/w:     3.577 speedup

