      -----------------------------------------------------------      
     |                   =====================                   |     
     |                           x T B                           |     
     |                   =====================                   |     
     |                         S. Grimme                         |     
     |          Mulliken Center for Theoretical Chemistry        |     
     |                    University of Bonn                     |     
      -----------------------------------------------------------      

   * xtb version 6.6.1 (8d0f1dd) compiled by 'runner@Mac-1690902418499.local' on 2023-08-01

   xtb is free software: you can redistribute it and/or modify it under
   the terms of the GNU Lesser General Public License as published by
   the Free Software Foundation, either version 3 of the License, or
   (at your option) any later version.
   
   xtb is distributed in the hope that it will be useful,
   but WITHOUT ANY WARRANTY; without even the implied warranty of
   MERCHANTABILITY or FITNESS FOR A PARTICULAR PURPOSE.  See the
   GNU Lesser General Public License for more details.
   
   Cite this work as:
   * C. Bannwarth, E. Caldeweyher, S. Ehlert, A. Hansen, P. Pracht,
     J. Seibert, S. Spicher, S. Grimme, WIREs Comput. Mol. Sci., 2020, 11,
     e01493. DOI: 10.1002/wcms.1493
   
   for GFN2-xTB:
   * C. Bannwarth, S. Ehlert and S. Grimme., J. Chem. Theory Comput., 2019,
     15, 1652-1671. DOI: 10.1021/acs.jctc.8b01176
   for GFN1-xTB:
   * S. Grimme, C. Bannwarth, P. Shushkov, J. Chem. Theory Comput., 2017,
     13, 1989-2009. DOI: 10.1021/acs.jctc.7b00118
   for GFN0-xTB:
   * P. Pracht, E. Caldeweyher, S. Ehlert, S. Grimme, ChemRxiv, 2019, preprint.
     DOI: 10.26434/chemrxiv.8326202.v1
   for GFN-FF:
   * S. Spicher and S. Grimme, Angew. Chem. Int. Ed., 2020, 59, 15665-15673.
     DOI: 10.1002/anie.202004239
   
   for ALPB and GBSA implicit solvation:
   * S. Ehlert, M. Stahn, S. Spicher, S. Grimme, J. Chem. Theory Comput.,
     2021, 17, 4250-4261. DOI: 10.1021/acs.jctc.1c00471
   
   for DFT-D4:
   * E. Caldeweyher, C. Bannwarth and S. Grimme, J. Chem. Phys., 2017,
     147, 034112. DOI: 10.1063/1.4993215
   * E. Caldeweyher, S. Ehlert, A. Hansen, H. Neugebauer, S. Spicher,
     C. Bannwarth and S. Grimme, J. Chem. Phys., 2019, 150, 154122.
     DOI: 10.1063/1.5090222
   * E. Caldeweyher, J.-M. Mewes, S. Ehlert and S. Grimme, Phys. Chem. Chem. Phys.
     2020, 22, 8499-8512. DOI: 10.1039/D0CP00502A
   
   for sTDA-xTB:
   * S. Grimme and C. Bannwarth, J. Chem. Phys., 2016, 145, 054103.
     DOI: 10.1063/1.4959605
   
   in the mass-spec context:
   * V. Asgeirsson, C. Bauer and S. Grimme, Chem. Sci., 2017, 8, 4879.
     DOI: 10.1039/c7sc00601b
   * J. Koopman and S. Grimme, ACS Omega 2019, 4, 12, 15120-15133.
     DOI: 10.1021/acsomega.9b02011
   
   for metadynamics refer to:
   * S. Grimme, J. Chem. Theory Comput., 2019, 155, 2847-2862
     DOI: 10.1021/acs.jctc.9b00143
   
   for SPH calculations refer to:
   * S. Spicher and S. Grimme, J. Chem. Theory Comput., 2021, 17, 1701-1714
     DOI: 10.1021/acs.jctc.0c01306
   
   with help from (in alphabetical order)
   P. Atkinson, C. Bannwarth, F. Bohle, G. Brandenburg, E. Caldeweyher
   M. Checinski, S. Dohm, S. Ehlert, S. Ehrlich, I. Gerasimov, C. Hölzer
   A. Katbashev, J. Koopman, C. Lavigne, S. Lehtola, F. März, M. Müller,
   F. Musil, H. Neugebauer, J. Pisarek, C. Plett, P. Pracht, F. Pultar,
   J. Seibert, P. Shushkov, S. Spicher, M. Stahn, M. Steiner, T. Strunk,
   J. Stückrath, T. Rose, and J. Unsleber
   
 * started run on 2024/11/12 at 09:12:16.721     

           -------------------------------------------------
          |                Calculation Setup                |
           -------------------------------------------------

          program call               : xtb opt_radical_Katherine3.mol --gfn2 --sp --chrg -1 --uhf 0
          coordinate file            : opt_radical_Katherine3.mol
          omp threads                :                     8

   ID    Z sym.   atoms
    1    6 C      1-21, 26-38, 75
    2    8 O      22-25
    3    1 H      39-74, 76-78

           -------------------------------------------------
          |                 G F N 2 - x T B                 |
           -------------------------------------------------

        Reference                      10.1021/acs.jctc.8b01176
      * Hamiltonian:
        H0-scaling (s, p, d)           1.850000    2.230000    2.230000
        zeta-weighting                 0.500000
      * Dispersion:
        s8                             2.700000
        a1                             0.520000
        a2                             5.000000
        s9                             5.000000
      * Repulsion:
        kExp                           1.500000    1.000000
        rExp                           1.000000
      * Coulomb:
        alpha                          2.000000
        third order                    shell-resolved
        anisotropic                    true
        a3                             3.000000
        a5                             4.000000
        cn-shift                       1.200000
        cn-exp                         4.000000
        max-rad                        5.000000

q/qsh data taken from xtbrestart
CAMM data taken from xtbrestart

          ...................................................
          :                      SETUP                      :
          :.................................................:
          :  # basis functions                 195          :
          :  # atomic orbitals                 195          :
          :  # shells                          117          :
          :  # electrons                       204          :
          :  max. iterations                   250          :
          :  Hamiltonian                  GFN2-xTB          :
          :  restarted?                       true          :
          :  GBSA solvation                  false          :
          :  PC potential                    false          :
          :  electronic temp.          300.0000000     K    :
          :  accuracy                    1.0000000          :
          :  -> integral cutoff          0.2500000E+02      :
          :  -> integral neglect         0.1000000E-07      :
          :  -> SCF convergence          0.1000000E-05 Eh   :
          :  -> wf. convergence          0.1000000E-03 e    :
          :  Broyden damping             0.4000000          :
          ...................................................

 iter      E             dE          RMSdq      gap      omega  full diag
   1   -113.0799287 -0.113080E+03  0.577E-01    1.47       0.0  T
   2   -113.0946701 -0.147414E-01  0.462E-01    1.16       1.0  T
   3   -113.1038120 -0.914193E-02  0.274E-01    1.34       1.0  T
   4   -113.1042507 -0.438632E-03  0.169E-01    1.30       1.0  T
   5   -113.1046900 -0.439311E-03  0.751E-02    1.32       1.0  T
   6   -113.1049951 -0.305104E-03  0.184E-02    1.32       1.0  T
   7   -113.1050086 -0.135243E-04  0.846E-03    1.32       1.3  T
   8   -113.1050094 -0.814993E-06  0.475E-03    1.32       2.4  T
   9   -113.1050102 -0.782315E-06  0.136E-03    1.32       8.3  T
  10   -113.1050102 -0.418743E-07  0.718E-04    1.32      15.8  T
  11   -113.1050103 -0.352176E-07  0.351E-04    1.32      32.3  T

   *** convergence criteria satisfied after 11 iterations ***

         #    Occupation            Energy/Eh            Energy/eV
      -------------------------------------------------------------
         1        2.0000           -0.6059851             -16.4897
       ...           ...                  ...                  ...
        96        2.0000           -0.2717888              -7.3958
        97        2.0000           -0.2687954              -7.3143
        98        2.0000           -0.2627298              -7.1492
        99        2.0000           -0.2528131              -6.8794
       100        2.0000           -0.2406899              -6.5495
       101        2.0000           -0.2359145              -6.4196
       102        2.0000           -0.1998408              -5.4379 (HOMO)
       103                         -0.1512252              -4.1150 (LUMO)
       104                         -0.1166779              -3.1750
       105                         -0.1019022              -2.7729
       106                         -0.0983590              -2.6765
       107                         -0.0857371              -2.3330
       ...                                ...                  ...
       195                          0.8776396              23.8818
      -------------------------------------------------------------
                  HL-Gap            0.0486156 Eh            1.3229 eV
             Fermi-level           -0.1755330 Eh           -4.7765 eV

 SCC (total)                   0 d,  0 h,  0 min,  0.426 sec
 SCC setup                      ...        0 min,  0.000 sec (  0.040%)
 Dispersion                     ...        0 min,  0.001 sec (  0.129%)
 classical contributions        ...        0 min,  0.000 sec (  0.033%)
 integral evaluation            ...        0 min,  0.003 sec (  0.632%)
 iterations                     ...        0 min,  0.382 sec ( 89.749%)
 molecular gradient             ...        0 min,  0.025 sec (  5.906%)
 printout                       ...        0 min,  0.015 sec (  3.508%)

         :::::::::::::::::::::::::::::::::::::::::::::::::::::
         ::                     SUMMARY                     ::
         :::::::::::::::::::::::::::::::::::::::::::::::::::::
         :: total energy            -111.426025658485 Eh    ::
         :: gradient norm              0.060594589064 Eh/a0 ::
         :: HOMO-LUMO gap              1.322897134746 eV    ::
         ::.................................................::
         :: SCC energy              -113.105010271821 Eh    ::
         :: -> isotropic ES            0.173049363158 Eh    ::
         :: -> anisotropic ES          0.034523333273 Eh    ::
         :: -> anisotropic XC          0.036409768566 Eh    ::
         :: -> dispersion             -0.100231287497 Eh    ::
         :: repulsion energy           1.678096554622 Eh    ::
         :: add. restraining           0.000000000000 Eh    ::
         :: total charge              -1.000014851481 e     ::
         :::::::::::::::::::::::::::::::::::::::::::::::::::::

           -------------------------------------------------
          |                Property Printout                |
           -------------------------------------------------

    * Orbital Energies and Occupations

         #    Occupation            Energy/Eh            Energy/eV
      -------------------------------------------------------------
         1        2.0000           -0.6059851             -16.4897
       ...           ...                  ...                  ...
        90        2.0000           -0.3115949              -8.4789
        91        2.0000           -0.3086550              -8.3989
        92        2.0000           -0.3036269              -8.2621
        93        2.0000           -0.2961047              -8.0574
        94        2.0000           -0.2840562              -7.7296
        95        2.0000           -0.2744830              -7.4691
        96        2.0000           -0.2717888              -7.3958
        97        2.0000           -0.2687954              -7.3143
        98        2.0000           -0.2627298              -7.1492
        99        2.0000           -0.2528131              -6.8794
       100        2.0000           -0.2406899              -6.5495
       101        2.0000           -0.2359145              -6.4196
       102        2.0000           -0.1998408              -5.4379 (HOMO)
       103                         -0.1512252              -4.1150 (LUMO)
       104                         -0.1166779              -3.1750
       105                         -0.1019022              -2.7729
       106                         -0.0983590              -2.6765
       107                         -0.0857371              -2.3330
       108                         -0.0533256              -1.4511
       109                         -0.0426013              -1.1592
       110                         -0.0222969              -0.6067
       111                          0.0308681               0.8400
       112                          0.0441691               1.2019
       113                          0.0901902               2.4542
       ...                                ...                  ...
       195                          0.8776396              23.8818
      -------------------------------------------------------------
                  HL-Gap            0.0486156 Eh            1.3229 eV
             Fermi-level           -0.1755330 Eh           -4.7765 eV

     #   Z          covCN         q      C6AA      α(0)
     1   6 C        2.923    -0.082    30.053     8.990
     2   6 C        2.862     0.134    25.061     8.206
     3   6 C        2.978    -0.008    28.202     8.711
     4   6 C        2.980    -0.041    29.018     8.836
     5   6 C        2.928    -0.051    29.260     8.871
     6   6 C        2.971    -0.020    28.492     8.756
     7   6 C        2.975    -0.038    28.937     8.824
     8   6 C        2.992    -0.006    28.164     8.705
     9   6 C        2.977    -0.038    28.941     8.824
    10   6 C        2.834     0.205    23.660     7.971
    11   6 C        2.977    -0.008    28.202     8.711
    12   6 C        2.980    -0.041    29.020     8.837
    13   6 C        2.835     0.205    23.647     7.969
    14   6 C        2.976    -0.037    28.922     8.821
    15   6 C        2.930    -0.029    28.727     8.790
    16   6 C        2.970    -0.017    28.435     8.747
    17   6 C        2.928    -0.033    28.832     8.806
    18   6 C        2.861     0.134    25.072     8.207
    19   6 C        2.923    -0.082    30.050     8.990
    20   6 C        2.971    -0.020    28.491     8.755
    21   6 C        2.928    -0.051    29.257     8.870
    22   8 O        1.705    -0.270    18.482     5.804
    23   8 O        1.705    -0.270    18.482     5.804
    24   8 O        0.858    -0.471    23.142     6.450
    25   8 O        0.858    -0.470    23.137     6.449
    26   6 C        3.643     0.054    20.016     6.432
    27   6 C        3.643     0.053    20.019     6.432
    28   6 C        3.903     0.026    20.075     6.369
    29   6 C        3.761    -0.103    22.520     6.765
    30   6 C        3.762    -0.098    22.422     6.750
    31   6 C        3.903     0.026    20.074     6.369
    32   6 C        3.762    -0.098    22.421     6.750
    33   6 C        3.761    -0.103    22.520     6.765
    34   6 C        3.761    -0.098    22.425     6.751
    35   6 C        3.903     0.026    20.088     6.371
    36   6 C        3.761    -0.102    22.486     6.760
    37   6 C        3.762    -0.101    22.470     6.757
    38   6 C        3.762    -0.101    22.467     6.757
    39   1 H        0.925     0.028     2.614     2.528
    40   1 H        0.925     0.038     2.479     2.462
    41   1 H        0.925     0.020     2.730     2.584
    42   1 H        0.925     0.020     2.741     2.589
    43   1 H        0.925     0.035     2.519     2.482
    44   1 H        0.925     0.034     2.536     2.490
    45   1 H        0.925     0.020     2.730     2.584
    46   1 H        0.925     0.037     2.494     2.470
    47   1 H        0.925     0.029     2.608     2.525
    48   1 H        0.926     0.034     2.530     2.487
    49   1 H        0.926     0.041     2.434     2.440
    50   1 H        0.926     0.043     2.406     2.426
    51   1 H        0.926     0.006     2.956     2.689
    52   1 H        0.925     0.020     2.740     2.589
    53   1 H        0.925     0.036     2.497     2.471
    54   1 H        0.925     0.037     2.484     2.465
    55   1 H        0.925     0.028     2.612     2.527
    56   1 H        0.925     0.020     2.732     2.585
    57   1 H        0.925     0.030     2.586     2.515
    58   1 H        0.925     0.046     2.370     2.408
    59   1 H        0.924     0.025     2.663     2.552
    60   1 H        0.924     0.024     2.673     2.557
    61   1 H        0.925     0.046     2.373     2.409
    62   1 H        0.924     0.025     2.660     2.551
    63   1 H        0.924     0.024     2.674     2.557
    64   1 H        0.926     0.006     2.960     2.690
    65   1 H        0.926     0.043     2.405     2.425
    66   1 H        0.925     0.021     2.725     2.581
    67   1 H        0.925     0.028     2.621     2.532
    68   1 H        0.925     0.030     2.586     2.515
    69   1 H        0.925     0.038     2.482     2.464
    70   1 H        0.925     0.019     2.741     2.589
    71   1 H        0.925     0.036     2.498     2.472
    72   1 H        0.925     0.020     2.734     2.586
    73   1 H        0.925     0.030     2.586     2.515
    74   1 H        0.925     0.028     2.612     2.527
    75   6 C        3.761    -0.098    22.426     6.751
    76   1 H        0.925     0.021     2.724     2.581
    77   1 H        0.925     0.028     2.620     2.531
    78   1 H        0.925     0.030     2.585     2.514

 Mol. C6AA /au·bohr⁶  :      65960.810328
 Mol. C8AA /au·bohr⁸  :    1551801.686885
 Mol. α(0) /au        :        397.944883


Wiberg/Mayer (AO) data.
largest (>0.10) Wiberg bond orders for each atom

 ---------------------------------------------------------------------------
     #   Z sym  total        # sym  WBO       # sym  WBO       # sym  WBO
 ---------------------------------------------------------------------------
     1   6 C    3.970 --     2 C    1.448     6 C    1.334    64 H    0.959
     2   6 C    3.917 --     1 C    1.448     3 C    1.232    23 O    1.040
     3   6 C    3.977 --     4 C    1.290     2 C    1.232     7 C    1.201
     4   6 C    3.973 --     5 C    1.351     3 C    1.290    10 C    1.075
     5   6 C    3.987 --     6 C    1.463     4 C    1.351    65 H    0.961
     6   6 C    3.963 --     5 C    1.463     1 C    1.334    31 C    0.981
     7   6 C    3.971 --     8 C    1.263    11 C    1.201     3 C    1.201
     8   6 C    3.986 --     7 C    1.263     9 C    1.249    14 C    1.242
     9   6 C    3.981 --    17 C    1.399     8 C    1.249    10 C    1.074
    10   6 C    3.938 --    24 O    1.642     4 C    1.075     9 C    1.074
    11   6 C    3.977 --    12 C    1.290    18 C    1.233     7 C    1.201
    12   6 C    3.973 --    21 C    1.351    11 C    1.290    13 C    1.075
    13   6 C    3.939 --    25 O    1.643    12 C    1.075    14 C    1.072
    14   6 C    3.982 --    15 C    1.413     8 C    1.242    13 C    1.072
    15   6 C    3.987 --    14 C    1.413    16 C    1.395    48 H    0.961
    16   6 C    3.973 --    17 C    1.411    15 C    1.395    35 C    0.980
    17   6 C    3.987 --    16 C    1.411     9 C    1.399    49 H    0.962
    18   6 C    3.919 --    19 C    1.448    11 C    1.233    22 O    1.040
    19   6 C    3.970 --    18 C    1.448    20 C    1.334    51 H    0.959
    20   6 C    3.961 --    21 C    1.463    19 C    1.334    28 C    0.981
    21   6 C    3.987 --    20 C    1.463    12 C    1.351    50 H    0.961
    22   8 O    2.221 --    18 C    1.040    26 C    0.997
    23   8 O    2.220 --     2 C    1.040    27 C    0.997
    24   8 O    1.930 --    10 C    1.642
    25   8 O    1.931 --    13 C    1.643
    26   6 C    3.961 --    22 O    0.997    58 H    0.981    59 H    0.976
                            60 H    0.975
    27   6 C    3.961 --    23 O    0.997    61 H    0.981    62 H    0.976
                            63 H    0.975
    28   6 C    3.989 --    29 C    1.000    30 C    0.989    75 C    0.988
                            20 C    0.981
    29   6 C    3.997 --    28 C    1.000    52 H    0.986    54 H    0.985
                            53 H    0.985
    30   6 C    3.995 --    28 C    0.989    57 H    0.987    56 H    0.986
                            55 H    0.984
    31   6 C    3.989 --    33 C    1.000    32 C    0.989    34 C    0.988
                             6 C    0.981
    32   6 C    3.995 --    31 C    0.989    73 H    0.987    72 H    0.986
                            74 H    0.984
    33   6 C    3.997 --    31 C    1.000    70 H    0.986    69 H    0.985
                            71 H    0.985
    34   6 C    3.995 --    31 C    0.988    68 H    0.987    66 H    0.986
Note: The following floating-point exceptions are signalling: IEEE_UNDERFLOW_FLAG
normal termination of xtb
                            67 H    0.984
    35   6 C    3.989 --    36 C    1.000    38 C    0.989    37 C    0.989
                            16 C    0.980
    36   6 C    3.997 --    35 C    1.000    42 H    0.986    44 H    0.985
                            43 H    0.985
    37   6 C    3.995 --    35 C    0.989    39 H    0.987    41 H    0.986
                            40 H    0.984
    38   6 C    3.995 --    35 C    0.989    47 H    0.987    45 H    0.986
                            46 H    0.984
    39   1 H    0.999 --    37 C    0.987
    40   1 H    0.999 --    37 C    0.984
    41   1 H    0.999 --    37 C    0.986
    42   1 H    0.999 --    36 C    0.986
    43   1 H    0.999 --    36 C    0.985
    44   1 H    0.999 --    36 C    0.985
    45   1 H    0.999 --    38 C    0.986
    46   1 H    0.999 --    38 C    0.984
    47   1 H    0.999 --    38 C    0.987
    48   1 H    0.998 --    15 C    0.961
    49   1 H    0.997 --    17 C    0.962
    50   1 H    0.998 --    21 C    0.961
    51   1 H    0.999 --    19 C    0.959
    52   1 H    0.999 --    29 C    0.986
    53   1 H    0.999 --    29 C    0.985
    54   1 H    0.999 --    29 C    0.985
    55   1 H    0.999 --    30 C    0.984
    56   1 H    0.999 --    30 C    0.986
    57   1 H    0.999 --    30 C    0.987
    58   1 H    0.997 --    26 C    0.981
    59   1 H    0.999 --    26 C    0.976
    60   1 H    0.999 --    26 C    0.975
    61   1 H    0.997 --    27 C    0.981
    62   1 H    0.999 --    27 C    0.976
    63   1 H    0.999 --    27 C    0.975
    64   1 H    0.999 --     1 C    0.959
    65   1 H    0.998 --     5 C    0.961
    66   1 H    0.999 --    34 C    0.986
    67   1 H    0.999 --    34 C    0.984
    68   1 H    0.999 --    34 C    0.987
    69   1 H    0.999 --    33 C    0.985
    70   1 H    0.999 --    33 C    0.986
    71   1 H    0.999 --    33 C    0.985
    72   1 H    0.999 --    32 C    0.986
    73   1 H    0.999 --    32 C    0.987
    74   1 H    0.999 --    32 C    0.984
    75   6 C    3.995 --    28 C    0.988    78 H    0.987    76 H    0.986
                            77 H    0.984
    76   1 H    0.999 --    75 C    0.986
    77   1 H    0.999 --    75 C    0.984
    78   1 H    0.999 --    75 C    0.987
 ---------------------------------------------------------------------------

Topologies differ in bond orders
Writing corrected topology to xtbtopo.mol

molecular dipole:
                 x           y           z       tot (Debye)
 q only:       -1.425       3.726       1.014
   full:       -1.966       4.009       1.104      11.691
molecular quadrupole (traceless):
                xx          xy          yy          xz          yz          zz
 q only:        5.553     -12.552     -34.998      -2.040     -16.931      29.445
  q+dip:       12.330     -14.526     -35.076      -4.786     -18.916      22.746
   full:        9.346     -15.049     -38.274      -4.422     -20.959      28.928


           -------------------------------------------------
          | TOTAL ENERGY             -111.426025658485 Eh   |
          | GRADIENT NORM               0.060594589064 Eh/α |
          | HOMO-LUMO GAP               1.322897134746 eV   |
           -------------------------------------------------
########################################################################
[WARNING] Runtime exception occurred
-2- restart_readRestart: Multiplicity missmatch in restart file.
-1- restart_readRestart: Number of electron missmatch in restart file.
########################################################################

------------------------------------------------------------------------
 * finished run on 2024/11/12 at 09:12:17.160     
------------------------------------------------------------------------
 total:
 * wall-time:     0 d,  0 h,  0 min,  0.439 sec
 *  cpu-time:     0 d,  0 h,  0 min,  1.630 sec
 * ratio c/w:     3.718 speedup
 SCF:
 * wall-time:     0 d,  0 h,  0 min,  0.426 sec
 *  cpu-time:     0 d,  0 h,  0 min,  1.614 sec
 * ratio c/w:     3.791 speedup

