      -----------------------------------------------------------      
     |                   =====================                   |     
     |                           x T B                           |     
     |                   =====================                   |     
     |                         S. Grimme                         |     
     |          Mulliken Center for Theoretical Chemistry        |     
     |                    University of Bonn                     |     
      -----------------------------------------------------------      

   * xtb version 6.6.1 (8d0f1dd) compiled by 'runner@Mac-1690902418499.local' on 2023-08-01

   xtb is free software: you can redistribute it and/or modify it under
   the terms of the GNU Lesser General Public License as published by
   the Free Software Foundation, either version 3 of the License, or
   (at your option) any later version.
   
   xtb is distributed in the hope that it will be useful,
   but WITHOUT ANY WARRANTY; without even the implied warranty of
   MERCHANTABILITY or FITNESS FOR A PARTICULAR PURPOSE.  See the
   GNU Lesser General Public License for more details.
   
   Cite this work as:
   * C. Bannwarth, E. Caldeweyher, S. Ehlert, A. Hansen, P. Pracht,
     J. Seibert, S. Spicher, S. Grimme, WIREs Comput. Mol. Sci., 2020, 11,
     e01493. DOI: 10.1002/wcms.1493
   
   for GFN2-xTB:
   * C. Bannwarth, S. Ehlert and S. Grimme., J. Chem. Theory Comput., 2019,
     15, 1652-1671. DOI: 10.1021/acs.jctc.8b01176
   for GFN1-xTB:
   * S. Grimme, C. Bannwarth, P. Shushkov, J. Chem. Theory Comput., 2017,
     13, 1989-2009. DOI: 10.1021/acs.jctc.7b00118
   for GFN0-xTB:
   * P. Pracht, E. Caldeweyher, S. Ehlert, S. Grimme, ChemRxiv, 2019, preprint.
     DOI: 10.26434/chemrxiv.8326202.v1
   for GFN-FF:
   * S. Spicher and S. Grimme, Angew. Chem. Int. Ed., 2020, 59, 15665-15673.
     DOI: 10.1002/anie.202004239
   
   for ALPB and GBSA implicit solvation:
   * S. Ehlert, M. Stahn, S. Spicher, S. Grimme, J. Chem. Theory Comput.,
     2021, 17, 4250-4261. DOI: 10.1021/acs.jctc.1c00471
   
   for DFT-D4:
   * E. Caldeweyher, C. Bannwarth and S. Grimme, J. Chem. Phys., 2017,
     147, 034112. DOI: 10.1063/1.4993215
   * E. Caldeweyher, S. Ehlert, A. Hansen, H. Neugebauer, S. Spicher,
     C. Bannwarth and S. Grimme, J. Chem. Phys., 2019, 150, 154122.
     DOI: 10.1063/1.5090222
   * E. Caldeweyher, J.-M. Mewes, S. Ehlert and S. Grimme, Phys. Chem. Chem. Phys.
     2020, 22, 8499-8512. DOI: 10.1039/D0CP00502A
   
   for sTDA-xTB:
   * S. Grimme and C. Bannwarth, J. Chem. Phys., 2016, 145, 054103.
     DOI: 10.1063/1.4959605
   
   in the mass-spec context:
   * V. Asgeirsson, C. Bauer and S. Grimme, Chem. Sci., 2017, 8, 4879.
     DOI: 10.1039/c7sc00601b
   * J. Koopman and S. Grimme, ACS Omega 2019, 4, 12, 15120-15133.
     DOI: 10.1021/acsomega.9b02011
   
   for metadynamics refer to:
   * S. Grimme, J. Chem. Theory Comput., 2019, 155, 2847-2862
     DOI: 10.1021/acs.jctc.9b00143
   
   for SPH calculations refer to:
   * S. Spicher and S. Grimme, J. Chem. Theory Comput., 2021, 17, 1701-1714
     DOI: 10.1021/acs.jctc.0c01306
   
   with help from (in alphabetical order)
   P. Atkinson, C. Bannwarth, F. Bohle, G. Brandenburg, E. Caldeweyher
   M. Checinski, S. Dohm, S. Ehlert, S. Ehrlich, I. Gerasimov, C. Hölzer
   A. Katbashev, J. Koopman, C. Lavigne, S. Lehtola, F. März, M. Müller,
   F. Musil, H. Neugebauer, J. Pisarek, C. Plett, P. Pracht, F. Pultar,
   J. Seibert, P. Shushkov, S. Spicher, M. Stahn, M. Steiner, T. Strunk,
   J. Stückrath, T. Rose, and J. Unsleber
   
 * started run on 2024/11/12 at 09:12:15.994     

           -------------------------------------------------
          |                Calculation Setup                |
           -------------------------------------------------

          program call               : xtb opt_anion_Katherine3.mol --gfn2 --sp --chrg -1 --uhf 0
          coordinate file            : opt_anion_Katherine3.mol
          omp threads                :                     8

   ID    Z sym.   atoms
    1    6 C      1-21, 26-38, 75
    2    8 O      22-25
    3    1 H      39-74, 76-78
########################################################################
[WARNING] Please study the warnings concerning your input carefully
-1- prog_main: Charge in sdf/mol input was overwritten
########################################################################

           -------------------------------------------------
          |                 G F N 2 - x T B                 |
           -------------------------------------------------

        Reference                      10.1021/acs.jctc.8b01176
      * Hamiltonian:
        H0-scaling (s, p, d)           1.850000    2.230000    2.230000
        zeta-weighting                 0.500000
      * Dispersion:
        s8                             2.700000
        a1                             0.520000
        a2                             5.000000
        s9                             5.000000
      * Repulsion:
        kExp                           1.500000    1.000000
        rExp                           1.000000
      * Coulomb:
        alpha                          2.000000
        third order                    shell-resolved
        anisotropic                    true
        a3                             3.000000
        a5                             4.000000
        cn-shift                       1.200000
        cn-exp                         4.000000
        max-rad                        5.000000

q/qsh data taken from xtbrestart
CAMM data taken from xtbrestart

          ...................................................
          :                      SETUP                      :
          :.................................................:
          :  # basis functions                 195          :
          :  # atomic orbitals                 195          :
          :  # shells                          117          :
          :  # electrons                       204          :
          :  max. iterations                   250          :
          :  Hamiltonian                  GFN2-xTB          :
          :  restarted?                       true          :
          :  GBSA solvation                  false          :
          :  PC potential                    false          :
          :  electronic temp.          300.0000000     K    :
          :  accuracy                    1.0000000          :
          :  -> integral cutoff          0.2500000E+02      :
          :  -> integral neglect         0.1000000E-07      :
          :  -> SCF convergence          0.1000000E-05 Eh   :
          :  -> wf. convergence          0.1000000E-03 e    :
          :  Broyden damping             0.4000000          :
          ...................................................

 iter      E             dE          RMSdq      gap      omega  full diag
   1   -113.0792258 -0.113079E+03  0.533E-01    1.46       0.0  T
   2   -113.0918555 -0.126298E-01  0.394E-01    1.24       1.0  T
   3   -113.0981546 -0.629904E-02  0.243E-01    1.39       1.0  T
   4   -113.0991454 -0.990872E-03  0.157E-01    1.35       1.0  T
   5   -113.0992273 -0.818987E-04  0.698E-02    1.36       1.0  T
   6   -113.0995468 -0.319494E-03  0.145E-02    1.36       1.0  T
   7   -113.0995531 -0.627542E-05  0.828E-03    1.36       1.4  T
   8   -113.0995549 -0.176618E-05  0.365E-03    1.36       3.1  T
   9   -113.0995552 -0.321467E-06  0.128E-03    1.36       8.9  T
  10   -113.0995552 -0.436369E-07  0.632E-04    1.36      17.9  T
  11   -113.0995553 -0.110448E-07  0.358E-04    1.36      31.7  T

   *** convergence criteria satisfied after 11 iterations ***

         #    Occupation            Energy/Eh            Energy/eV
      -------------------------------------------------------------
         1        2.0000           -0.6056742             -16.4812
       ...           ...                  ...                  ...
        96        2.0000           -0.2732841              -7.4364
        97        2.0000           -0.2705438              -7.3619
        98        2.0000           -0.2652236              -7.2171
        99        2.0000           -0.2560936              -6.9687
       100        2.0000           -0.2414717              -6.5708
       101        2.0000           -0.2368728              -6.4456
       102        2.0000           -0.2048196              -5.5734 (HOMO)
       103                         -0.1548038              -4.2124 (LUMO)
       104                         -0.1189877              -3.2378
       105                         -0.1045572              -2.8451
       106                         -0.1014921              -2.7617
       107                         -0.0880171              -2.3951
       ...                                ...                  ...
       195                          0.8619808              23.4557
      -------------------------------------------------------------
                  HL-Gap            0.0500158 Eh            1.3610 eV
             Fermi-level           -0.1798117 Eh           -4.8929 eV

 SCC (total)                   0 d,  0 h,  0 min,  0.369 sec
 SCC setup                      ...        0 min,  0.000 sec (  0.052%)
 Dispersion                     ...        0 min,  0.001 sec (  0.347%)
 classical contributions        ...        0 min,  0.000 sec (  0.048%)
 integral evaluation            ...        0 min,  0.004 sec (  1.054%)
 iterations                     ...        0 min,  0.340 sec ( 92.073%)
 molecular gradient             ...        0 min,  0.022 sec (  5.987%)
 printout                       ...        0 min,  0.002 sec (  0.437%)

         :::::::::::::::::::::::::::::::::::::::::::::::::::::
         ::                     SUMMARY                     ::
         :::::::::::::::::::::::::::::::::::::::::::::::::::::
         :: total energy            -111.428512474636 Eh    ::
         :: gradient norm              0.000494798231 Eh/a0 ::
         :: HOMO-LUMO gap              1.360998929897 eV    ::
         ::.................................................::
         :: SCC energy              -113.099555255853 Eh    ::
         :: -> isotropic ES            0.176276274808 Eh    ::
         :: -> anisotropic ES          0.033717867408 Eh    ::
         :: -> anisotropic XC          0.036659565834 Eh    ::
         :: -> dispersion             -0.100389149371 Eh    ::
         :: repulsion energy           1.670210271830 Eh    ::
         :: add. restraining           0.000000000000 Eh    ::
         :: total charge              -1.000028988447 e     ::
         :::::::::::::::::::::::::::::::::::::::::::::::::::::

           -------------------------------------------------
          |                Property Printout                |
           -------------------------------------------------

    * Orbital Energies and Occupations

         #    Occupation            Energy/Eh            Energy/eV
      -------------------------------------------------------------
         1        2.0000           -0.6056742             -16.4812
       ...           ...                  ...                  ...
        90        2.0000           -0.3135690              -8.5326
        91        2.0000           -0.3108499              -8.4587
        92        2.0000           -0.3046193              -8.2891
        93        2.0000           -0.2968466              -8.0776
        94        2.0000           -0.2861163              -7.7856
        95        2.0000           -0.2749521              -7.4818
        96        2.0000           -0.2732841              -7.4364
        97        2.0000           -0.2705438              -7.3619
        98        2.0000           -0.2652236              -7.2171
        99        2.0000           -0.2560936              -6.9687
       100        2.0000           -0.2414717              -6.5708
       101        2.0000           -0.2368728              -6.4456
       102        2.0000           -0.2048196              -5.5734 (HOMO)
       103                         -0.1548038              -4.2124 (LUMO)
       104                         -0.1189877              -3.2378
       105                         -0.1045572              -2.8451
       106                         -0.1014921              -2.7617
       107                         -0.0880171              -2.3951
       108                         -0.0550238              -1.4973
       109                         -0.0429070              -1.1676
       110                         -0.0234816              -0.6390
       111                          0.0271994               0.7401
       112                          0.0420409               1.1440
       113                          0.0902424               2.4556
       ...                                ...                  ...
       195                          0.8619808              23.4557
      -------------------------------------------------------------
                  HL-Gap            0.0500158 Eh            1.3610 eV
             Fermi-level           -0.1798117 Eh           -4.8929 eV

     #   Z          covCN         q      C6AA      α(0)
     1   6 C        2.923    -0.080    30.000     8.982
     2   6 C        2.862     0.134    25.070     8.207
     3   6 C        2.979    -0.005    28.147     8.703
     4   6 C        2.982    -0.039    28.971     8.829
     5   6 C        2.929    -0.049    29.222     8.865
     6   6 C        2.970    -0.018    28.452     8.749
     7   6 C        2.975    -0.032    28.789     8.801
     8   6 C        2.994    -0.006    28.169     8.706
     9   6 C        2.977    -0.037    28.908     8.819
    10   6 C        2.837     0.202    23.712     7.980
    11   6 C        2.979    -0.005    28.145     8.702
    12   6 C        2.982    -0.039    28.974     8.830
    13   6 C        2.837     0.202    23.704     7.979
    14   6 C        2.976    -0.036    28.890     8.817
    15   6 C        2.932    -0.028    28.702     8.786
    16   6 C        2.968    -0.016    28.410     8.743
    17   6 C        2.929    -0.032    28.803     8.801
    18   6 C        2.862     0.134    25.075     8.208
    19   6 C        2.924    -0.080    29.997     8.982
    20   6 C        2.970    -0.018    28.453     8.749
    21   6 C        2.929    -0.049    29.220     8.865
    22   8 O        1.705    -0.276    18.571     5.818
    23   8 O        1.705    -0.276    18.573     5.819
    24   8 O        0.857    -0.482    23.383     6.483
    25   8 O        0.857    -0.482    23.387     6.484
    26   6 C        3.642     0.058    19.943     6.421
    27   6 C        3.642     0.058    19.943     6.421
    28   6 C        3.902     0.026    20.078     6.369
    29   6 C        3.762    -0.104    22.529     6.766
    30   6 C        3.761    -0.098    22.427     6.751
    31   6 C        3.902     0.026    20.078     6.369
    32   6 C        3.761    -0.098    22.425     6.751
    33   6 C        3.762    -0.104    22.530     6.766
    34   6 C        3.761    -0.098    22.427     6.751
    35   6 C        3.903     0.025    20.093     6.372
    36   6 C        3.761    -0.102    22.493     6.761
    37   6 C        3.761    -0.101    22.474     6.758
    38   6 C        3.761    -0.101    22.472     6.758
    39   1 H        0.925     0.028     2.612     2.528
    40   1 H        0.925     0.038     2.473     2.459
    41   1 H        0.925     0.020     2.729     2.583
    42   1 H        0.925     0.020     2.736     2.587
    43   1 H        0.925     0.035     2.520     2.482
    44   1 H        0.925     0.034     2.533     2.489
    45   1 H        0.925     0.020     2.726     2.582
    46   1 H        0.925     0.037     2.488     2.467
    47   1 H        0.925     0.028     2.611     2.527
    48   1 H        0.925     0.037     2.495     2.470
    49   1 H        0.926     0.043     2.403     2.424
    50   1 H        0.926     0.046     2.370     2.407
    51   1 H        0.926     0.008     2.922     2.673
    52   1 H        0.925     0.020     2.732     2.585
    53   1 H        0.925     0.037     2.494     2.469
    54   1 H        0.925     0.038     2.482     2.464
    55   1 H        0.925     0.029     2.607     2.525
    56   1 H        0.925     0.020     2.727     2.582
    57   1 H        0.925     0.030     2.585     2.514
    58   1 H        0.924     0.044     2.399     2.422
    59   1 H        0.923     0.021     2.721     2.580
    60   1 H        0.923     0.021     2.720     2.579
    61   1 H        0.924     0.044     2.401     2.423
    62   1 H        0.923     0.021     2.720     2.579
    63   1 H        0.923     0.021     2.722     2.580
    64   1 H        0.926     0.008     2.925     2.674
    65   1 H        0.926     0.046     2.369     2.407
    66   1 H        0.925     0.021     2.718     2.578
    67   1 H        0.925     0.028     2.619     2.531
    68   1 H        0.925     0.030     2.582     2.513
    69   1 H        0.925     0.038     2.482     2.464
    70   1 H        0.925     0.020     2.732     2.585
    71   1 H        0.925     0.037     2.493     2.469
    72   1 H        0.925     0.020     2.728     2.583
    73   1 H        0.925     0.030     2.585     2.514
    74   1 H        0.925     0.028     2.608     2.525
    75   6 C        3.761    -0.099    22.428     6.751
    76   1 H        0.925     0.021     2.719     2.578
    77   1 H        0.925     0.028     2.618     2.530
    78   1 H        0.925     0.030     2.582     2.513

 Mol. C6AA /au·bohr⁶  :      65956.875126
 Mol. C8AA /au·bohr⁸  :    1551596.241666
 Mol. α(0) /au        :        397.917425


Wiberg/Mayer (AO) data.
largest (>0.10) Wiberg bond orders for each atom

 ---------------------------------------------------------------------------
     #   Z sym  total        # sym  WBO       # sym  WBO       # sym  WBO
 ---------------------------------------------------------------------------
     1   6 C    3.970 --     2 C    1.470     6 C    1.313    64 H    0.959
     2   6 C    3.917 --     1 C    1.470     3 C    1.228    23 O    1.025
     3   6 C    3.976 --     4 C    1.297     2 C    1.228     7 C    1.198
     4   6 C    3.972 --     5 C    1.329     3 C    1.297    10 C    1.090
     5   6 C    3.987 --     6 C    1.489     4 C    1.329    65 H    0.960
     6   6 C    3.963 --     5 C    1.489     1 C    1.313    31 C    0.980
     7   6 C    3.974 --     8 C    1.280    11 C    1.200     3 C    1.198
     8   6 C    3.986 --     7 C    1.280     9 C    1.239    14 C    1.233
     9   6 C    3.981 --    17 C    1.397     8 C    1.239    10 C    1.088
    10   6 C    3.941 --    24 O    1.618     4 C    1.090     9 C    1.088
    11   6 C    3.976 --    12 C    1.296    18 C    1.228     7 C    1.200
    12   6 C    3.972 --    21 C    1.329    11 C    1.296    13 C    1.091
    13   6 C    3.942 --    25 O    1.619    12 C    1.091    14 C    1.086
    14   6 C    3.982 --    15 C    1.410     8 C    1.233    13 C    1.086
    15   6 C    3.987 --    14 C    1.410    16 C    1.397    48 H    0.960
    16   6 C    3.973 --    17 C    1.412    15 C    1.397    35 C    0.979
    17   6 C    3.986 --    16 C    1.412     9 C    1.397    49 H    0.961
    18   6 C    3.917 --    19 C    1.470    11 C    1.228    22 O    1.025
    19   6 C    3.970 --    18 C    1.470    20 C    1.313    51 H    0.959
    20   6 C    3.963 --    21 C    1.488    19 C    1.313    28 C    0.980
    21   6 C    3.987 --    20 C    1.488    12 C    1.329    50 H    0.960
    22   8 O    2.210 --    18 C    1.025    26 C    1.004
    23   8 O    2.210 --     2 C    1.025    27 C    1.004
    24   8 O    1.908 --    10 C    1.618
    25   8 O    1.909 --    13 C    1.619
    26   6 C    3.962 --    22 O    1.004    58 H    0.980    59 H    0.974
                            60 H    0.974
    27   6 C    3.962 --    23 O    1.004    61 H    0.980    62 H    0.974
                            63 H    0.974
    28   6 C    3.989 --    29 C    1.000    30 C    0.989    75 C    0.989
                            20 C    0.980
    29   6 C    3.997 --    28 C    1.000    52 H    0.986    54 H    0.985
                            53 H    0.985
    30   6 C    3.995 --    28 C    0.989    57 H    0.987    56 H    0.986
                            55 H    0.984
    31   6 C    3.989 --    33 C    0.999    32 C    0.989    34 C    0.989
                             6 C    0.980
    32   6 C    3.995 --    31 C    0.989    73 H    0.987    72 H    0.986
                            74 H    0.984
    33   6 C    3.997 --    31 C    0.999    70 H    0.986    69 H    0.985
                            71 H    0.985
    34   6 C    3.995 --    31 C    0.989    68 H    0.987    66 H    0.986
                            67 H    0.984
    35   6 C    3.989 --    36 C    1.000    38 C    0.989    37 C    0.989
                            16 C    0.979
    36   6 C    3.997 --    35 C    1.000    42 H    0.986    44 H    0.985
                            43 H    0.985
    37   6 C    3.995 --    35 C    0.989    39 H    0.987    41 H    0.986
                            40 H    0.983
    38   6 C    3.995 --    35 C    0.989    47 H    0.987    45 H    0.986
                            46 H    0.984
    39   1 H    0.999 --    37 C    0.987
    40   1 H    0.999 --    37 C    0.983
    41   1 H    0.999 --    37 C    0.986
    42   1 H    0.999 --    36 C    0.986
    43   1 H    0.999 --    36 C    0.985
    44   1 H    0.999 --    36 C    0.985
    45   1 H    0.999 --    38 C    0.986
    46   1 H    0.999 --    38 C    0.984
    47   1 H    0.999 --    38 C    0.987
    48   1 H    0.998 --    15 C    0.960
    49   1 H    0.997 --    17 C    0.961
    50   1 H    0.997 --    21 C    0.960
    51   1 H    0.999 --    19 C    0.959
    52   1 H    0.999 --    29 C    0.986
    53   1 H    0.999 --    29 C    0.985
    54   1 H    0.999 --    29 C    0.985
    55   1 H    0.999 --    30 C    0.984
    56   1 H    0.999 --    30 C    0.986
    57   1 H    0.999 --    30 C    0.987
    58   1 H    0.998 --    26 C    0.980
    59   1 H    0.999 --    26 C    0.974
    60   1 H    0.999 --    26 C    0.974
    61   1 H    0.998 --    27 C    0.980
    62   1 H    0.999 --    27 C    0.974
    63   1 H    0.999 --    27 C    0.974
    64   1 H    0.999 --     1 C    0.959
    65   1 H    0.997 --     5 C    0.960
    66   1 H    0.999 --    34 C    0.986
    67   1 H    0.999 --    34 C    0.984
    68   1 H    0.999 --    34 C    0.987
    69   1 H    0.999 --    33 C    0.985
    70   1 H    0.999 --    33 C    0.986
    71   1 H    0.999 --    33 C    0.985
    72   1 H    0.999 --    32 C    0.986
    73   1 H    0.999 --    32 C    0.987
    74   1 H    0.999 --    32 C    0.984
    75   6 C    3.995 --    28 C    0.989    78 H    0.987    76 H    0.986
                            77 H    0.984
    76   1 H    0.999 --    75 C    0.986
    77   1 H    0.999 --    75 C    0.984
    78   1 H    0.999 --    75 C    0.987
 ---------------------------------------------------------------------------

Topologies differ in bond orders
Writing corrected topology to xtbtopo.mol

molecular dipole:
                 x           y           z       tot (Debye)
 q only:       -1.483       3.765       0.979
   full:       -2.054       4.066       1.064      11.891
molecular quadrupole (traceless):
                xx          xy          yy          xz          yz          zz
 q only:        5.420     -12.223     -35.656      -1.525     -15.920      30.236
  q+dip:       12.311     -14.179     -36.070      -4.249     -17.837      23.759
   full:        9.249     -14.736     -39.429      -3.737     -19.729      30.180


           -------------------------------------------------
          | TOTAL ENERGY             -111.428512474636 Eh   |
          | GRADIENT NORM               0.000494798231 Eh/α |
          | HOMO-LUMO GAP               1.360998929897 eV   |
           -------------------------------------------------
########################################################################
[WARNING] Runtime exception occurred
-2- restart_readRestart: Multiplicity missmatch in restart file.
-1- restart_readRestart: Number of electron missmatch in restart file.
########################################################################

------------------------------------------------------------------------
 * finished run on 2024/11/12 at 09:12:16.375     
------------------------------------------------------------------------
Note: The following floating-point exceptions are signalling: IEEE_UNDERFLOW_FLAG
normal termination of xtb
 total:
 * wall-time:     0 d,  0 h,  0 min,  0.381 sec
 *  cpu-time:     0 d,  0 h,  0 min,  1.211 sec
 * ratio c/w:     3.182 speedup
 SCF:
 * wall-time:     0 d,  0 h,  0 min,  0.369 sec
 *  cpu-time:     0 d,  0 h,  0 min,  1.195 sec
 * ratio c/w:     3.236 speedup

