      -----------------------------------------------------------      
     |                   =====================                   |     
     |                           x T B                           |     
     |                   =====================                   |     
     |                         S. Grimme                         |     
     |          Mulliken Center for Theoretical Chemistry        |     
     |                    University of Bonn                     |     
      -----------------------------------------------------------      

   * xtb version 6.6.1 (8d0f1dd) compiled by 'runner@Mac-1690902418499.local' on 2023-08-01

   xtb is free software: you can redistribute it and/or modify it under
   the terms of the GNU Lesser General Public License as published by
   the Free Software Foundation, either version 3 of the License, or
   (at your option) any later version.
   
   xtb is distributed in the hope that it will be useful,
   but WITHOUT ANY WARRANTY; without even the implied warranty of
   MERCHANTABILITY or FITNESS FOR A PARTICULAR PURPOSE.  See the
   GNU Lesser General Public License for more details.
   
   Cite this work as:
   * C. Bannwarth, E. Caldeweyher, S. Ehlert, A. Hansen, P. Pracht,
     J. Seibert, S. Spicher, S. Grimme, WIREs Comput. Mol. Sci., 2020, 11,
     e01493. DOI: 10.1002/wcms.1493
   
   for GFN2-xTB:
   * C. Bannwarth, S. Ehlert and S. Grimme., J. Chem. Theory Comput., 2019,
     15, 1652-1671. DOI: 10.1021/acs.jctc.8b01176
   for GFN1-xTB:
   * S. Grimme, C. Bannwarth, P. Shushkov, J. Chem. Theory Comput., 2017,
     13, 1989-2009. DOI: 10.1021/acs.jctc.7b00118
   for GFN0-xTB:
   * P. Pracht, E. Caldeweyher, S. Ehlert, S. Grimme, ChemRxiv, 2019, preprint.
     DOI: 10.26434/chemrxiv.8326202.v1
   for GFN-FF:
   * S. Spicher and S. Grimme, Angew. Chem. Int. Ed., 2020, 59, 15665-15673.
     DOI: 10.1002/anie.202004239
   
   for ALPB and GBSA implicit solvation:
   * S. Ehlert, M. Stahn, S. Spicher, S. Grimme, J. Chem. Theory Comput.,
     2021, 17, 4250-4261. DOI: 10.1021/acs.jctc.1c00471
   
   for DFT-D4:
   * E. Caldeweyher, C. Bannwarth and S. Grimme, J. Chem. Phys., 2017,
     147, 034112. DOI: 10.1063/1.4993215
   * E. Caldeweyher, S. Ehlert, A. Hansen, H. Neugebauer, S. Spicher,
     C. Bannwarth and S. Grimme, J. Chem. Phys., 2019, 150, 154122.
     DOI: 10.1063/1.5090222
   * E. Caldeweyher, J.-M. Mewes, S. Ehlert and S. Grimme, Phys. Chem. Chem. Phys.
     2020, 22, 8499-8512. DOI: 10.1039/D0CP00502A
   
   for sTDA-xTB:
   * S. Grimme and C. Bannwarth, J. Chem. Phys., 2016, 145, 054103.
     DOI: 10.1063/1.4959605
   
   in the mass-spec context:
   * V. Asgeirsson, C. Bauer and S. Grimme, Chem. Sci., 2017, 8, 4879.
     DOI: 10.1039/c7sc00601b
   * J. Koopman and S. Grimme, ACS Omega 2019, 4, 12, 15120-15133.
     DOI: 10.1021/acsomega.9b02011
   
   for metadynamics refer to:
   * S. Grimme, J. Chem. Theory Comput., 2019, 155, 2847-2862
     DOI: 10.1021/acs.jctc.9b00143
   
   for SPH calculations refer to:
   * S. Spicher and S. Grimme, J. Chem. Theory Comput., 2021, 17, 1701-1714
     DOI: 10.1021/acs.jctc.0c01306
   
   with help from (in alphabetical order)
   P. Atkinson, C. Bannwarth, F. Bohle, G. Brandenburg, E. Caldeweyher
   M. Checinski, S. Dohm, S. Ehlert, S. Ehrlich, I. Gerasimov, C. Hölzer
   A. Katbashev, J. Koopman, C. Lavigne, S. Lehtola, F. März, M. Müller,
   F. Musil, H. Neugebauer, J. Pisarek, C. Plett, P. Pracht, F. Pultar,
   J. Seibert, P. Shushkov, S. Spicher, M. Stahn, M. Steiner, T. Strunk,
   J. Stückrath, T. Rose, and J. Unsleber
   
 * started run on 2024/11/11 at 15:22:19.695     

           -------------------------------------------------
          |                Calculation Setup                |
           -------------------------------------------------

          program call               : xtb Katherine3.mol --opt --gfn2 --chrg 1 --uhf 0 --tight
          coordinate file            : Katherine3.mol
          omp threads                :                     8

   ID    Z sym.   atoms
    1    6 C      1-21, 26-38, 75
    2    8 O      22-25
    3    1 H      39-74, 76-78
########################################################################
[WARNING] Please study the warnings concerning your input carefully
-1- prog_main_parseArguments: Unknown option '--tight' provided
########################################################################

           -------------------------------------------------
          |                 G F N 2 - x T B                 |
           -------------------------------------------------

        Reference                      10.1021/acs.jctc.8b01176
      * Hamiltonian:
        H0-scaling (s, p, d)           1.850000    2.230000    2.230000
        zeta-weighting                 0.500000
      * Dispersion:
        s8                             2.700000
        a1                             0.520000
        a2                             5.000000
        s9                             5.000000
      * Repulsion:
        kExp                           1.500000    1.000000
        rExp                           1.000000
      * Coulomb:
        alpha                          2.000000
        third order                    shell-resolved
        anisotropic                    true
        a3                             3.000000
        a5                             4.000000
        cn-shift                       1.200000
        cn-exp                         4.000000
        max-rad                        5.000000

q/qsh data taken from xtbrestart
CAMM data taken from xtbrestart

          ...................................................
          :                      SETUP                      :
          :.................................................:
          :  # basis functions                 195          :
          :  # atomic orbitals                 195          :
          :  # shells                          117          :
          :  # electrons                       202          :
          :  max. iterations                   250          :
          :  Hamiltonian                  GFN2-xTB          :
          :  restarted?                       true          :
          :  GBSA solvation                  false          :
          :  PC potential                    false          :
          :  electronic temp.          300.0000000     K    :
          :  accuracy                    1.0000000          :
          :  -> integral cutoff          0.2500000E+02      :
          :  -> integral neglect         0.1000000E-07      :
          :  -> SCF convergence          0.1000000E-05 Eh   :
          :  -> wf. convergence          0.1000000E-03 e    :
          :  Broyden damping             0.4000000          :
          ...................................................

 iter      E             dE          RMSdq      gap      omega  full diag
   1   -111.9857408 -0.111986E+03  0.253E+00    0.68       0.0  T
   2   -111.9618233  0.239175E-01  0.172E+00    0.21       1.0  T
   3   -111.8563226  0.105501E+00  0.165E+00    1.16       1.0  T
   4   -112.0825876 -0.226265E+00  0.349E-01    0.61       1.0  T
   5   -112.0836806 -0.109302E-02  0.217E-01    0.69       1.0  T
   6   -112.0868770 -0.319633E-02  0.831E-02    0.64       1.0  T
   7   -112.0871683 -0.291323E-03  0.363E-02    0.64       1.0  T
   8   -112.0872307 -0.623816E-04  0.178E-02    0.63       1.0  T
   9   -112.0872501 -0.194069E-04  0.554E-03    0.63       2.0  T
  10   -112.0872511 -0.982486E-06  0.272E-03    0.63       4.2  T
  11   -112.0872514 -0.362693E-06  0.161E-03    0.63       7.1  T
  12   -112.0872515 -0.679776E-07  0.103E-03    0.63      11.0  T
  13   -112.0872516 -0.573337E-07  0.376E-04    0.63      30.1  T
  14   -112.0872516 -0.103259E-07  0.137E-04    0.63      82.7  T

   *** convergence criteria satisfied after 14 iterations ***

         #    Occupation            Energy/Eh            Energy/eV
      -------------------------------------------------------------
         1        2.0000           -0.8442556             -22.9734
       ...           ...                  ...                  ...
        95        2.0000           -0.5171841             -14.0733
        96        2.0000           -0.5123604             -13.9420
        97        2.0000           -0.5097721             -13.8716
        98        2.0000           -0.5087978             -13.8451
        99        2.0000           -0.5002060             -13.6113
       100        2.0000           -0.4974784             -13.5371
       101        2.0000           -0.4951805             -13.4745 (HOMO)
       102        0.0000           -0.4719917             -12.8435 (LUMO)
       103                         -0.4092264             -11.1356
       104                         -0.3876302             -10.5480
       105                         -0.3652353              -9.9386
       106                         -0.3604418              -9.8081
       ...                                ...                  ...
       195                          0.5543789              15.0854
      -------------------------------------------------------------
                  HL-Gap            0.0231888 Eh            0.6310 eV
             Fermi-level           -0.4835434 Eh          -13.1579 eV

 SCC (total)                   0 d,  0 h,  0 min,  0.578 sec
 SCC setup                      ...        0 min,  0.000 sec (  0.041%)
 Dispersion                     ...        0 min,  0.001 sec (  0.118%)
 classical contributions        ...        0 min,  0.000 sec (  0.039%)
 integral evaluation            ...        0 min,  0.004 sec (  0.618%)
 iterations                     ...        0 min,  0.548 sec ( 94.796%)
 molecular gradient             ...        0 min,  0.014 sec (  2.442%)
 printout                       ...        0 min,  0.011 sec (  1.944%)

         :::::::::::::::::::::::::::::::::::::::::::::::::::::
         ::                     SUMMARY                     ::
         :::::::::::::::::::::::::::::::::::::::::::::::::::::
         :: total energy            -110.609491973291 Eh    ::
         :: gradient norm              0.188078991966 Eh/a0 ::
         :: HOMO-LUMO gap              0.630999705882 eV    ::
         ::.................................................::
         :: SCC energy              -112.087251567288 Eh    ::
         :: -> isotropic ES            0.127820107146 Eh    ::
         :: -> anisotropic ES          0.000472779013 Eh    ::
         :: -> anisotropic XC          0.050812613566 Eh    ::
         :: -> dispersion             -0.090887081513 Eh    ::
         :: repulsion energy           1.477005261791 Eh    ::
         :: add. restraining           0.000000000000 Eh    ::
         :: total charge               1.000003966813 e     ::
         :::::::::::::::::::::::::::::::::::::::::::::::::::::

      ----------------------------------------------------------- 
     |                   =====================                   |
     |                        A N C O P T                        |
     |                   =====================                   |
     |               Approximate Normal Coordinate               |
     |                Rational Function Optimizer                |
      ----------------------------------------------------------- 

          ...................................................
          :                      SETUP                      :
          :.................................................:
          :   optimization level            normal          :
          :   max. optcycles                   234          :
          :   ANC micro-cycles                  20          :
          :   degrees of freedom               228          :
          :.................................................:
          :   RF solver                   davidson          :
          :   write xtbopt.log                true          :
          :   linear?                        false          :
          :   energy convergence         0.5000000E-05 Eh   :
          :   grad. convergence          0.1000000E-02 Eh/α :
          :   maxmium RF displ.          1.0000000          :
          :   Hlow (freq-cutoff)         0.1000000E-01      :
          :   Hmax (freq-cutoff)         5.0000000          :
          :   S6 in model hess.         20.0000000          :
          ...................................................

generating ANC from model Hessian ...
Using Lindh-Hessian (1995)
 Shifting diagonal of input Hessian by    9.9309791350891807E-003
 Lowest  eigenvalues of input Hessian
    0.000000    0.000000    0.000000    0.000000    0.000000    0.000000
    0.010000    0.010073    0.010151    0.010253    0.010389    0.010397
    0.010669    0.010985    0.011181    0.011599    0.012070    0.012318
 Highest eigenvalues
    1.919636    1.946955    2.013153    2.069950    2.160928    2.181160


........................................................................
.............................. CYCLE    1 ..............................
........................................................................

 iter      E             dE          RMSdq      gap      omega  full diag
   1   -112.0872516 -0.112087E+03  0.640E-05    0.63       0.0  T
   2   -112.0872516 -0.220837E-10  0.464E-05    0.63     243.8  T
   3   -112.0872516 -0.112863E-09  0.272E-05    0.63     416.3  T
     SCC iter.                  ...        0 min,  0.101 sec
     gradient                   ...        0 min,  0.025 sec
 * total energy  :  -110.6094920 Eh     change       -0.5998544E-09 Eh
   gradient norm :     0.1880798 Eh/α   predicted     0.0000000E+00 (-100.00%)
   displ. norm   :     0.5555804 α      lambda       -0.7858265E-01
   maximum displ.:     0.2755407 α      in ANC's #88, #123, #131, ...

........................................................................
.............................. CYCLE    2 ..............................
........................................................................

 iter      E             dE          RMSdq      gap      omega  full diag
   1   -112.2110690 -0.112211E+03  0.351E-01    0.85       0.0  T
   2   -112.2112449 -0.175923E-03  0.211E-01    0.82       1.0  T
   3   -112.2092486  0.199630E-02  0.168E-01    0.89       1.0  T
   4   -112.2113863 -0.213774E-02  0.451E-02    0.83       1.0  T
   5   -112.2116097 -0.223350E-03  0.109E-02    0.85       1.0  T
   6   -112.2116186 -0.892843E-05  0.528E-03    0.84       2.1  T
   7   -112.2116192 -0.628099E-06  0.292E-03    0.84       3.9  T
   8   -112.2116196 -0.400632E-06  0.559E-04    0.84      20.2  T
   9   -112.2116196 -0.195969E-07  0.242E-04    0.84      46.8  T
     SCC iter.                  ...        0 min,  0.356 sec
     gradient                   ...        0 min,  0.017 sec
 * total energy  :  -110.6630166 Eh     change       -0.5352467E-01 Eh
   gradient norm :     0.0989345 Eh/α   predicted    -0.5143494E-01 (  -3.90%)
   displ. norm   :     0.5955577 α      lambda       -0.3640809E-01
   maximum displ.:     0.2789063 α      in ANC's #49, #21, #85, ...

........................................................................
.............................. CYCLE    3 ..............................
........................................................................

 iter      E             dE          RMSdq      gap      omega  full diag
   1   -112.3013190 -0.112301E+03  0.260E-01    0.88       0.0  T
   2   -112.3016130 -0.293996E-03  0.152E-01    0.88       1.0  T
   3   -112.3010803  0.532668E-03  0.979E-02    0.88       1.0  T
   4   -112.3017176 -0.637346E-03  0.290E-02    0.89       1.0  T
   5   -112.3018075 -0.898581E-04  0.105E-02    0.89       1.1  T
   6   -112.3018151 -0.755816E-05  0.349E-03    0.89       3.2  T
   7   -112.3018151 -0.786827E-09  0.251E-03    0.89       4.5  T
   8   -112.3018155 -0.421959E-06  0.626E-04    0.89      18.1  T
   9   -112.3018155 -0.136135E-07  0.301E-04    0.89      37.6  T
     SCC iter.                  ...        0 min,  0.266 sec
     gradient                   ...        0 min,  0.015 sec
 * total energy  :  -110.6852880 Eh     change       -0.2227134E-01 Eh
   gradient norm :     0.0343150 Eh/α   predicted    -0.2466124E-01 (  10.73%)
   displ. norm   :     0.5805688 α      lambda       -0.1170094E-01
   maximum displ.:     0.2813866 α      in ANC's #21, #49, #11, ...

........................................................................
.............................. CYCLE    4 ..............................
........................................................................

 iter      E             dE          RMSdq      gap      omega  full diag
   1   -112.3259021 -0.112326E+03  0.153E-01    0.91       0.0  T
   2   -112.3259313 -0.291950E-04  0.900E-02    0.91       1.0  T
   3   -112.3256037  0.327601E-03  0.632E-02    0.91       1.0  T
   4   -112.3259814 -0.377640E-03  0.137E-02    0.91       1.0  T
   5   -112.3259992 -0.178596E-04  0.310E-03    0.91       3.7  T
   6   -112.3259996 -0.410465E-06  0.166E-03    0.91       6.8  T
   7   -112.3259997 -0.186927E-07  0.917E-04    0.91      12.4  T
   8   -112.3259997 -0.553085E-07  0.285E-04    0.91      39.7  T
     SCC iter.                  ...        0 min,  0.306 sec
     gradient                   ...        0 min,  0.022 sec
 * total energy  :  -110.6944519 Eh     change       -0.9163933E-02 Eh
   gradient norm :     0.0224811 Eh/α   predicted    -0.7822452E-02 ( -14.64%)
   displ. norm   :     0.6839078 α      lambda       -0.8410066E-02
   maximum displ.:     0.3357785 α      in ANC's #21, #11, #17, ...

........................................................................
.............................. CYCLE    5 ..............................
........................................................................

 iter      E             dE          RMSdq      gap      omega  full diag
   1   -112.3463071 -0.112346E+03  0.145E-01    0.92       0.0  T
   2   -112.3463249 -0.178360E-04  0.862E-02    0.92       1.0  T
   3   -112.3461317  0.193182E-03  0.468E-02    0.92       1.0  T
   4   -112.3463421 -0.210367E-03  0.979E-03    0.92       1.2  T
   5   -112.3463526 -0.105089E-04  0.266E-03    0.92       4.3  T
   6   -112.3463529 -0.299632E-06  0.135E-03    0.92       8.4  T
   7   -112.3463529 -0.105925E-07  0.638E-04    0.92      17.8  T
   8   -112.3463530 -0.269079E-07  0.192E-04    0.92      59.1  T
     SCC iter.                  ...        0 min,  0.226 sec
     gradient                   ...        0 min,  0.015 sec
 * total energy  :  -110.7010215 Eh     change       -0.6569582E-02 Eh
   gradient norm :     0.0155270 Eh/α   predicted    -0.6171864E-02 (  -6.05%)
   displ. norm   :     0.6615464 α      lambda       -0.5046847E-02
   maximum displ.:     0.3199188 α      in ANC's #11, #21, #9, ...

........................................................................
.............................. CYCLE    6 ..............................
........................................................................

 iter      E             dE          RMSdq      gap      omega  full diag
   1   -112.3624152 -0.112362E+03  0.110E-01    0.92       0.0  T
   2   -112.3624307 -0.154517E-04  0.646E-02    0.92       1.0  T
   3   -112.3623581  0.725549E-04  0.301E-02    0.92       1.0  T
   4   -112.3624375 -0.793081E-04  0.675E-03    0.92       1.7  T
   5   -112.3624419 -0.447851E-05  0.238E-03    0.92       4.8  T
   6   -112.3624423 -0.352057E-06  0.112E-03    0.92      10.1  T
   7   -112.3624423 -0.506489E-08  0.626E-04    0.92      18.1  T
   8   -112.3624423 -0.298145E-07  0.168E-04    0.92      67.3  T
     SCC iter.                  ...        0 min,  0.142 sec
     gradient                   ...        0 min,  0.020 sec
 * total energy  :  -110.7049436 Eh     change       -0.3922055E-02 Eh
   gradient norm :     0.0138394 Eh/α   predicted    -0.3627792E-02 (  -7.50%)
   displ. norm   :     0.6119035 α      lambda       -0.3125186E-02
   maximum displ.:     0.3281190 α      in ANC's #11, #9, #21, ...

........................................................................
.............................. CYCLE    7 ..............................
........................................................................

 iter      E             dE          RMSdq      gap      omega  full diag
   1   -112.3732097 -0.112373E+03  0.815E-02    0.92       0.0  T
   2   -112.3732221 -0.123118E-04  0.484E-02    0.92       1.0  T
   3   -112.3731546  0.674377E-04  0.274E-02    0.92       1.0  T
   4   -112.3732322 -0.775651E-04  0.545E-03    0.92       2.1  T
   5   -112.3732347 -0.254125E-05  0.203E-03    0.92       5.6  T
   6   -112.3732350 -0.233874E-06  0.975E-04    0.92      11.6  T
   7   -112.3732350 -0.613109E-08  0.534E-04    0.92      21.2  T
     SCC iter.                  ...        0 min,  0.120 sec
     gradient                   ...        0 min,  0.015 sec
 * total energy  :  -110.7073771 Eh     change       -0.2433571E-02 Eh
   gradient norm :     0.0124765 Eh/α   predicted    -0.2147673E-02 ( -11.75%)
   displ. norm   :     0.5801836 α      lambda       -0.2184017E-02
   maximum displ.:     0.3189638 α      in ANC's #11, #9, #20, ...

........................................................................
.............................. CYCLE    8 ..............................
........................................................................

 iter      E             dE          RMSdq      gap      omega  full diag
   1   -112.3799804 -0.112380E+03  0.718E-02    0.92       0.0  T
   2   -112.3799890 -0.863886E-05  0.429E-02    0.92       1.0  T
   3   -112.3799246  0.644038E-04  0.267E-02    0.92       1.0  T
   4   -112.3800003 -0.756940E-04  0.447E-03    0.92       2.5  T
   5   -112.3800019 -0.159791E-05  0.198E-03    0.92       5.7  T
   6   -112.3800022 -0.254244E-06  0.922E-04    0.92      12.3  T
   7   -112.3800022 -0.511339E-08  0.505E-04    0.92      22.4  T
     SCC iter.                  ...        0 min,  0.195 sec
     gradient                   ...        0 min,  0.019 sec
 * total energy  :  -110.7091076 Eh     change       -0.1730489E-02 Eh
   gradient norm :     0.0109101 Eh/α   predicted    -0.1459595E-02 ( -15.65%)
   displ. norm   :     0.5843934 α      lambda       -0.1806985E-02
   maximum displ.:     0.2936672 α      in ANC's #11, #2, #9, ...

........................................................................
.............................. CYCLE    9 ..............................
........................................................................

 iter      E             dE          RMSdq      gap      omega  full diag
   1   -112.3829931 -0.112383E+03  0.799E-02    0.92       0.0  T
   2   -112.3830006 -0.756730E-05  0.484E-02    0.93       1.0  T
   3   -112.3829061  0.945613E-04  0.355E-02    0.92       1.0  T
   4   -112.3830301 -0.124008E-03  0.546E-03    0.93       2.1  T
   5   -112.3830325 -0.244943E-05  0.215E-03    0.93       5.3  T
   6   -112.3830328 -0.271715E-06  0.954E-04    0.93      11.9  T
   7   -112.3830328  0.116479E-08  0.499E-04    0.93      22.7  T
     SCC iter.                  ...        0 min,  0.130 sec
     gradient                   ...        0 min,  0.016 sec
 * total energy  :  -110.7105776 Eh     change       -0.1470017E-02 Eh
   gradient norm :     0.0097178 Eh/α   predicted    -0.1212053E-02 ( -17.55%)
   displ. norm   :     0.6311233 α      lambda       -0.1702235E-02
   maximum displ.:     0.2569808 α      in ANC's #11, #2, #4, ...

........................................................................
.............................. CYCLE   10 ..............................
........................................................................

 iter      E             dE          RMSdq      gap      omega  full diag
   1   -112.3822880 -0.112382E+03  0.983E-02    0.93       0.0  T
   2   -112.3823065 -0.184975E-04  0.593E-02    0.93       1.0  T
   3   -112.3821995  0.106960E-03  0.396E-02    0.93       1.0  T
   4   -112.3823364 -0.136906E-03  0.728E-03    0.93       1.6  T
   5   -112.3823415 -0.509741E-05  0.262E-03    0.93       4.3  T
   6   -112.3823420 -0.443757E-06  0.114E-03    0.93       9.9  T
   7   -112.3823420  0.102327E-08  0.635E-04    0.93      17.8  T
   8   -112.3823420 -0.202592E-07  0.167E-04    0.93      67.8  T
     SCC iter.                  ...        0 min,  0.213 sec
     gradient                   ...        0 min,  0.028 sec
 * total energy  :  -110.7119920 Eh     change       -0.1414411E-02 Eh
   gradient norm :     0.0107436 Eh/α   predicted    -0.1190137E-02 ( -15.86%)
   displ. norm   :     0.6791634 α      lambda       -0.1830297E-02
   maximum displ.:     0.3240266 α      in ANC's #2, #4, #6, ...

........................................................................
.............................. CYCLE   11 ..............................
........................................................................

 iter      E             dE          RMSdq      gap      omega  full diag
   1   -112.3841415 -0.112384E+03  0.112E-01    0.93       0.0  T
   2   -112.3841996 -0.580567E-04  0.701E-02    0.94       1.0  T
   3   -112.3841456  0.539518E-04  0.479E-02    0.94       1.0  T
   4   -112.3842837 -0.138089E-03  0.121E-02    0.94       1.0  T
   5   -112.3842974 -0.136794E-04  0.439E-03    0.94       2.6  T
   6   -112.3842990 -0.160904E-05  0.163E-03    0.94       6.9  T
   7   -112.3842990 -0.196112E-07  0.109E-03    0.94      10.4  T
   8   -112.3842991 -0.540078E-07  0.392E-04    0.94      28.9  T
   9   -112.3842991 -0.120632E-07  0.140E-04    0.94      80.6  T
     SCC iter.                  ...        0 min,  0.223 sec
     gradient                   ...        0 min,  0.016 sec
 * total energy  :  -110.7133449 Eh     change       -0.1352843E-02 Eh
   gradient norm :     0.0133226 Eh/α   predicted    -0.1337280E-02 (  -1.15%)
   displ. norm   :     0.6882232 α      lambda       -0.1916435E-02
   maximum displ.:     0.3361944 α      in ANC's #2, #4, #6, ...

........................................................................
.............................. CYCLE   12 ..............................
........................................................................

 iter      E             dE          RMSdq      gap      omega  full diag
   1   -112.3760430 -0.112376E+03  0.117E-01    0.94       0.0  T
   2   -112.3761401 -0.971017E-04  0.740E-02    0.95       1.0  T
   3   -112.3761216  0.184917E-04  0.469E-02    0.94       1.0  T
   4   -112.3762274 -0.105824E-03  0.117E-02    0.94       1.0  T
   5   -112.3762381 -0.106943E-04  0.519E-03    0.94       2.2  T
   6   -112.3762407 -0.260642E-05  0.182E-03    0.94       6.2  T
   7   -112.3762408 -0.626271E-07  0.117E-03    0.94       9.7  T
   8   -112.3762408 -0.561214E-07  0.384E-04    0.94      29.5  T
   9   -112.3762408 -0.759879E-08  0.164E-04    0.94      69.0  T
     SCC iter.                  ...        0 min,  0.173 sec
     gradient                   ...        0 min,  0.014 sec
 * total energy  :  -110.7145678 Eh     change       -0.1222964E-02 Eh
   gradient norm :     0.0152704 Eh/α   predicted    -0.1412080E-02 (  15.46%)
   displ. norm   :     0.4692400 α      lambda       -0.1456180E-02
   maximum displ.:     0.2605747 α      in ANC's #2, #4, #6, ...

........................................................................
.............................. CYCLE   13 ..............................
........................................................................

 iter      E             dE          RMSdq      gap      omega  full diag
   1   -112.3817562 -0.112382E+03  0.714E-02    0.94       0.0  T
   2   -112.3817911 -0.348485E-04  0.455E-02    0.95       1.0  T
   3   -112.3817796  0.114373E-04  0.294E-02    0.95       1.0  T
   4   -112.3818201 -0.405178E-04  0.851E-03    0.95       1.3  T
   5   -112.3818265 -0.633641E-05  0.376E-03    0.95       3.0  T
   6   -112.3818279 -0.143075E-05  0.110E-03    0.95      10.3  T
   7   -112.3818279 -0.255991E-07  0.712E-04    0.95      15.9  T
   8   -112.3818279 -0.185345E-07  0.256E-04    0.95      44.2  T
     SCC iter.                  ...        0 min,  0.176 sec
     gradient                   ...        0 min,  0.014 sec
 * total energy  :  -110.7157708 Eh     change       -0.1202995E-02 Eh
   gradient norm :     0.0133784 Eh/α   predicted    -0.8884060E-03 ( -26.15%)
   displ. norm   :     0.5694807 α      lambda       -0.1941157E-02
   maximum displ.:     0.2957555 α      in ANC's #2, #4, #6, ...

........................................................................
.............................. CYCLE   14 ..............................
........................................................................

 iter      E             dE          RMSdq      gap      omega  full diag
   1   -112.3906688 -0.112391E+03  0.869E-02    0.96       0.0  T
   2   -112.3906806 -0.118227E-04  0.520E-02    0.95       1.0  T
   3   -112.3905647  0.115942E-03  0.382E-02    0.96       1.0  T
   4   -112.3907046 -0.139916E-03  0.618E-03    0.96       1.8  T
   5   -112.3907074 -0.283334E-05  0.274E-03    0.96       4.1  T
   6   -112.3907080 -0.580551E-06  0.113E-03    0.96      10.0  T
   7   -112.3907080 -0.153862E-07  0.706E-04    0.96      16.0  T
   8   -112.3907081 -0.293472E-07  0.210E-04    0.96      53.9  T
     SCC iter.                  ...        0 min,  0.167 sec
     gradient                   ...        0 min,  0.015 sec
 * total energy  :  -110.7171999 Eh     change       -0.1429079E-02 Eh
   gradient norm :     0.0138478 Eh/α   predicted    -0.1285347E-02 ( -10.06%)
   displ. norm   :     0.6380537 α      lambda       -0.1545933E-02
   maximum displ.:     0.3487626 α      in ANC's #2, #4, #6, ...

........................................................................
.............................. CYCLE   15 ..............................
........................................................................

 iter      E             dE          RMSdq      gap      omega  full diag
   1   -112.3926501 -0.112393E+03  0.902E-02    0.96       0.0  T
   2   -112.3926590 -0.887140E-05  0.533E-02    0.96       1.0  T
   3   -112.3925971  0.618830E-04  0.261E-02    0.96       1.0  T
   4   -112.3926651 -0.680749E-04  0.452E-03    0.96       2.5  T
   5   -112.3926669 -0.174794E-05  0.216E-03    0.96       5.3  T
   6   -112.3926673 -0.376163E-06  0.913E-04    0.96      12.4  T
   7   -112.3926673 -0.442314E-08  0.510E-04    0.96      22.2  T
     SCC iter.                  ...        0 min,  0.127 sec
     gradient                   ...        0 min,  0.015 sec
 * total energy  :  -110.7184212 Eh     change       -0.1221229E-02 Eh
   gradient norm :     0.0143947 Eh/α   predicted    -0.1087659E-02 ( -10.94%)
   displ. norm   :     0.6412375 α      lambda       -0.1491908E-02
   maximum displ.:     0.3583245 α      in ANC's #2, #4, #6, ...

........................................................................
.............................. CYCLE   16 ..............................
........................................................................

 iter      E             dE          RMSdq      gap      omega  full diag
   1   -112.3938933 -0.112394E+03  0.867E-02    0.96       0.0  T
   2   -112.3938979 -0.467304E-05  0.509E-02    0.97       1.0  T
   3   -112.3938899  0.803819E-05  0.103E-02    0.96       1.1  T
   4   -112.3938989 -0.902945E-05  0.288E-03    0.96       3.9  T
   5   -112.3938995 -0.610601E-06  0.141E-03    0.96       8.0  T
   6   -112.3938996 -0.719591E-07  0.794E-04    0.96      14.3  T
   7   -112.3938996 -0.110173E-07  0.294E-04    0.96      38.4  T
     SCC iter.                  ...        0 min,  0.173 sec
     gradient                   ...        0 min,  0.023 sec
 * total energy  :  -110.7196513 Eh     change       -0.1230098E-02 Eh
   gradient norm :     0.0122509 Eh/α   predicted    -0.1052683E-02 ( -14.42%)
   displ. norm   :     0.6581462 α      lambda       -0.1648452E-02
   maximum displ.:     0.3733503 α      in ANC's #2, #4, #6, ...

........................................................................
.............................. CYCLE   17 ..............................
........................................................................

 iter      E             dE          RMSdq      gap      omega  full diag
   1   -112.3924375 -0.112392E+03  0.103E-01    0.97       0.0  T
   2   -112.3924757 -0.382576E-04  0.625E-02    0.97       1.0  T
   3   -112.3924085  0.671783E-04  0.366E-02    0.97       1.0  T
   4   -112.3925018 -0.932896E-04  0.712E-03    0.97       1.6  T
   5   -112.3925061 -0.430300E-05  0.325E-03    0.97       3.5  T
   6   -112.3925073 -0.117329E-05  0.951E-04    0.97      11.9  T
   7   -112.3925073 -0.415028E-07  0.555E-04    0.97      20.4  T
   8   -112.3925073 -0.927649E-08  0.208E-04    0.97      54.5  T
     SCC iter.                  ...        0 min,  0.147 sec
     gradient                   ...        0 min,  0.016 sec
 * total energy  :  -110.7209017 Eh     change       -0.1250412E-02 Eh
   gradient norm :     0.0141288 Eh/α   predicted    -0.1181246E-02 (  -5.53%)
   displ. norm   :     0.6967898 α      lambda       -0.1562722E-02
   maximum displ.:     0.4230553 α      in ANC's #2, #4, #6, ...

........................................................................
.............................. CYCLE   18 ..............................
........................................................................

 iter      E             dE          RMSdq      gap      omega  full diag
   1   -112.3928582 -0.112393E+03  0.954E-02    0.96       0.0  T
   2   -112.3928704 -0.121833E-04  0.573E-02    0.97       1.0  T
   3   -112.3927606  0.109800E-03  0.340E-02    0.96       1.0  T
   4   -112.3928848 -0.124265E-03  0.609E-03    0.97       1.9  T
   5   -112.3928879 -0.304021E-05  0.199E-03    0.97       5.7  T
   6   -112.3928881 -0.247161E-06  0.983E-04    0.97      11.5  T
   7   -112.3928881 -0.808001E-09  0.633E-04    0.97      17.9  T
     SCC iter.                  ...        0 min,  0.167 sec
     gradient                   ...        0 min,  0.015 sec
 * total energy  :  -110.7222532 Eh     change       -0.1351547E-02 Eh
   gradient norm :     0.0121371 Eh/α   predicted    -0.1160729E-02 ( -14.12%)
   displ. norm   :     0.7055765 α      lambda       -0.1652515E-02
   maximum displ.:     0.4280421 α      in ANC's #2, #4, #6, ...

........................................................................
.............................. CYCLE   19 ..............................
........................................................................

 iter      E             dE          RMSdq      gap      omega  full diag
   1   -112.3959765 -0.112396E+03  0.105E-01    0.97       0.0  T
   2   -112.3959870 -0.104761E-04  0.618E-02    0.97       1.0  T
   3   -112.3958349  0.152096E-03  0.411E-02    0.97       1.0  T
   4   -112.3960113 -0.176493E-03  0.478E-03    0.97       2.4  T
   5   -112.3960128 -0.143096E-05  0.246E-03    0.97       4.6  T
   6   -112.3960133 -0.510126E-06  0.978E-04    0.97      11.6  T
   7   -112.3960133 -0.117965E-07  0.613E-04    0.97      18.5  T
     SCC iter.                  ...        0 min,  0.164 sec
     gradient                   ...        0 min,  0.016 sec
 * total energy  :  -110.7237266 Eh     change       -0.1473381E-02 Eh
   gradient norm :     0.0123106 Eh/α   predicted    -0.1237603E-02 ( -16.00%)
   displ. norm   :     0.7817596 α      lambda       -0.1861086E-02
   maximum displ.:     0.4915938 α      in ANC's #2, #4, #7, ...

........................................................................
.............................. CYCLE   20 ..............................
........................................................................

 iter      E             dE          RMSdq      gap      omega  full diag
   1   -112.3964355 -0.112396E+03  0.116E-01    0.98       0.0  T
   2   -112.3964463 -0.107780E-04  0.688E-02    0.98       1.0  T
   3   -112.3963139  0.132364E-03  0.355E-02    0.97       1.0  T
   4   -112.3964598 -0.145907E-03  0.506E-03    0.98       2.2  T
   5   -112.3964618 -0.195912E-05  0.211E-03    0.98       5.4  T
   6   -112.3964620 -0.254599E-06  0.108E-03    0.98      10.5  T
   7   -112.3964621 -0.183373E-07  0.626E-04    0.98      18.1  T
   8   -112.3964621 -0.280598E-07  0.185E-04    0.98      61.3  T
     SCC iter.                  ...        0 min,  0.276 sec
     gradient                   ...        0 min,  0.017 sec
 * total energy  :  -110.7253595 Eh     change       -0.1632952E-02 Eh
   gradient norm :     0.0145139 Eh/α   predicted    -0.1499249E-02 (  -8.19%)
   displ. norm   :     0.7693385 α      lambda       -0.1873528E-02
   maximum displ.:     0.4843254 α      in ANC's #2, #4, #7, ...
 * RMSD in coord.:     0.9808959 α      energy gain  -0.1158676E+00 Eh

generating ANC from model Hessian ...
Using Lindh-Hessian (1995)
 Shifting diagonal of input Hessian by    9.8915733415184618E-003
 Lowest  eigenvalues of input Hessian
    0.000000    0.000000    0.000000    0.000000    0.000000    0.000000
    0.010000    0.010111    0.010249    0.010275    0.010448    0.010518
    0.010850    0.011129    0.011503    0.011792    0.012696    0.012789
 Highest eigenvalues
    2.012516    2.059999    2.067861    2.081226    2.255265    2.285789


........................................................................
.............................. CYCLE   21 ..............................
........................................................................

 iter      E             dE          RMSdq      gap      omega  full diag
   1   -112.4013166 -0.112401E+03  0.115E-01    0.97       0.0  T
   2   -112.4013453 -0.286336E-04  0.691E-02    0.98       1.0  T
   3   -112.4012441  0.101163E-03  0.344E-02    0.98       1.0  T
   4   -112.4013547 -0.110560E-03  0.701E-03    0.98       1.6  T
   5   -112.4013593 -0.466103E-05  0.255E-03    0.98       4.4  T
   6   -112.4013599 -0.533494E-06  0.115E-03    0.98       9.9  T
   7   -112.4013599 -0.317552E-07  0.596E-04    0.98      19.0  T
   8   -112.4013599 -0.195478E-07  0.209E-04    0.98      54.1  T
     SCC iter.                  ...        0 min,  0.357 sec
     gradient                   ...        0 min,  0.017 sec
 * total energy  :  -110.7268162 Eh     change       -0.1456657E-02 Eh
   gradient norm :     0.0209505 Eh/α   predicted     0.0000000E+00 (-100.00%)
   displ. norm   :     0.1984130 α      lambda       -0.9211901E-03
   maximum displ.:     0.0868782 α      in ANC's #3, #1, #7, ...

........................................................................
.............................. CYCLE   22 ..............................
........................................................................

 iter      E             dE          RMSdq      gap      omega  full diag
   1   -112.4018277 -0.112402E+03  0.358E-02    0.99       0.0  T
   2   -112.4018387 -0.110109E-04  0.229E-02    0.98       1.0  T
   3   -112.4018314  0.734098E-05  0.132E-02    0.99       1.0  T
   4   -112.4018415 -0.101395E-04  0.412E-03    0.98       2.8  T
   5   -112.4018430 -0.145429E-05  0.129E-03    0.98       8.8  T
   6   -112.4018431 -0.120393E-06  0.576E-04    0.98      19.7  T
   7   -112.4018431 -0.111594E-08  0.364E-04    0.98      31.1  T
     SCC iter.                  ...        0 min,  0.263 sec
     gradient                   ...        0 min,  0.026 sec
 * total energy  :  -110.7275611 Eh     change       -0.7448790E-03 Eh
   gradient norm :     0.0081316 Eh/α   predicted    -0.4787894E-03 ( -35.72%)
   displ. norm   :     0.4779835 α      lambda       -0.1289870E-02
   maximum displ.:     0.2087525 α      in ANC's #3, #1, #7, ...

........................................................................
.............................. CYCLE   23 ..............................
........................................................................

 iter      E             dE          RMSdq      gap      omega  full diag
   1   -112.4025129 -0.112403E+03  0.706E-02    0.99       0.0  T
   2   -112.4025307 -0.178255E-04  0.428E-02    0.98       1.0  T
   3   -112.4025017  0.290045E-04  0.200E-02    0.99       1.0  T
   4   -112.4025343 -0.326149E-04  0.525E-03    0.98       2.2  T
   5   -112.4025369 -0.262220E-05  0.167E-03    0.99       6.8  T
   6   -112.4025371 -0.144804E-06  0.899E-04    0.99      12.6  T
   7   -112.4025371 -0.370245E-08  0.452E-04    0.99      25.0  T
     SCC iter.                  ...        0 min,  0.449 sec
     gradient                   ...        0 min,  0.028 sec
 * total energy  :  -110.7285787 Eh     change       -0.1017594E-02 Eh
   gradient norm :     0.0109647 Eh/α   predicted    -0.7923532E-03 ( -22.13%)
   displ. norm   :     0.6158906 α      lambda       -0.1201774E-02
   maximum displ.:     0.2699465 α      in ANC's #3, #1, #7, ...

........................................................................
.............................. CYCLE   24 ..............................
........................................................................

 iter      E             dE          RMSdq      gap      omega  full diag
   1   -112.4021679 -0.112402E+03  0.845E-02    0.99       0.0  T
   2   -112.4021739 -0.609206E-05  0.502E-02    0.99       1.0  T
   3   -112.4021600  0.139808E-04  0.123E-02    0.99       1.0  T
   4   -112.4021748 -0.148578E-04  0.335E-03    0.99       3.4  T
   5   -112.4021759 -0.110033E-05  0.148E-03    0.99       7.7  T
   6   -112.4021760 -0.118774E-06  0.839E-04    0.99      13.5  T
   7   -112.4021761 -0.162308E-07  0.363E-04    0.99      31.2  T
     SCC iter.                  ...        0 min,  0.254 sec
     gradient                   ...        0 min,  0.024 sec
 * total energy  :  -110.7296687 Eh     change       -0.1090075E-02 Eh
   gradient norm :     0.0191637 Eh/α   predicted    -0.8288613E-03 ( -23.96%)
   displ. norm   :     0.7570657 α      lambda       -0.1512589E-02
   maximum displ.:     0.3331164 α      in ANC's #3, #1, #7, ...

........................................................................
.............................. CYCLE   25 ..............................
........................................................................

 iter      E             dE          RMSdq      gap      omega  full diag
   1   -112.4015037 -0.112402E+03  0.101E-01    0.99       0.0  T
   2   -112.4015071 -0.341897E-05  0.603E-02    0.99       1.0  T
   3   -112.4014576  0.494836E-04  0.210E-02    0.99       1.0  T
   4   -112.4015112 -0.536316E-04  0.287E-03    0.99       3.9  T
   5   -112.4015117 -0.442343E-06  0.160E-03    0.99       7.1  T
   6   -112.4015118 -0.129120E-06  0.863E-04    0.99      13.1  T
   7   -112.4015118 -0.148445E-07  0.381E-04    0.99      29.7  T
     SCC iter.                  ...        0 min,  0.242 sec
     gradient                   ...        0 min,  0.017 sec
 * total energy  :  -110.7310470 Eh     change       -0.1378247E-02 Eh
   gradient norm :     0.0201325 Eh/α   predicted    -0.1189765E-02 ( -13.68%)
   displ. norm   :     0.7648616 α      lambda       -0.1654666E-02
   maximum displ.:     0.3432955 α      in ANC's #3, #1, #4, ...

........................................................................
.............................. CYCLE   26 ..............................
........................................................................

 iter      E             dE          RMSdq      gap      omega  full diag
   1   -112.4033619 -0.112403E+03  0.100E-01    0.98       0.0  T
   2   -112.4033736 -0.116978E-04  0.605E-02    0.99       1.0  T
   3   -112.4032603  0.113292E-03  0.339E-02    0.99       1.0  T
   4   -112.4033871 -0.126832E-03  0.403E-03    0.99       2.8  T
   5   -112.4033882 -0.110012E-05  0.202E-03    0.99       5.6  T
   6   -112.4033886 -0.356290E-06  0.924E-04    0.99      12.3  T
   7   -112.4033886 -0.129466E-07  0.492E-04    0.99      23.0  T
     SCC iter.                  ...        0 min,  0.243 sec
     gradient                   ...        0 min,  0.018 sec
 * total energy  :  -110.7324849 Eh     change       -0.1437925E-02 Eh
   gradient norm :     0.0141393 Eh/α   predicted    -0.1311339E-02 (  -8.80%)
   displ. norm   :     0.7031361 α      lambda       -0.1623445E-02
   maximum displ.:     0.3327780 α      in ANC's #1, #3, #4, ...

........................................................................
.............................. CYCLE   27 ..............................
........................................................................

 iter      E             dE          RMSdq      gap      omega  full diag
   1   -112.4091310 -0.112409E+03  0.961E-02    0.98       0.0  T
   2   -112.4091532 -0.221795E-04  0.579E-02    1.00       1.0  T
   3   -112.4090423  0.110900E-03  0.373E-02    0.99       1.0  T
   4   -112.4091755 -0.133226E-03  0.537E-03    0.99       2.1  T
   5   -112.4091776 -0.211539E-05  0.235E-03    0.99       4.8  T
   6   -112.4091782 -0.530636E-06  0.956E-04    0.99      11.8  T
   7   -112.4091782 -0.182910E-07  0.575E-04    0.99      19.7  T
     SCC iter.                  ...        0 min,  0.270 sec
     gradient                   ...        0 min,  0.019 sec
 * total energy  :  -110.7338287 Eh     change       -0.1343808E-02 Eh
   gradient norm :     0.0116510 Eh/α   predicted    -0.1213039E-02 (  -9.73%)
   displ. norm   :     0.7787965 α      lambda       -0.1456839E-02
   maximum displ.:     0.3792424 α      in ANC's #1, #3, #2, ...

........................................................................
.............................. CYCLE   28 ..............................
........................................................................

 iter      E             dE          RMSdq      gap      omega  full diag
   1   -112.4086352 -0.112409E+03  0.107E-01    0.99       0.0  T
   2   -112.4086476 -0.124427E-04  0.634E-02    0.99       1.0  T
   3   -112.4085233  0.124368E-03  0.361E-02    0.99       1.0  T
   4   -112.4086638 -0.140570E-03  0.472E-03    0.99       2.4  T
   5   -112.4086655 -0.165332E-05  0.209E-03    0.99       5.4  T
   6   -112.4086659 -0.380829E-06  0.972E-04    0.99      11.6  T
   7   -112.4086659 -0.111130E-07  0.585E-04    0.99      19.4  T
     SCC iter.                  ...        0 min,  0.305 sec
     gradient                   ...        0 min,  0.015 sec
 * total energy  :  -110.7351054 Eh     change       -0.1276702E-02 Eh
   gradient norm :     0.0138595 Eh/α   predicted    -0.1170225E-02 (  -8.34%)
   displ. norm   :     0.7212797 α      lambda       -0.1704362E-02
   maximum displ.:     0.3803622 α      in ANC's #1, #3, #2, ...

........................................................................
.............................. CYCLE   29 ..............................
........................................................................

 iter      E             dE          RMSdq      gap      omega  full diag
   1   -112.4161905 -0.112416E+03  0.114E-01    0.99       0.0  T
   2   -112.4162019 -0.114519E-04  0.670E-02    0.99       1.0  T
   3   -112.4160930  0.108894E-03  0.341E-02    0.99       1.0  T
   4   -112.4162143 -0.121323E-03  0.485E-03    0.99       2.3  T
   5   -112.4162161 -0.175609E-05  0.239E-03    0.99       4.7  T
   6   -112.4162165 -0.434307E-06  0.112E-03    0.99      10.1  T
   7   -112.4162166 -0.124998E-07  0.680E-04    0.99      16.6  T
   8   -112.4162166 -0.298497E-07  0.183E-04    0.99      61.7  T
     SCC iter.                  ...        0 min,  0.146 sec
     gradient                   ...        0 min,  0.018 sec
 * total energy  :  -110.7363304 Eh     change       -0.1224922E-02 Eh
   gradient norm :     0.0159192 Eh/α   predicted    -0.1295527E-02 (   5.76%)
   displ. norm   :     0.7904861 α      lambda       -0.1473458E-02
   maximum displ.:     0.4157517 α      in ANC's #1, #3, #2, ...

........................................................................
.............................. CYCLE   30 ..............................
........................................................................

 iter      E             dE          RMSdq      gap      omega  full diag
   1   -112.4119052 -0.112412E+03  0.105E-01    0.99       0.0  T
   2   -112.4119120 -0.677070E-05  0.622E-02    0.99       1.0  T
   3   -112.4118486  0.633913E-04  0.242E-02    0.99       1.0  T
   4   -112.4119169 -0.683425E-04  0.420E-03    0.99       2.7  T
   5   -112.4119184 -0.150219E-05  0.175E-03    0.99       6.5  T
   6   -112.4119186 -0.209336E-06  0.921E-04    0.99      12.3  T
   7   -112.4119186 -0.857781E-08  0.469E-04    0.99      24.1  T
     SCC iter.                  ...        0 min,  0.126 sec
     gradient                   ...        0 min,  0.015 sec
 * total energy  :  -110.7375610 Eh     change       -0.1230670E-02 Eh
   gradient norm :     0.0141730 Eh/α   predicted    -0.1197089E-02 (  -2.73%)
   displ. norm   :     0.7032616 α      lambda       -0.1323559E-02
   maximum displ.:     0.4072174 α      in ANC's #1, #2, #3, ...

........................................................................
.............................. CYCLE   31 ..............................
........................................................................

 iter      E             dE          RMSdq      gap      omega  full diag
   1   -112.4134908 -0.112413E+03  0.860E-02    0.99       0.0  T
   2   -112.4134955 -0.461672E-05  0.509E-02    0.99       1.0  T
   3   -112.4134738  0.216367E-04  0.159E-02    0.99       1.0  T
   4   -112.4134973 -0.234750E-04  0.338E-03    0.99       3.4  T
   5   -112.4134986 -0.126431E-05  0.118E-03    0.99       9.6  T
   6   -112.4134986 -0.494878E-07  0.650E-04    0.99      17.4  T
   7   -112.4134986 -0.897391E-08  0.274E-04    0.99      41.3  T
     SCC iter.                  ...        0 min,  0.160 sec
     gradient                   ...        0 min,  0.014 sec
 * total energy  :  -110.7386797 Eh     change       -0.1118638E-02 Eh
   gradient norm :     0.0111838 Eh/α   predicted    -0.9890813E-03 ( -11.58%)
   displ. norm   :     0.7129025 α      lambda       -0.1284703E-02
   maximum displ.:     0.4406219 α      in ANC's #1, #2, #3, ...

........................................................................
.............................. CYCLE   32 ..............................
........................................................................

 iter      E             dE          RMSdq      gap      omega  full diag
   1   -112.4172451 -0.112417E+03  0.854E-02    0.99       0.0  T
   2   -112.4172505 -0.543846E-05  0.502E-02    0.99       1.0  T
   3   -112.4172366  0.139778E-04  0.131E-02    0.99       1.0  T
   4   -112.4172517 -0.151369E-04  0.303E-03    0.99       3.7  T
   5   -112.4172526 -0.895922E-06  0.135E-03    0.99       8.4  T
   6   -112.4172527 -0.114778E-06  0.704E-04    0.99      16.1  T
   7   -112.4172527 -0.341682E-08  0.379E-04    0.99      29.8  T
     SCC iter.                  ...        0 min,  0.126 sec
     gradient                   ...        0 min,  0.014 sec
 * total energy  :  -110.7397632 Eh     change       -0.1083505E-02 Eh
   gradient norm :     0.0080728 Eh/α   predicted    -0.9688141E-03 ( -10.59%)
   displ. norm   :     0.8094410 α      lambda       -0.1154188E-02
   maximum displ.:     0.5151267 α      in ANC's #1, #2, #4, ...

........................................................................
.............................. CYCLE   33 ..............................
........................................................................

 iter      E             dE          RMSdq      gap      omega  full diag
   1   -112.4189520 -0.112419E+03  0.896E-02    0.99       0.0  T
   2   -112.4189558 -0.378359E-05  0.532E-02    0.99       1.0  T
   3   -112.4189078  0.479927E-04  0.222E-02    0.99       1.0  T
   4   -112.4189608 -0.529968E-04  0.262E-03    0.99       4.3  T
   5   -112.4189612 -0.404583E-06  0.151E-03    0.99       7.5  T
   6   -112.4189614 -0.154005E-06  0.807E-04    0.99      14.0  T
   7   -112.4189614 -0.949831E-08  0.385E-04    0.99      29.4  T
     SCC iter.                  ...        0 min,  0.119 sec
     gradient                   ...        0 min,  0.015 sec
 * total energy  :  -110.7407706 Eh     change       -0.1007390E-02 Eh
   gradient norm :     0.0081079 Eh/α   predicted    -0.9552040E-03 (  -5.18%)
   displ. norm   :     0.7743648 α      lambda       -0.1182077E-02
   maximum displ.:     0.5279623 α      in ANC's #1, #2, #9, ...

........................................................................
.............................. CYCLE   34 ..............................
........................................................................

 iter      E             dE          RMSdq      gap      omega  full diag
   1   -112.4258363 -0.112426E+03  0.880E-02    0.99       0.0  T
   2   -112.4258402 -0.383072E-05  0.519E-02    0.99       1.0  T
   3   -112.4258224  0.177437E-04  0.135E-02    0.99       1.0  T
   4   -112.4258410 -0.186284E-04  0.315E-03    0.99       3.6  T
   5   -112.4258421 -0.106126E-05  0.114E-03    0.99       9.9  T
   6   -112.4258422 -0.742282E-07  0.594E-04    0.99      19.1  T
   7   -112.4258422 -0.281435E-08  0.305E-04    0.99      37.1  T
     SCC iter.                  ...        0 min,  0.124 sec
     gradient                   ...        0 min,  0.015 sec
 * total energy  :  -110.7417277 Eh     change       -0.9571340E-03 Eh
   gradient norm :     0.0089771 Eh/α   predicted    -0.9454507E-03 (  -1.22%)
   displ. norm   :     0.8276043 α      lambda       -0.1104467E-02
   maximum displ.:     0.5718512 α      in ANC's #1, #2, #4, ...

........................................................................
.............................. CYCLE   35 ..............................
........................................................................

 iter      E             dE          RMSdq      gap      omega  full diag
   1   -112.4241760 -0.112424E+03  0.885E-02    0.99       0.0  T
   2   -112.4241807 -0.471070E-05  0.527E-02    0.99       1.0  T
   3   -112.4241298  0.508977E-04  0.227E-02    0.99       1.0  T
   4   -112.4241851 -0.553530E-04  0.307E-03    0.99       3.7  T
   5   -112.4241859 -0.762209E-06  0.152E-03    0.99       7.4  T
   6   -112.4241861 -0.223300E-06  0.647E-04    0.99      17.5  T
   7   -112.4241861 -0.663312E-08  0.316E-04    0.99      35.8  T
     SCC iter.                  ...        0 min,  0.140 sec
     gradient                   ...        0 min,  0.020 sec
 * total energy  :  -110.7426930 Eh     change       -0.9652727E-03 Eh
   gradient norm :     0.0083614 Eh/α   predicted    -0.9304795E-03 (  -3.60%)
   displ. norm   :     0.7750027 α      lambda       -0.1121351E-02
   maximum displ.:     0.5608754 α      in ANC's #1, #2, #9, ...

........................................................................
.............................. CYCLE   36 ..............................
........................................................................

 iter      E             dE          RMSdq      gap      omega  full diag
   1   -112.4286320 -0.112429E+03  0.787E-02    0.98       0.0  T
   2   -112.4286377 -0.573089E-05  0.467E-02    0.99       1.0  T
   3   -112.4286190  0.186906E-04  0.151E-02    0.99       1.0  T
   4   -112.4286390 -0.199655E-04  0.340E-03    0.99       3.3  T
   5   -112.4286401 -0.114691E-05  0.150E-03    0.99       7.6  T
   6   -112.4286403 -0.178117E-06  0.692E-04    0.99      16.4  T
   7   -112.4286403 -0.761408E-08  0.383E-04    0.99      29.6  T
     SCC iter.                  ...        0 min,  0.176 sec
     gradient                   ...        0 min,  0.015 sec
 * total energy  :  -110.7435409 Eh     change       -0.8479493E-03 Eh
   gradient norm :     0.0139733 Eh/α   predicted    -0.8974343E-03 (   5.84%)
   displ. norm   :     0.7925480 α      lambda       -0.1163527E-02
   maximum displ.:     0.5786757 α      in ANC's #1, #2, #9, ...

........................................................................
.............................. CYCLE   37 ..............................
........................................................................

 iter      E             dE          RMSdq      gap      omega  full diag
   1   -112.4243593 -0.112424E+03  0.843E-02    0.98       0.0  T
   2   -112.4243798 -0.205115E-04  0.517E-02    0.99       1.0  T
   3   -112.4243200  0.597978E-04  0.277E-02    0.98       1.0  T
   4   -112.4243875 -0.675514E-04  0.642E-03    0.98       1.8  T
   5   -112.4243910 -0.349823E-05  0.253E-03    0.98       4.5  T
   6   -112.4243917 -0.706591E-06  0.730E-04    0.98      15.5  T
   7   -112.4243918 -0.192506E-07  0.436E-04    0.98      26.0  T
     SCC iter.                  ...        0 min,  0.241 sec
     gradient                   ...        0 min,  0.014 sec
 * total energy  :  -110.7444938 Eh     change       -0.9528627E-03 Eh
   gradient norm :     0.0107692 Eh/α   predicted    -0.9471925E-03 (  -0.60%)
   displ. norm   :     0.7332723 α      lambda       -0.1095358E-02
   maximum displ.:     0.5486481 α      in ANC's #1, #2, #7, ...

........................................................................
.............................. CYCLE   38 ..............................
........................................................................

 iter      E             dE          RMSdq      gap      omega  full diag
   1   -112.4245597 -0.112425E+03  0.924E-02    0.98       0.0  T
   2   -112.4245634 -0.373713E-05  0.549E-02    0.98       1.0  T
   3   -112.4245414  0.220403E-04  0.141E-02    0.98       1.0  T
   4   -112.4245646 -0.232601E-04  0.309E-03    0.98       3.7  T
   5   -112.4245656 -0.937083E-06  0.122E-03    0.98       9.3  T
   6   -112.4245657 -0.838384E-07  0.643E-04    0.98      17.6  T
   7   -112.4245657 -0.100900E-07  0.282E-04    0.98      40.2  T
     SCC iter.                  ...        0 min,  0.117 sec
     gradient                   ...        0 min,  0.015 sec
 * total energy  :  -110.7453519 Eh     change       -0.8581350E-03 Eh
   gradient norm :     0.0113696 Eh/α   predicted    -0.8421618E-03 (  -1.86%)
   displ. norm   :     0.7810401 α      lambda       -0.1031534E-02
   maximum displ.:     0.5824888 α      in ANC's #1, #2, #7, ...

........................................................................
.............................. CYCLE   39 ..............................
........................................................................

 iter      E             dE          RMSdq      gap      omega  full diag
   1   -112.4238796 -0.112424E+03  0.878E-02    0.98       0.0  T
   2   -112.4238828 -0.325447E-05  0.520E-02    0.98       1.0  T
   3   -112.4238570  0.258621E-04  0.152E-02    0.97       1.0  T
   4   -112.4238847 -0.277678E-04  0.269E-03    0.98       4.2  T
   5   -112.4238853 -0.591646E-06  0.124E-03    0.98       9.1  T
   6   -112.4238855 -0.117857E-06  0.571E-04    0.98      19.8  T
   7   -112.4238855 -0.824538E-08  0.288E-04    0.98      39.3  T
     SCC iter.                  ...        0 min,  0.120 sec
     gradient                   ...        0 min,  0.016 sec
 * total energy  :  -110.7462595 Eh     change       -0.9075651E-03 Eh
   gradient norm :     0.0107175 Eh/α   predicted    -0.8304014E-03 (  -8.50%)
   displ. norm   :     0.7423720 α      lambda       -0.1219522E-02
   maximum displ.:     0.5322675 α      in ANC's #1, #7, #3, ...

........................................................................
.............................. CYCLE   40 ..............................
........................................................................

 iter      E             dE          RMSdq      gap      omega  full diag
   1   -112.4265617 -0.112427E+03  0.101E-01    0.97       0.0  T
   2   -112.4265687 -0.692767E-05  0.594E-02    0.97       1.0  T
   3   -112.4265449  0.237151E-04  0.161E-02    0.97       1.0  T
   4   -112.4265716 -0.266935E-04  0.280E-03    0.97       4.0  T
   5   -112.4265722 -0.554650E-06  0.138E-03    0.97       8.2  T
   6   -112.4265723 -0.867946E-07  0.802E-04    0.97      14.1  T
   7   -112.4265723 -0.361207E-08  0.449E-04    0.97      25.2  T
     SCC iter.                  ...        0 min,  0.146 sec
     gradient                   ...        0 min,  0.025 sec
 * total energy  :  -110.7471736 Eh     change       -0.9141120E-03 Eh
   gradient norm :     0.0092736 Eh/α   predicted    -0.9458123E-03 (   3.47%)
   displ. norm   :     0.8457472 α      lambda       -0.9856201E-03
   maximum displ.:     0.6354256 α      in ANC's #1, #2, #7, ...

........................................................................
.............................. CYCLE   41 ..............................
........................................................................

 iter      E             dE          RMSdq      gap      omega  full diag
   1   -112.4233969 -0.112423E+03  0.995E-02    0.97       0.0  T
   2   -112.4234001 -0.319285E-05  0.589E-02    0.97       1.0  T
   3   -112.4233798  0.203037E-04  0.130E-02    0.97       1.0  T
   4   -112.4234021 -0.222610E-04  0.222E-03    0.97       5.1  T
   5   -112.4234024 -0.298813E-06  0.112E-03    0.97      10.1  T
   6   -112.4234024 -0.343440E-07  0.656E-04    0.97      17.3  T
   7   -112.4234024 -0.635502E-08  0.353E-04    0.97      32.1  T
     SCC iter.                  ...        0 min,  0.173 sec
     gradient                   ...        0 min,  0.015 sec
 * total energy  :  -110.7480115 Eh     change       -0.8379375E-03 Eh
   gradient norm :     0.0094716 Eh/α   predicted    -0.8453149E-03 (   0.88%)
   displ. norm   :     0.7657571 α      lambda       -0.9948183E-03
   maximum displ.:     0.5519956 α      in ANC's #1, #7, #2, ...

........................................................................
.............................. CYCLE   42 ..............................
........................................................................

 iter      E             dE          RMSdq      gap      omega  full diag
   1   -112.4252886 -0.112425E+03  0.101E-01    0.97       0.0  T
   2   -112.4253004 -0.117595E-04  0.598E-02    0.96       1.0  T
   3   -112.4252214  0.789823E-04  0.281E-02    0.97       1.0  T
   4   -112.4253078 -0.864233E-04  0.441E-03    0.96       2.6  T
   5   -112.4253095 -0.163924E-05  0.185E-03    0.96       6.1  T
   6   -112.4253098 -0.306863E-06  0.863E-04    0.96      13.1  T
   7   -112.4253098 -0.184252E-07  0.491E-04    0.96      23.0  T
     SCC iter.                  ...        0 min,  0.133 sec
     gradient                   ...        0 min,  0.015 sec
 * total energy  :  -110.7487337 Eh     change       -0.7221287E-03 Eh
   gradient norm :     0.0141417 Eh/α   predicted    -0.7890846E-03 (   9.27%)
   displ. norm   :     0.7787708 α      lambda       -0.9730215E-03
   maximum displ.:     0.5917266 α      in ANC's #1, #2, #7, ...
 * RMSD in coord.:     1.5531313 α      energy gain  -0.2337411E-01 Eh

generating ANC from model Hessian ...
Using Lindh-Hessian (1995)
 Shifting diagonal of input Hessian by    9.8709611753825185E-003
 Lowest  eigenvalues of input Hessian
    0.000000    0.000000    0.000000    0.000000    0.000000    0.000000
    0.010000    0.010089    0.010184    0.010330    0.010423    0.010496
    0.010834    0.011110    0.011335    0.011640    0.012592    0.012717
 Highest eigenvalues
    2.017480    2.069513    2.081371    2.109939    2.244557    2.263645


........................................................................
.............................. CYCLE   43 ..............................
........................................................................

 iter      E             dE          RMSdq      gap      omega  full diag
   1   -112.4237819 -0.112424E+03  0.860E-02    0.95       0.0  T
   2   -112.4238112 -0.293097E-04  0.521E-02    0.96       1.0  T
   3   -112.4237767  0.345440E-04  0.274E-02    0.95       1.0  T
   4   -112.4238245 -0.478049E-04  0.495E-03    0.96       2.3  T
   5   -112.4238265 -0.196381E-05  0.192E-03    0.96       5.9  T
   6   -112.4238268 -0.299595E-06  0.578E-04    0.96      19.6  T
   7   -112.4238268  0.131629E-08  0.335E-04    0.96      33.8  T
     SCC iter.                  ...        0 min,  0.137 sec
     gradient                   ...        0 min,  0.016 sec
 * total energy  :  -110.7494705 Eh     change       -0.7368227E-03 Eh
   gradient norm :     0.0093775 Eh/α   predicted     0.0000000E+00 (-100.00%)
   displ. norm   :     0.1159782 α      lambda       -0.3266626E-03
   maximum displ.:     0.0764278 α      in ANC's #1, #2, #18, ...

........................................................................
.............................. CYCLE   44 ..............................
........................................................................

 iter      E             dE          RMSdq      gap      omega  full diag
   1   -112.4286888 -0.112429E+03  0.214E-02    0.96       0.0  T
   2   -112.4286937 -0.498038E-05  0.137E-02    0.96       1.0  T
   3   -112.4286936  0.102414E-06  0.767E-03    0.96       1.5  T
   4   -112.4286953 -0.166688E-05  0.269E-03    0.96       4.2  T
   5   -112.4286958 -0.507297E-06  0.108E-03    0.96      10.5  T
   6   -112.4286959 -0.104420E-06  0.288E-04    0.96      39.3  T
   7   -112.4286959 -0.257553E-08  0.187E-04    0.96      60.4  T
     SCC iter.                  ...        0 min,  0.162 sec
     gradient                   ...        0 min,  0.031 sec
 * total energy  :  -110.7497278 Eh     change       -0.2573121E-03 Eh
   gradient norm :     0.0037935 Eh/α   predicted    -0.1655282E-03 ( -35.67%)
   displ. norm   :     0.2478095 α      lambda       -0.3721890E-03
   maximum displ.:     0.1651901 α      in ANC's #1, #2, #16, ...

........................................................................
.............................. CYCLE   45 ..............................
........................................................................

 iter      E             dE          RMSdq      gap      omega  full diag
   1   -112.4330961 -0.112433E+03  0.351E-02    0.96       0.0  T
   2   -112.4331049 -0.883544E-05  0.218E-02    0.96       1.0  T
   3   -112.4331019  0.304974E-05  0.120E-02    0.96       1.0  T
   4   -112.4331077 -0.585675E-05  0.343E-03    0.96       3.3  T
   5   -112.4331086 -0.855554E-06  0.155E-03    0.96       7.3  T
   6   -112.4331088 -0.235327E-06  0.442E-04    0.96      25.6  T
   7   -112.4331088 -0.481647E-08  0.288E-04    0.96      39.3  T
     SCC iter.                  ...        0 min,  0.201 sec
     gradient                   ...        0 min,  0.014 sec
 * total energy  :  -110.7500073 Eh     change       -0.2795339E-03 Eh
   gradient norm :     0.0037979 Eh/α   predicted    -0.1975266E-03 ( -29.34%)
   displ. norm   :     0.3046994 α      lambda       -0.3013373E-03
   maximum displ.:     0.2047134 α      in ANC's #1, #16, #2, ...

........................................................................
.............................. CYCLE   46 ..............................
........................................................................

 iter      E             dE          RMSdq      gap      omega  full diag
   1   -112.4339709 -0.112434E+03  0.373E-02    0.96       0.0  T
   2   -112.4339742 -0.326993E-05  0.223E-02    0.96       1.0  T
   3   -112.4339681  0.610448E-05  0.104E-02    0.96       1.1  T
   4   -112.4339753 -0.728981E-05  0.214E-03    0.96       5.3  T
   5   -112.4339757 -0.377417E-06  0.113E-03    0.96      10.0  T
   6   -112.4339758 -0.125515E-06  0.410E-04    0.96      27.6  T
   7   -112.4339758  0.942336E-09  0.257E-04    0.96      44.1  T
     SCC iter.                  ...        0 min,  0.243 sec
     gradient                   ...        0 min,  0.015 sec
 * total energy  :  -110.7502632 Eh     change       -0.2558883E-03 Eh
   gradient norm :     0.0065253 Eh/α   predicted    -0.1646716E-03 ( -35.65%)
   displ. norm   :     0.3702992 α      lambda       -0.3445676E-03
   maximum displ.:     0.2506855 α      in ANC's #1, #2, #16, ...

........................................................................
.............................. CYCLE   47 ..............................
........................................................................

 iter      E             dE          RMSdq      gap      omega  full diag
   1   -112.4323268 -0.112432E+03  0.418E-02    0.96       0.0  T
   2   -112.4323285 -0.170374E-05  0.249E-02    0.96       1.0  T
   3   -112.4323175  0.109697E-04  0.107E-02    0.95       1.1  T
   4   -112.4323300 -0.124957E-04  0.160E-03    0.96       7.1  T
   5   -112.4323302 -0.178712E-06  0.779E-04    0.96      14.5  T
   6   -112.4323302 -0.226099E-07  0.402E-04    0.96      28.2  T
     SCC iter.                  ...        0 min,  0.255 sec
     gradient                   ...        0 min,  0.016 sec
 * total energy  :  -110.7505567 Eh     change       -0.2934908E-03 Eh
   gradient norm :     0.0068182 Eh/α   predicted    -0.1959086E-03 ( -33.25%)
   displ. norm   :     0.3674875 α      lambda       -0.3380718E-03
   maximum displ.:     0.2622588 α      in ANC's #1, #2, #6, ...

........................................................................
.............................. CYCLE   48 ..............................
........................................................................

 iter      E             dE          RMSdq      gap      omega  full diag
   1   -112.4304044 -0.112430E+03  0.393E-02    0.95       0.0  T
   2   -112.4304080 -0.368038E-05  0.239E-02    0.96       1.0  T
   3   -112.4303947  0.133319E-04  0.127E-02    0.95       1.0  T
   4   -112.4304108 -0.161074E-04  0.221E-03    0.96       5.1  T
   5   -112.4304112 -0.357610E-06  0.877E-04    0.96      12.9  T
   6   -112.4304112 -0.400252E-07  0.384E-04    0.96      29.5  T
     SCC iter.                  ...        0 min,  0.277 sec
     gradient                   ...        0 min,  0.021 sec
 * total energy  :  -110.7508410 Eh     change       -0.2842624E-03 Eh
   gradient norm :     0.0048744 Eh/α   predicted    -0.1918654E-03 ( -32.50%)
   displ. norm   :     0.3326146 α      lambda       -0.2853069E-03
   maximum displ.:     0.2501567 α      in ANC's #1, #2, #6, ...

........................................................................
.............................. CYCLE   49 ..............................
........................................................................

 iter      E             dE          RMSdq      gap      omega  full diag
   1   -112.4299625 -0.112430E+03  0.351E-02    0.95       0.0  T
   2   -112.4299670 -0.454061E-05  0.214E-02    0.95       1.0  T
   3   -112.4299575  0.953780E-05  0.124E-02    0.95       1.0  T
   4   -112.4299698 -0.122976E-04  0.279E-03    0.95       4.1  T
   5   -112.4299704 -0.587189E-06  0.112E-03    0.95      10.1  T
   6   -112.4299705 -0.114257E-06  0.358E-04    0.95      31.6  T
   7   -112.4299705 -0.616475E-08  0.214E-04    0.95      53.0  T
     SCC iter.                  ...        0 min,  0.394 sec
     gradient                   ...        0 min,  0.015 sec
 * total energy  :  -110.7510847 Eh     change       -0.2437099E-03 Eh
   gradient norm :     0.0029098 Eh/α   predicted    -0.1584388E-03 ( -34.99%)
   displ. norm   :     0.3192633 α      lambda       -0.2394902E-03
   maximum displ.:     0.2430516 α      in ANC's #1, #2, #6, ...

........................................................................
.............................. CYCLE   50 ..............................
........................................................................

 iter      E             dE          RMSdq      gap      omega  full diag
   1   -112.4301265 -0.112430E+03  0.341E-02    0.95       0.0  T
   2   -112.4301291 -0.264548E-05  0.204E-02    0.95       1.0  T
   3   -112.4301196  0.948885E-05  0.112E-02    0.95       1.0  T
   4   -112.4301308 -0.111705E-04  0.217E-03    0.95       5.2  T
   5   -112.4301312 -0.357491E-06  0.939E-04    0.95      12.1  T
   6   -112.4301312 -0.916267E-07  0.283E-04    0.95      40.0  T
     SCC iter.                  ...        0 min,  0.110 sec
     gradient                   ...        0 min,  0.017 sec
 * total energy  :  -110.7513015 Eh     change       -0.2168643E-03 Eh
   gradient norm :     0.0036529 Eh/α   predicted    -0.1319551E-03 ( -39.15%)
   displ. norm   :     0.3124611 α      lambda       -0.2353874E-03
   maximum displ.:     0.2394117 α      in ANC's #1, #2, #6, ...

........................................................................
.............................. CYCLE   51 ..............................
........................................................................

 iter      E             dE          RMSdq      gap      omega  full diag
   1   -112.4311400 -0.112431E+03  0.355E-02    0.95       0.0  T
   2   -112.4311409 -0.906327E-06  0.210E-02    0.95       1.0  T
   3   -112.4311319  0.897607E-05  0.963E-03    0.95       1.2  T
   4   -112.4311417 -0.980509E-05  0.141E-03    0.95       8.0  T
   5   -112.4311419 -0.167126E-06  0.691E-04    0.95      16.4  T
   6   -112.4311419 -0.518130E-07  0.230E-04    0.95      49.3  T
     SCC iter.                  ...        0 min,  0.298 sec
     gradient                   ...        0 min,  0.034 sec
 * total energy  :  -110.7515191 Eh     change       -0.2175297E-03 Eh
   gradient norm :     0.0043666 Eh/α   predicted    -0.1291849E-03 ( -40.61%)
   displ. norm   :     0.3442468 α      lambda       -0.2524991E-03
   maximum displ.:     0.2611669 α      in ANC's #1, #2, #6, ...

........................................................................
.............................. CYCLE   52 ..............................
........................................................................

 iter      E             dE          RMSdq      gap      omega  full diag
   1   -112.4318288 -0.112432E+03  0.402E-02    0.95       0.0  T
   2   -112.4318291 -0.349678E-06  0.237E-02    0.95       1.0  T
   3   -112.4318223  0.680575E-05  0.785E-03    0.95       1.4  T
   4   -112.4318297 -0.734149E-05  0.886E-04    0.95      12.8  T
   5   -112.4318297 -0.580878E-07  0.501E-04    0.95      22.6  T
   6   -112.4318298 -0.205200E-07  0.232E-04    0.95      48.7  T
     SCC iter.                  ...        0 min,  0.197 sec
     gradient                   ...        0 min,  0.015 sec
 * total energy  :  -110.7517540 Eh     change       -0.2349723E-03 Eh
   gradient norm :     0.0041655 Eh/α   predicted    -0.1412118E-03 ( -39.90%)
   displ. norm   :     0.3720887 α      lambda       -0.2685326E-03
   maximum displ.:     0.2827409 α      in ANC's #1, #2, #6, ...

........................................................................
.............................. CYCLE   53 ..............................
........................................................................

 iter      E             dE          RMSdq      gap      omega  full diag
   1   -112.4330699 -0.112433E+03  0.448E-02    0.95       0.0  T
   2   -112.4330703 -0.454912E-06  0.264E-02    0.95       1.0  T
   3   -112.4330643  0.596727E-05  0.727E-03    0.95       1.6  T
   4   -112.4330708 -0.646003E-05  0.103E-03    0.95      11.0  T
   5   -112.4330709 -0.871969E-07  0.458E-04    0.95      24.7  T
   6   -112.4330709 -0.747497E-08  0.270E-04    0.95      42.0  T
     SCC iter.                  ...        0 min,  0.156 sec
     gradient                   ...        0 min,  0.015 sec
 * total energy  :  -110.7520018 Eh     change       -0.2477249E-03 Eh
   gradient norm :     0.0037185 Eh/α   predicted    -0.1528562E-03 ( -38.30%)
   displ. norm   :     0.4016253 α      lambda       -0.2720684E-03
   maximum displ.:     0.3022177 α      in ANC's #1, #2, #6, ...

........................................................................
.............................. CYCLE   54 ..............................
........................................................................

 iter      E             dE          RMSdq      gap      omega  full diag
   1   -112.4331412 -0.112433E+03  0.476E-02    0.94       0.0  T
   2   -112.4331417 -0.492194E-06  0.280E-02    0.95       1.0  T
   3   -112.4331379  0.382570E-05  0.588E-03    0.95       1.9  T
   4   -112.4331421 -0.416439E-05  0.100E-03    0.95      11.3  T
   5   -112.4331422 -0.782848E-07  0.435E-04    0.95      26.0  T
   6   -112.4331422 -0.307411E-08  0.260E-04    0.95      43.5  T
     SCC iter.                  ...        0 min,  0.138 sec
     gradient                   ...        0 min,  0.014 sec
 * total energy  :  -110.7522538 Eh     change       -0.2520332E-03 Eh
   gradient norm :     0.0023620 Eh/α   predicted    -0.1579812E-03 ( -37.32%)
   displ. norm   :     0.3944517 α      lambda       -0.2560155E-03
   maximum displ.:     0.2970684 α      in ANC's #1, #2, #6, ...

........................................................................
.............................. CYCLE   55 ..............................
........................................................................

 iter      E             dE          RMSdq      gap      omega  full diag
   1   -112.4338127 -0.112434E+03  0.471E-02    0.94       0.0  T
   2   -112.4338130 -0.331536E-06  0.277E-02    0.94       1.0  T
   3   -112.4338102  0.287607E-05  0.509E-03    0.94       2.2  T
   4   -112.4338133 -0.316280E-05  0.804E-04    0.94      14.1  T
   5   -112.4338134 -0.375305E-07  0.376E-04    0.94      30.1  T
   6   -112.4338134  0.259604E-09  0.210E-04    0.94      53.9  T
     SCC iter.                  ...        0 min,  0.154 sec
     gradient                   ...        0 min,  0.015 sec
 * total energy  :  -110.7524946 Eh     change       -0.2407953E-03 Eh
   gradient norm :     0.0024243 Eh/α   predicted    -0.1479278E-03 ( -38.57%)
   displ. norm   :     0.3934403 α      lambda       -0.2439483E-03
   maximum displ.:     0.2956892 α      in ANC's #1, #2, #6, ...

........................................................................
.............................. CYCLE   56 ..............................
........................................................................

 iter      E             dE          RMSdq      gap      omega  full diag
   1   -112.4340554 -0.112434E+03  0.465E-02    0.94       0.0  T
   2   -112.4340557 -0.289472E-06  0.273E-02    0.94       1.0  T
   3   -112.4340531  0.262924E-05  0.491E-03    0.94       2.3  T
   4   -112.4340560 -0.290664E-05  0.691E-04    0.94      16.4  T
   5   -112.4340560 -0.191267E-07  0.379E-04    0.94      29.9  T
   6   -112.4340560 -0.168251E-08  0.225E-04    0.94      50.3  T
     SCC iter.                  ...        0 min,  0.154 sec
     gradient                   ...        0 min,  0.015 sec
 * total energy  :  -110.7527265 Eh     change       -0.2318595E-03 Eh
   gradient norm :     0.0023457 Eh/α   predicted    -0.1408560E-03 ( -39.25%)
   displ. norm   :     0.3827105 α      lambda       -0.2312446E-03
   maximum displ.:     0.2882954 α      in ANC's #1, #2, #6, ...

........................................................................
.............................. CYCLE   57 ..............................
........................................................................

 iter      E             dE          RMSdq      gap      omega  full diag
   1   -112.4343378 -0.112434E+03  0.455E-02    0.94       0.0  T
   2   -112.4343382 -0.387340E-06  0.267E-02    0.94       1.0  T
[...]
        96        2.0000           -0.5176271             -14.0854
        97        2.0000           -0.5141336             -13.9903
        98        2.0000           -0.5087119             -13.8428
        99        2.0000           -0.5051103             -13.7448
       100        2.0000           -0.4993361             -13.5876
       101        2.0000           -0.4969759             -13.5234 (HOMO)
       102                         -0.4632293             -12.6051 (LUMO)
       103                         -0.4062615             -11.0549
       104                         -0.3759142             -10.2291
       105                         -0.3568503              -9.7104
       106                         -0.3528144              -9.6006
       107                         -0.3403982              -9.2627
       108                         -0.3131494              -8.5212
       109                         -0.3032059              -8.2507
       110                         -0.2804745              -7.6321
       111                         -0.2231932              -6.0734
       112                         -0.2141707              -5.8279
       ...                                ...                  ...
       195                          0.6270756              17.0636
      -------------------------------------------------------------
                  HL-Gap            0.0337466 Eh            0.9183 eV
             Fermi-level           -0.4800645 Eh          -13.0632 eV

     #   Z          covCN         q      C6AA      α(0)
     1   6 C        2.921    -0.066    29.632     8.927
     2   6 C        2.859     0.169    24.360     8.090
     3   6 C        2.974    -0.004    28.111     8.697
     4   6 C        2.976    -0.008    28.214     8.713
     5   6 C        2.927    -0.028    28.697     8.785
     6   6 C        2.971     0.042    27.063     8.533
     7   6 C        2.972     0.062    26.596     8.459
     8   6 C        2.990     0.008    27.834     8.654
     9   6 C        2.977    -0.005    28.146     8.702
    10   6 C        2.833     0.229    23.205     7.894
    11   6 C        2.974    -0.003    28.105     8.696
    12   6 C        2.976    -0.008    28.208     8.712
    13   6 C        2.833     0.229    23.204     7.894
    14   6 C        2.976    -0.006    28.171     8.706
    15   6 C        2.928    -0.013    28.327     8.728
    16   6 C        2.972     0.041    27.087     8.537
    17   6 C        2.926    -0.017    28.439     8.746
    18   6 C        2.859     0.169    24.355     8.089
    19   6 C        2.921    -0.066    29.632     8.927
    20   6 C        2.971     0.042    27.058     8.532
    21   6 C        2.927    -0.028    28.694     8.785
    22   8 O        1.705    -0.228    17.788     5.694
    23   8 O        1.705    -0.229    17.804     5.697
    24   8 O        0.858    -0.328    20.297     6.040
    25   8 O        0.858    -0.330    20.335     6.046
    26   6 C        3.642     0.025    20.509     6.511
    27   6 C        3.642     0.025    20.508     6.511
    28   6 C        3.903     0.030    20.020     6.360
    29   6 C        3.761    -0.120    22.849     6.814
    30   6 C        3.762    -0.112    22.681     6.789
    31   6 C        3.903     0.030    20.020     6.360
    32   6 C        3.762    -0.111    22.675     6.788
    33   6 C        3.761    -0.120    22.850     6.814
    34   6 C        3.761    -0.112    22.687     6.790
    35   6 C        3.903     0.030    20.020     6.360
    36   6 C        3.761    -0.119    22.830     6.811
    37   6 C        3.762    -0.113    22.706     6.793
    38   6 C        3.762    -0.113    22.711     6.793
    39   1 H        0.925     0.043     2.409     2.427
    40   1 H        0.925     0.048     2.341     2.393
    41   1 H        0.925     0.061     2.187     2.313
    42   1 H        0.925     0.057     2.237     2.339
    43   1 H        0.925     0.047     2.353     2.399
    44   1 H        0.925     0.046     2.372     2.408
    45   1 H        0.925     0.061     2.188     2.313
    46   1 H        0.925     0.047     2.355     2.400
    47   1 H        0.925     0.044     2.400     2.423
    48   1 H        0.926     0.089     1.888     2.149
    49   1 H        0.926     0.095     1.828     2.114
    50   1 H        0.926     0.099     1.798     2.097
    51   1 H        0.926     0.067     2.114     2.274
    52   1 H        0.925     0.057     2.237     2.339
    53   1 H        0.925     0.049     2.337     2.390
    54   1 H        0.925     0.048     2.339     2.392
    55   1 H        0.925     0.040     2.454     2.450
    56   1 H        0.925     0.061     2.189     2.314
    57   1 H        0.925     0.043     2.409     2.427
    58   1 H        0.925     0.081     1.967     2.193
    59   1 H        0.924     0.065     2.142     2.289
    60   1 H        0.924     0.060     2.197     2.318
    61   1 H        0.925     0.081     1.968     2.194
    62   1 H        0.924     0.065     2.143     2.289
    63   1 H        0.924     0.060     2.198     2.319
    64   1 H        0.926     0.067     2.115     2.274
    65   1 H        0.926     0.098     1.799     2.098
    66   1 H        0.925     0.061     2.188     2.313
    67   1 H        0.925     0.041     2.438     2.442
    68   1 H        0.925     0.045     2.390     2.417
    69   1 H        0.925     0.049     2.336     2.390
    70   1 H        0.925     0.057     2.237     2.339
    71   1 H        0.925     0.048     2.340     2.392
    72   1 H        0.925     0.061     2.185     2.312
    73   1 H        0.925     0.043     2.404     2.425
    74   1 H        0.925     0.039     2.457     2.451
    75   6 C        3.762    -0.112    22.681     6.789
    76   1 H        0.925     0.061     2.183     2.311
    77   1 H        0.925     0.041     2.438     2.442
    78   1 H        0.925     0.045     2.385     2.415

 Mol. C6AA /au·bohr⁶  :      62595.126394
 Mol. C8AA /au·bohr⁸  :    1487834.320000
 Mol. α(0) /au        :        387.549735


Wiberg/Mayer (AO) data.
largest (>0.10) Wiberg bond orders for each atom

 ---------------------------------------------------------------------------
     #   Z sym  total        # sym  WBO       # sym  WBO       # sym  WBO
 ---------------------------------------------------------------------------
     1   6 C    3.983 --     6 C    1.416     2 C    1.368    64 H    0.953
     2   6 C    3.912 --     1 C    1.368     3 C    1.214    23 O    1.136
     3   6 C    3.977 --     4 C    1.259     7 C    1.237     2 C    1.214
     4   6 C    3.977 --     5 C    1.462     3 C    1.259    10 C    1.017
     5   6 C    3.956 --     4 C    1.462     6 C    1.324    65 H    0.952
     6   6 C    3.940 --     1 C    1.416     5 C    1.324    31 C    0.998
     7   6 C    3.947 --    11 C    1.240     3 C    1.237     8 C    1.170
     8   6 C    3.986 --     9 C    1.295    14 C    1.285     7 C    1.170
     9   6 C    3.976 --    17 C    1.415     8 C    1.295    10 C    1.021
    10   6 C    3.936 --    24 O    1.801     9 C    1.021     4 C    1.017
    11   6 C    3.977 --    12 C    1.257     7 C    1.240    18 C    1.213
    12   6 C    3.977 --    21 C    1.462    11 C    1.257    13 C    1.018
    13   6 C    3.936 --    25 O    1.798    14 C    1.023    12 C    1.018
    14   6 C    3.977 --    15 C    1.428     8 C    1.285    13 C    1.023
    15   6 C    3.973 --    14 C    1.428    16 C    1.365    48 H    0.954
    16   6 C    3.939 --    17 C    1.377    15 C    1.365    35 C    0.999
    17   6 C    3.972 --     9 C    1.415    16 C    1.377    49 H    0.954
    18   6 C    3.912 --    19 C    1.368    11 C    1.213    22 O    1.138
    19   6 C    3.983 --    20 C    1.415    18 C    1.368    51 H    0.953
    20   6 C    3.939 --    19 C    1.415    21 C    1.323    28 C    0.998
    21   6 C    3.956 --    12 C    1.462    20 C    1.323    50 H    0.952
    22   8 O    2.314 --    18 C    1.138    26 C    0.966
    23   8 O    2.313 --     2 C    1.136    27 C    0.966
    24   8 O    2.066 --    10 C    1.801
    25   8 O    2.066 --    13 C    1.798
    26   6 C    3.924 --    58 H    0.977    59 H    0.973    60 H    0.971
                            22 O    0.966
    27   6 C    3.924 --    61 H    0.977    62 H    0.973    63 H    0.971
                            23 O    0.966
    28   6 C    3.983 --    29 C    1.000    20 C    0.998    30 C    0.974
                            75 C    0.972
    29   6 C    3.992 --    28 C    1.000    54 H    0.983    53 H    0.983
                            52 H    0.982
    30   6 C    3.986 --    57 H    0.986    55 H    0.983    56 H    0.980
                            28 C    0.974
    31   6 C    3.983 --    33 C    1.000     6 C    0.998    34 C    0.973
                            32 C    0.973
    32   6 C    3.985 --    73 H    0.986    74 H    0.983    72 H    0.980
                            31 C    0.973
    33   6 C    3.992 --    31 C    1.000    71 H    0.983    69 H    0.983
                            70 H    0.982
    34   6 C    3.985 --    68 H    0.986    67 H    0.983    66 H    0.980
                            31 C    0.973
    35   6 C    3.981 --    36 C    1.000    16 C    0.999    38 C    0.972
                            37 C    0.970
    36   6 C    3.992 --    35 C    1.000    44 H    0.983    43 H    0.983
                            42 H    0.982
    37   6 C    3.982 --    39 H    0.986    40 H    0.982    41 H    0.980
                            35 C    0.970
    38   6 C    3.983 --    47 H    0.986    46 H    0.982    45 H    0.980
                            35 C    0.972
    39   1 H    0.998 --    37 C    0.986
    40   1 H    0.998 --    37 C    0.982
    41   1 H    0.994 --    37 C    0.980
    42   1 H    0.996 --    36 C    0.982
    43   1 H    0.997 --    36 C    0.983
    44   1 H    0.998 --    36 C    0.983
    45   1 H    0.994 --    38 C    0.980
    46   1 H    0.998 --    38 C    0.982
    47   1 H    0.998 --    38 C    0.986
    48   1 H    0.991 --    15 C    0.954
    49   1 H    0.990 --    17 C    0.954
    50   1 H    0.989 --    21 C    0.952
    51   1 H    0.994 --    19 C    0.953
    52   1 H    0.996 --    29 C    0.982
    53   1 H    0.997 --    29 C    0.983
    54   1 H    0.997 --    29 C    0.983
    55   1 H    0.998 --    30 C    0.983
    56   1 H    0.994 --    30 C    0.980
    57   1 H    0.998 --    30 C    0.986
    58   1 H    0.993 --    26 C    0.977
    59   1 H    0.994 --    26 C    0.973
    60   1 H    0.994 --    26 C    0.971
    61   1 H    0.993 --    27 C    0.977
    62   1 H    0.994 --    27 C    0.973
    63   1 H    0.994 --    27 C    0.971
    64   1 H    0.994 --     1 C    0.953
    65   1 H    0.989 --     5 C    0.952
    66   1 H    0.994 --    34 C    0.980
    67   1 H    0.998 --    34 C    0.983
    68   1 H    0.998 --    34 C    0.986
    69   1 H    0.997 --    33 C    0.983
    70   1 H    0.996 --    33 C    0.982
    71   1 H    0.998 --    33 C    0.983
    72   1 H    0.994 --    32 C    0.980
    73   1 H    0.998 --    32 C    0.986
    74   1 H    0.998 --    32 C    0.983
    75   6 C    3.984 --    78 H    0.986    77 H    0.983    76 H    0.980
                            28 C    0.972
    76   1 H    0.994 --    75 C    0.980
    77   1 H    0.998 --    75 C    0.983
    78   1 H    0.998 --    75 C    0.986
 ---------------------------------------------------------------------------

Topologies differ in bond orders
Writing corrected topology to xtbtopo.mol

molecular dipole:
                 x           y           z       tot (Debye)
 q only:       -2.822      -1.460      -0.348
   full:       -3.215      -1.252      -0.292       8.800
molecular quadrupole (traceless):
                xx          xy          yy          xz          yz          zz
 q only:       31.465      -4.271      14.432     -14.205      -5.707     -45.897
  q+dip:       34.473      -4.860      13.253     -15.459      -7.396     -47.725
   full:       30.871      -5.840       9.143     -15.331     -10.270     -40.013

           -------------------------------------------------
          |                Geometry Summary                 |
           -------------------------------------------------

      molecular mass/u    :      523.6830654
   center of mass at/Å    :       -0.4076724      -1.3530444      -0.3276028
  moments of inertia/u·Å² :        0.5546201E+04   0.5751523E+04   0.1039631E+05
rotational constants/cm⁻¹ :        0.3039492E-02   0.2930986E-02   0.1621502E-02

 * 74 selected distances

     #   Z          #   Z                                           value/Å
     1   6 C        2   6 C                                       1.3915823
     2   6 C        3   6 C                                       1.4271964
     3   6 C        4   6 C                                       1.4156226
     4   6 C        5   6 C                                       1.3791347
     1   6 C        6   6 C                                       1.3895211
     5   6 C        6   6 C                                       1.3994718
     3   6 C        7   6 C                                       1.4249733
     8   6 C        9   6 C                                       1.4042760
     7   6 C       11   6 C                                       1.4243051
    11   6 C       12   6 C                                       1.4161103
     8   6 C       14   6 C                                       1.4059427
    14   6 C       15   6 C                                       1.3849625
    15   6 C       16   6 C                                       1.3978232
     9   6 C       17   6 C                                       1.3876884
    16   6 C       17   6 C                                       1.3946372
    11   6 C       18   6 C                                       1.4276803
    18   6 C       19   6 C                                       1.3913554
    19   6 C       20   6 C                                       1.3895116
    12   6 C       21   6 C                                       1.3792571
    20   6 C       21   6 C                                       1.3995292
    18   6 C       22   8 O                                       1.3382281
     2   6 C       23   8 O                                       1.3386718
    10   6 C       24   8 O                                       1.2113390
    13   6 C       25   8 O                                       1.2116616
    22   8 O       26   6 C                                       1.4131652
    23   8 O       27   6 C                                       1.4132240
    28   6 C       29   6 C                                       1.5299816
    28   6 C       30   6 C                                       1.5371689
    31   6 C       32   6 C                                       1.5373567
    31   6 C       33   6 C                                       1.5300575
    31   6 C       34   6 C                                       1.5372574
    35   6 C       36   6 C                                       1.5298033
    35   6 C       37   6 C                                       1.5376233 (max)
    35   6 C       38   6 C                                       1.5370709
    37   6 C       39   1 H                                       1.0878253
    37   6 C       40   1 H                                       1.0861212
    37   6 C       41   1 H                                       1.0866327
    36   6 C       42   1 H                                       1.0869589
    36   6 C       43   1 H                                       1.0873449
    36   6 C       44   1 H                                       1.0873630
    38   6 C       45   1 H                                       1.0866467
    38   6 C       46   1 H                                       1.0860782
    38   6 C       47   1 H                                       1.0877632
    15   6 C       48   1 H                                       1.0796915
    17   6 C       49   1 H                                       1.0785683
    21   6 C       50   1 H                                       1.0779477
    19   6 C       51   1 H                                       1.0773476 (min)
    29   6 C       52   1 H                                       1.0870174
    29   6 C       53   1 H                                       1.0870095
    29   6 C       54   1 H                                       1.0871320
    30   6 C       55   1 H                                       1.0866248
    30   6 C       56   1 H                                       1.0866037
    30   6 C       57   1 H                                       1.0878067
    26   6 C       58   1 H                                       1.0887215
    26   6 C       59   1 H                                       1.0927183
    26   6 C       60   1 H                                       1.0936700
    27   6 C       61   1 H                                       1.0887523
Note: The following floating-point exceptions are signalling: IEEE_UNDERFLOW_FLAG
normal termination of xtb
    27   6 C       62   1 H                                       1.0927513
    27   6 C       63   1 H                                       1.0936232
     1   6 C       64   1 H                                       1.0773979
     5   6 C       65   1 H                                       1.0778708
    34   6 C       66   1 H                                       1.0865496
    34   6 C       67   1 H                                       1.0863719
    34   6 C       68   1 H                                       1.0875891
    33   6 C       69   1 H                                       1.0870149
    33   6 C       70   1 H                                       1.0869395
    33   6 C       71   1 H                                       1.0870375
    32   6 C       72   1 H                                       1.0865238
    32   6 C       73   1 H                                       1.0876928
    32   6 C       74   1 H                                       1.0866562
    28   6 C       75   6 C                                       1.5375516
    75   6 C       76   1 H                                       1.0866032
    75   6 C       77   1 H                                       1.0864985
    75   6 C       78   1 H                                       1.0875964

 * 3 distinct bonds (by element types)

   Z      Z             #   av. dist./Å        max./Å        min./Å
   1 H    6 C          39     1.0863349     1.0936700     1.0773476
   6 C    6 C          29     1.4429122     1.5376233     1.3791347
   6 C    8 O           6     1.3210483     1.4132240     1.2113390


optimized geometry written to: xtbopt.mol


           -------------------------------------------------
          | TOTAL ENERGY             -110.756855056779 Eh   |
          | GRADIENT NORM               0.000297268790 Eh/α |
          | HOMO-LUMO GAP               0.918291930060 eV   |
           -------------------------------------------------
########################################################################
[WARNING] Runtime exception occurred
-1- restart_readRestart: Number of electron missmatch in restart file.
########################################################################

------------------------------------------------------------------------
 * finished run on 2024/11/11 at 15:22:41.132     
------------------------------------------------------------------------
 total:
 * wall-time:     0 d,  0 h,  0 min, 21.437 sec
 *  cpu-time:     0 d,  0 h,  1 min,  6.728 sec
 * ratio c/w:     3.113 speedup
 SCF:
 * wall-time:     0 d,  0 h,  0 min,  0.578 sec
 *  cpu-time:     0 d,  0 h,  0 min,  2.111 sec
 * ratio c/w:     3.650 speedup
 ANC optimizer:
 * wall-time:     0 d,  0 h,  0 min, 20.848 sec
 *  cpu-time:     0 d,  0 h,  1 min,  4.599 sec
 * ratio c/w:     3.099 speedup

