      -----------------------------------------------------------      
     |                   =====================                   |     
     |                           x T B                           |     
     |                   =====================                   |     
     |                         S. Grimme                         |     
     |          Mulliken Center for Theoretical Chemistry        |     
     |                    University of Bonn                     |     
      -----------------------------------------------------------      

   * xtb version 6.6.1 (8d0f1dd) compiled by 'runner@Mac-1690902418499.local' on 2023-08-01

   xtb is free software: you can redistribute it and/or modify it under
   the terms of the GNU Lesser General Public License as published by
   the Free Software Foundation, either version 3 of the License, or
   (at your option) any later version.
   
   xtb is distributed in the hope that it will be useful,
   but WITHOUT ANY WARRANTY; without even the implied warranty of
   MERCHANTABILITY or FITNESS FOR A PARTICULAR PURPOSE.  See the
   GNU Lesser General Public License for more details.
   
   Cite this work as:
   * C. Bannwarth, E. Caldeweyher, S. Ehlert, A. Hansen, P. Pracht,
     J. Seibert, S. Spicher, S. Grimme, WIREs Comput. Mol. Sci., 2020, 11,
     e01493. DOI: 10.1002/wcms.1493
   
   for GFN2-xTB:
   * C. Bannwarth, S. Ehlert and S. Grimme., J. Chem. Theory Comput., 2019,
     15, 1652-1671. DOI: 10.1021/acs.jctc.8b01176
   for GFN1-xTB:
   * S. Grimme, C. Bannwarth, P. Shushkov, J. Chem. Theory Comput., 2017,
     13, 1989-2009. DOI: 10.1021/acs.jctc.7b00118
   for GFN0-xTB:
   * P. Pracht, E. Caldeweyher, S. Ehlert, S. Grimme, ChemRxiv, 2019, preprint.
     DOI: 10.26434/chemrxiv.8326202.v1
   for GFN-FF:
   * S. Spicher and S. Grimme, Angew. Chem. Int. Ed., 2020, 59, 15665-15673.
     DOI: 10.1002/anie.202004239
   
   for ALPB and GBSA implicit solvation:
   * S. Ehlert, M. Stahn, S. Spicher, S. Grimme, J. Chem. Theory Comput.,
     2021, 17, 4250-4261. DOI: 10.1021/acs.jctc.1c00471
   
   for DFT-D4:
   * E. Caldeweyher, C. Bannwarth and S. Grimme, J. Chem. Phys., 2017,
     147, 034112. DOI: 10.1063/1.4993215
   * E. Caldeweyher, S. Ehlert, A. Hansen, H. Neugebauer, S. Spicher,
     C. Bannwarth and S. Grimme, J. Chem. Phys., 2019, 150, 154122.
     DOI: 10.1063/1.5090222
   * E. Caldeweyher, J.-M. Mewes, S. Ehlert and S. Grimme, Phys. Chem. Chem. Phys.
     2020, 22, 8499-8512. DOI: 10.1039/D0CP00502A
   
   for sTDA-xTB:
   * S. Grimme and C. Bannwarth, J. Chem. Phys., 2016, 145, 054103.
     DOI: 10.1063/1.4959605
   
   in the mass-spec context:
   * V. Asgeirsson, C. Bauer and S. Grimme, Chem. Sci., 2017, 8, 4879.
     DOI: 10.1039/c7sc00601b
   * J. Koopman and S. Grimme, ACS Omega 2019, 4, 12, 15120-15133.
     DOI: 10.1021/acsomega.9b02011
   
   for metadynamics refer to:
   * S. Grimme, J. Chem. Theory Comput., 2019, 155, 2847-2862
     DOI: 10.1021/acs.jctc.9b00143
   
   for SPH calculations refer to:
   * S. Spicher and S. Grimme, J. Chem. Theory Comput., 2021, 17, 1701-1714
     DOI: 10.1021/acs.jctc.0c01306
   
   with help from (in alphabetical order)
   P. Atkinson, C. Bannwarth, F. Bohle, G. Brandenburg, E. Caldeweyher
   M. Checinski, S. Dohm, S. Ehlert, S. Ehrlich, I. Gerasimov, C. Hölzer
   A. Katbashev, J. Koopman, C. Lavigne, S. Lehtola, F. März, M. Müller,
   F. Musil, H. Neugebauer, J. Pisarek, C. Plett, P. Pracht, F. Pultar,
   J. Seibert, P. Shushkov, S. Spicher, M. Stahn, M. Steiner, T. Strunk,
   J. Stückrath, T. Rose, and J. Unsleber
   
 * started run on 2024/11/12 at 09:12:17.928     

           -------------------------------------------------
          |                Calculation Setup                |
           -------------------------------------------------

          program call               : xtb opt_radical_Katherine3.mol --gfn2 --sp --chrg 1 --uhf 0
          coordinate file            : opt_radical_Katherine3.mol
          omp threads                :                     8

   ID    Z sym.   atoms
    1    6 C      1-21, 26-38, 75
    2    8 O      22-25
    3    1 H      39-74, 76-78

           -------------------------------------------------
          |                 G F N 2 - x T B                 |
           -------------------------------------------------

        Reference                      10.1021/acs.jctc.8b01176
      * Hamiltonian:
        H0-scaling (s, p, d)           1.850000    2.230000    2.230000
        zeta-weighting                 0.500000
      * Dispersion:
        s8                             2.700000
        a1                             0.520000
        a2                             5.000000
        s9                             5.000000
      * Repulsion:
        kExp                           1.500000    1.000000
        rExp                           1.000000
      * Coulomb:
        alpha                          2.000000
        third order                    shell-resolved
        anisotropic                    true
        a3                             3.000000
        a5                             4.000000
        cn-shift                       1.200000
        cn-exp                         4.000000
        max-rad                        5.000000

q/qsh data taken from xtbrestart
CAMM data taken from xtbrestart

          ...................................................
          :                      SETUP                      :
          :.................................................:
          :  # basis functions                 195          :
          :  # atomic orbitals                 195          :
          :  # shells                          117          :
          :  # electrons                       202          :
          :  max. iterations                   250          :
          :  Hamiltonian                  GFN2-xTB          :
          :  restarted?                       true          :
          :  GBSA solvation                  false          :
          :  PC potential                    false          :
          :  electronic temp.          300.0000000     K    :
          :  accuracy                    1.0000000          :
          :  -> integral cutoff          0.2500000E+02      :
          :  -> integral neglect         0.1000000E-07      :
          :  -> SCF convergence          0.1000000E-05 Eh   :
          :  -> wf. convergence          0.1000000E-03 e    :
          :  Broyden damping             0.4000000          :
          ...................................................

 iter      E             dE          RMSdq      gap      omega  full diag
   1   -112.4052267 -0.112405E+03  0.590E-01    0.96       0.0  T
   2   -112.4165282 -0.113016E-01  0.501E-01    0.70       1.0  T
   3   -112.4314312 -0.149029E-01  0.278E-01    0.84       1.0  T
   4   -112.4323460 -0.914856E-03  0.178E-01    0.88       1.0  T
   5   -112.4331534 -0.807340E-03  0.679E-02    0.86       1.0  T
   6   -112.4333368 -0.183418E-03  0.238E-02    0.87       1.0  T
   7   -112.4333596 -0.228067E-04  0.860E-03    0.87       1.3  T
   8   -112.4333605 -0.896495E-06  0.485E-03    0.87       2.3  T
   9   -112.4333617 -0.123544E-05  0.133E-03    0.87       8.5  T
  10   -112.4333618 -0.451266E-07  0.643E-04    0.87      17.6  T
  11   -112.4333618 -0.153154E-07  0.328E-04    0.87      34.5  T

   *** convergence criteria satisfied after 11 iterations ***

         #    Occupation            Energy/Eh            Energy/eV
      -------------------------------------------------------------
         1        2.0000           -0.8493010             -23.1107
       ...           ...                  ...                  ...
        95        2.0000           -0.5204865             -14.1632
        96        2.0000           -0.5191290             -14.1262
        97        2.0000           -0.5150743             -14.0159
        98        2.0000           -0.5116166             -13.9218
        99        2.0000           -0.5069310             -13.7943
       100        2.0000           -0.5014530             -13.6452
       101        2.0000           -0.5000645             -13.6074 (HOMO)
       102        0.0000           -0.4681038             -12.7378 (LUMO)
       103                         -0.4111651             -11.1884
       104                         -0.3784145             -10.2972
       105                         -0.3586487              -9.7593
       106                         -0.3559341              -9.6855
       ...                                ...                  ...
       195                          0.6093580              16.5815
      -------------------------------------------------------------
                  HL-Gap            0.0319607 Eh            0.8697 eV
             Fermi-level           -0.4839848 Eh          -13.1699 eV

 SCC (total)                   0 d,  0 h,  0 min,  0.303 sec
 SCC setup                      ...        0 min,  0.000 sec (  0.063%)
 Dispersion                     ...        0 min,  0.001 sec (  0.200%)
 classical contributions        ...        0 min,  0.000 sec (  0.053%)
 integral evaluation            ...        0 min,  0.003 sec (  1.030%)
 iterations                     ...        0 min,  0.282 sec ( 93.101%)
 molecular gradient             ...        0 min,  0.016 sec (  5.340%)
 printout                       ...        0 min,  0.001 sec (  0.209%)

         :::::::::::::::::::::::::::::::::::::::::::::::::::::
         ::                     SUMMARY                     ::
         :::::::::::::::::::::::::::::::::::::::::::::::::::::
         :: total energy            -110.754377154668 Eh    ::
         :: gradient norm              0.059061831835 Eh/a0 ::
         :: HOMO-LUMO gap              0.869693856749 eV    ::
         ::.................................................::
         :: SCC energy              -112.433361768004 Eh    ::
         :: -> isotropic ES            0.128931322606 Eh    ::
         :: -> anisotropic ES         -0.002488885608 Eh    ::
         :: -> anisotropic XC          0.045871918239 Eh    ::
         :: -> dispersion             -0.095203423424 Eh    ::
         :: repulsion energy           1.678096554622 Eh    ::
         :: add. restraining           0.000000000000 Eh    ::
         :: total charge               1.000011221883 e     ::
         :::::::::::::::::::::::::::::::::::::::::::::::::::::

           -------------------------------------------------
          |                Property Printout                |
           -------------------------------------------------

    * Orbital Energies and Occupations

         #    Occupation            Energy/Eh            Energy/eV
      -------------------------------------------------------------
         1        2.0000           -0.8493010             -23.1107
       ...           ...                  ...                  ...
        89        2.0000           -0.5311361             -14.4529
        90        2.0000           -0.5304662             -14.4347
        91        2.0000           -0.5267207             -14.3328
        92        2.0000           -0.5244868             -14.2720
        93        2.0000           -0.5228257             -14.2268
        94        2.0000           -0.5225644             -14.2197
        95        2.0000           -0.5204865             -14.1632
        96        2.0000           -0.5191290             -14.1262
        97        2.0000           -0.5150743             -14.0159
        98        2.0000           -0.5116166             -13.9218
        99        2.0000           -0.5069310             -13.7943
       100        2.0000           -0.5014530             -13.6452
       101        2.0000           -0.5000645             -13.6074 (HOMO)
       102        0.0000           -0.4681038             -12.7378 (LUMO)
       103                         -0.4111651             -11.1884
       104                         -0.3784145             -10.2972
       105                         -0.3586487              -9.7593
       106                         -0.3559341              -9.6855
       107                         -0.3420693              -9.3082
       108                         -0.3144354              -8.5562
       109                         -0.3041233              -8.2756
       110                         -0.2816465              -7.6640
       111                         -0.2256756              -6.1409
       112                         -0.2148938              -5.8476
       ...                                ...                  ...
       195                          0.6093580              16.5815
      -------------------------------------------------------------
                  HL-Gap            0.0319607 Eh            0.8697 eV
             Fermi-level           -0.4839848 Eh          -13.1699 eV

     #   Z          covCN         q      C6AA      α(0)
     1   6 C        2.923    -0.063    29.572     8.918
     2   6 C        2.862     0.167    24.393     8.096
     3   6 C        2.978    -0.000    28.029     8.684
     4   6 C        2.980    -0.006    28.164     8.705
     5   6 C        2.928    -0.026    28.659     8.779
     6   6 C        2.971     0.042    27.052     8.532
     7   6 C        2.975     0.065    26.539     8.450
     8   6 C        2.992     0.008    27.820     8.652
     9   6 C        2.977    -0.003    28.086     8.693
    10   6 C        2.834     0.227    23.237     7.899
    11   6 C        2.977    -0.000    28.028     8.684
    12   6 C        2.980    -0.006    28.164     8.705
    13   6 C        2.835     0.227    23.232     7.899
    14   6 C        2.976    -0.004    28.112     8.697
    15   6 C        2.930    -0.011    28.293     8.723
    16   6 C        2.970     0.042    27.049     8.531
    17   6 C        2.928    -0.016    28.400     8.740
    18   6 C        2.861     0.167    24.406     8.098
    19   6 C        2.923    -0.063    29.570     8.917
    20   6 C        2.971     0.042    27.052     8.531
    21   6 C        2.928    -0.026    28.661     8.780
    22   8 O        1.705    -0.239    17.953     5.721
    23   8 O        1.705    -0.237    17.933     5.717
    24   8 O        0.858    -0.333    20.391     6.054
    25   8 O        0.858    -0.335    20.425     6.059
    26   6 C        3.643     0.029    20.434     6.499
    27   6 C        3.643     0.028    20.439     6.499
    28   6 C        3.903     0.029    20.025     6.361
    29   6 C        3.761    -0.120    22.854     6.815
    30   6 C        3.762    -0.112    22.678     6.789
    31   6 C        3.903     0.029    20.024     6.361
    32   6 C        3.762    -0.112    22.678     6.788
    33   6 C        3.761    -0.120    22.855     6.815
    34   6 C        3.761    -0.111    22.677     6.789
    35   6 C        3.903     0.030    20.021     6.360
    36   6 C        3.761    -0.120    22.841     6.813
    37   6 C        3.762    -0.113    22.708     6.793
    38   6 C        3.762    -0.113    22.709     6.793
    39   1 H        0.925     0.044     2.396     2.420
    40   1 H        0.925     0.048     2.341     2.393
    41   1 H        0.925     0.062     2.177     2.307
    42   1 H        0.925     0.058     2.227     2.334
    43   1 H        0.925     0.047     2.351     2.398
    44   1 H        0.925     0.046     2.368     2.406
    45   1 H        0.925     0.062     2.175     2.306
    46   1 H        0.925     0.047     2.352     2.398
    47   1 H        0.925     0.044     2.401     2.423
    48   1 H        0.926     0.092     1.864     2.135
    49   1 H        0.926     0.098     1.802     2.099
    50   1 H        0.926     0.100     1.785     2.089
    51   1 H        0.926     0.069     2.094     2.263
    52   1 H        0.925     0.057     2.232     2.336
    53   1 H        0.925     0.048     2.339     2.392
    54   1 H        0.925     0.048     2.342     2.393
    55   1 H        0.925     0.039     2.458     2.452
    56   1 H        0.925     0.061     2.185     2.312
    57   1 H        0.925     0.043     2.407     2.426
    58   1 H        0.925     0.078     1.998     2.210
    59   1 H        0.924     0.062     2.181     2.310
    60   1 H        0.924     0.055     2.256     2.349
    61   1 H        0.925     0.079     1.991     2.206
    62   1 H        0.924     0.062     2.180     2.309
    63   1 H        0.924     0.055     2.255     2.349
    64   1 H        0.926     0.069     2.094     2.263
    65   1 H        0.926     0.100     1.782     2.088
    66   1 H        0.925     0.062     2.179     2.308
    67   1 H        0.925     0.041     2.442     2.444
    68   1 H        0.925     0.045     2.381     2.413
    69   1 H        0.925     0.048     2.345     2.395
    70   1 H        0.925     0.057     2.231     2.336
    71   1 H        0.925     0.049     2.335     2.390
    72   1 H        0.925     0.061     2.184     2.311
    73   1 H        0.925     0.043     2.414     2.429
    74   1 H        0.925     0.039     2.459     2.452
    75   6 C        3.761    -0.111    22.677     6.788
    76   1 H        0.925     0.062     2.179     2.308
    77   1 H        0.925     0.040     2.442     2.444
    78   1 H        0.925     0.045     2.386     2.415

 Mol. C6AA /au·bohr⁶  :      62596.335898
 Mol. C8AA /au·bohr⁸  :    1487659.219792
 Mol. α(0) /au        :        387.540811


Wiberg/Mayer (AO) data.
largest (>0.10) Wiberg bond orders for each atom

 ---------------------------------------------------------------------------
     #   Z sym  total        # sym  WBO       # sym  WBO       # sym  WBO
 ---------------------------------------------------------------------------
     1   6 C    3.983 --     2 C    1.392     6 C    1.388    64 H    0.953
     2   6 C    3.914 --     1 C    1.392     3 C    1.216    23 O    1.115
     3   6 C    3.977 --     4 C    1.272     7 C    1.226     2 C    1.216
     4   6 C    3.976 --     5 C    1.430     3 C    1.272    10 C    1.032
     5   6 C    3.959 --     4 C    1.430     6 C    1.354    65 H    0.951
     6   6 C    3.943 --     1 C    1.388     5 C    1.354    31 C    0.995
     7   6 C    3.944 --     3 C    1.226    11 C    1.225     8 C    1.193
     8   6 C    3.987 --     9 C    1.285    14 C    1.276     7 C    1.193
     9   6 C    3.975 --    17 C    1.413     8 C    1.285    10 C    1.032
    10   6 C    3.939 --    24 O    1.779     9 C    1.032     4 C    1.032
    11   6 C    3.977 --    12 C    1.273     7 C    1.225    18 C    1.217
    12   6 C    3.976 --    21 C    1.430    11 C    1.273    13 C    1.032
    13   6 C    3.938 --    25 O    1.778    14 C    1.032    12 C    1.032
    14   6 C    3.976 --    15 C    1.427     8 C    1.276    13 C    1.032
    15   6 C    3.972 --    14 C    1.427    16 C    1.364    48 H    0.954
    16   6 C    3.937 --    17 C    1.378    15 C    1.364    35 C    0.996
    17   6 C    3.970 --     9 C    1.413    16 C    1.378    49 H    0.953
    18   6 C    3.921 --    19 C    1.393    11 C    1.217    22 O    1.114
    19   6 C    3.983 --    18 C    1.393    20 C    1.387    51 H    0.953
    20   6 C    3.938 --    19 C    1.387    21 C    1.355    28 C    0.995
    21   6 C    3.955 --    12 C    1.430    20 C    1.355    50 H    0.952
    22   8 O    2.294 --    18 C    1.114    26 C    0.974
    23   8 O    2.295 --     2 C    1.115    27 C    0.974
    24   8 O    2.050 --    10 C    1.779
    25   8 O    2.050 --    13 C    1.778
    26   6 C    3.928 --    58 H    0.976    22 O    0.974    59 H    0.972
                            60 H    0.971
    27   6 C    3.928 --    61 H    0.976    23 O    0.974    62 H    0.972
                            63 H    0.971
    28   6 C    3.983 --    29 C    1.000    20 C    0.995    30 C    0.976
                            75 C    0.973
    29   6 C    3.992 --    28 C    1.000    54 H    0.983    53 H    0.983
                            52 H    0.982
    30   6 C    3.985 --    57 H    0.986    55 H    0.983    56 H    0.980
                            28 C    0.976
    31   6 C    3.983 --    33 C    1.000     6 C    0.995    32 C    0.976
                            34 C    0.973
    32   6 C    3.985 --    73 H    0.986    74 H    0.983    72 H    0.980
                            31 C    0.976
    33   6 C    3.992 --    31 C    1.000    69 H    0.983    71 H    0.983
                            70 H    0.982
    34   6 C    3.984 --    68 H    0.986    67 H    0.983    66 H    0.980
Note: The following floating-point exceptions are signalling: IEEE_UNDERFLOW_FLAG
normal termination of xtb
                            31 C    0.973
    35   6 C    3.979 --    36 C    1.000    16 C    0.996    38 C    0.972
                            37 C    0.971
    36   6 C    3.992 --    35 C    1.000    44 H    0.983    43 H    0.983
                            42 H    0.982
    37   6 C    3.981 --    39 H    0.986    40 H    0.982    41 H    0.979
                            35 C    0.971
    38   6 C    3.982 --    47 H    0.986    46 H    0.982    45 H    0.979
                            35 C    0.972
    39   1 H    0.998 --    37 C    0.986
    40   1 H    0.998 --    37 C    0.982
    41   1 H    0.993 --    37 C    0.979
    42   1 H    0.996 --    36 C    0.982
    43   1 H    0.997 --    36 C    0.983
    44   1 H    0.997 --    36 C    0.983
    45   1 H    0.993 --    38 C    0.979
    46   1 H    0.998 --    38 C    0.982
    47   1 H    0.998 --    38 C    0.986
    48   1 H    0.991 --    15 C    0.954
    49   1 H    0.989 --    17 C    0.953
    50   1 H    0.989 --    21 C    0.952
    51   1 H    0.994 --    19 C    0.953
    52   1 H    0.996 --    29 C    0.982
    53   1 H    0.997 --    29 C    0.983
    54   1 H    0.997 --    29 C    0.983
    55   1 H    0.998 --    30 C    0.983
    56   1 H    0.994 --    30 C    0.980
    57   1 H    0.998 --    30 C    0.986
    58   1 H    0.993 --    26 C    0.976
    59   1 H    0.994 --    26 C    0.972
    60   1 H    0.995 --    26 C    0.971
    61   1 H    0.993 --    27 C    0.976
    62   1 H    0.994 --    27 C    0.972
    63   1 H    0.994 --    27 C    0.971
    64   1 H    0.994 --     1 C    0.953
    65   1 H    0.989 --     5 C    0.951
    66   1 H    0.994 --    34 C    0.980
    67   1 H    0.998 --    34 C    0.983
    68   1 H    0.998 --    34 C    0.986
    69   1 H    0.997 --    33 C    0.983
    70   1 H    0.996 --    33 C    0.982
    71   1 H    0.997 --    33 C    0.983
    72   1 H    0.994 --    32 C    0.980
    73   1 H    0.998 --    32 C    0.986
    74   1 H    0.998 --    32 C    0.983
    75   6 C    3.984 --    78 H    0.986    77 H    0.983    76 H    0.980
                            28 C    0.973
    76   1 H    0.994 --    75 C    0.980
    77   1 H    0.998 --    75 C    0.983
    78   1 H    0.998 --    75 C    0.986
 ---------------------------------------------------------------------------

Topologies differ in bond orders
Writing corrected topology to xtbtopo.mol

molecular dipole:
                 x           y           z       tot (Debye)
 q only:       -2.665      -1.528      -0.349
   full:       -3.072      -1.311      -0.287       8.521
molecular quadrupole (traceless):
                xx          xy          yy          xz          yz          zz
 q only:       31.209      -6.068      15.121     -13.932      -4.361     -46.330
  q+dip:       34.066      -6.776      13.671     -15.093      -6.092     -47.737
   full:       30.419      -7.727       9.387     -14.740      -8.820     -39.807


           -------------------------------------------------
          | TOTAL ENERGY             -110.754377154668 Eh   |
          | GRADIENT NORM               0.059061831835 Eh/α |
          | HOMO-LUMO GAP               0.869693856749 eV   |
           -------------------------------------------------
########################################################################
[WARNING] Runtime exception occurred
-2- restart_readRestart: Multiplicity missmatch in restart file.
-1- restart_readRestart: Number of electron missmatch in restart file.
########################################################################

------------------------------------------------------------------------
 * finished run on 2024/11/12 at 09:12:18.240     
------------------------------------------------------------------------
 total:
 * wall-time:     0 d,  0 h,  0 min,  0.312 sec
 *  cpu-time:     0 d,  0 h,  0 min,  1.084 sec
 * ratio c/w:     3.476 speedup
 SCF:
 * wall-time:     0 d,  0 h,  0 min,  0.303 sec
 *  cpu-time:     0 d,  0 h,  0 min,  1.069 sec
 * ratio c/w:     3.525 speedup

