      -----------------------------------------------------------      
     |                   =====================                   |     
     |                           x T B                           |     
     |                   =====================                   |     
     |                         S. Grimme                         |     
     |          Mulliken Center for Theoretical Chemistry        |     
     |                    University of Bonn                     |     
      -----------------------------------------------------------      

   * xtb version 6.6.1 (8d0f1dd) compiled by 'runner@Mac-1690902418499.local' on 2023-08-01

   xtb is free software: you can redistribute it and/or modify it under
   the terms of the GNU Lesser General Public License as published by
   the Free Software Foundation, either version 3 of the License, or
   (at your option) any later version.
   
   xtb is distributed in the hope that it will be useful,
   but WITHOUT ANY WARRANTY; without even the implied warranty of
   MERCHANTABILITY or FITNESS FOR A PARTICULAR PURPOSE.  See the
   GNU Lesser General Public License for more details.
   
   Cite this work as:
   * C. Bannwarth, E. Caldeweyher, S. Ehlert, A. Hansen, P. Pracht,
     J. Seibert, S. Spicher, S. Grimme, WIREs Comput. Mol. Sci., 2020, 11,
     e01493. DOI: 10.1002/wcms.1493
   
   for GFN2-xTB:
   * C. Bannwarth, S. Ehlert and S. Grimme., J. Chem. Theory Comput., 2019,
     15, 1652-1671. DOI: 10.1021/acs.jctc.8b01176
   for GFN1-xTB:
   * S. Grimme, C. Bannwarth, P. Shushkov, J. Chem. Theory Comput., 2017,
     13, 1989-2009. DOI: 10.1021/acs.jctc.7b00118
   for GFN0-xTB:
   * P. Pracht, E. Caldeweyher, S. Ehlert, S. Grimme, ChemRxiv, 2019, preprint.
     DOI: 10.26434/chemrxiv.8326202.v1
   for GFN-FF:
   * S. Spicher and S. Grimme, Angew. Chem. Int. Ed., 2020, 59, 15665-15673.
     DOI: 10.1002/anie.202004239
   
   for ALPB and GBSA implicit solvation:
   * S. Ehlert, M. Stahn, S. Spicher, S. Grimme, J. Chem. Theory Comput.,
     2021, 17, 4250-4261. DOI: 10.1021/acs.jctc.1c00471
   
   for DFT-D4:
   * E. Caldeweyher, C. Bannwarth and S. Grimme, J. Chem. Phys., 2017,
     147, 034112. DOI: 10.1063/1.4993215
   * E. Caldeweyher, S. Ehlert, A. Hansen, H. Neugebauer, S. Spicher,
     C. Bannwarth and S. Grimme, J. Chem. Phys., 2019, 150, 154122.
     DOI: 10.1063/1.5090222
   * E. Caldeweyher, J.-M. Mewes, S. Ehlert and S. Grimme, Phys. Chem. Chem. Phys.
     2020, 22, 8499-8512. DOI: 10.1039/D0CP00502A
   
   for sTDA-xTB:
   * S. Grimme and C. Bannwarth, J. Chem. Phys., 2016, 145, 054103.
     DOI: 10.1063/1.4959605
   
   in the mass-spec context:
   * V. Asgeirsson, C. Bauer and S. Grimme, Chem. Sci., 2017, 8, 4879.
     DOI: 10.1039/c7sc00601b
   * J. Koopman and S. Grimme, ACS Omega 2019, 4, 12, 15120-15133.
     DOI: 10.1021/acsomega.9b02011
   
   for metadynamics refer to:
   * S. Grimme, J. Chem. Theory Comput., 2019, 155, 2847-2862
     DOI: 10.1021/acs.jctc.9b00143
   
   for SPH calculations refer to:
   * S. Spicher and S. Grimme, J. Chem. Theory Comput., 2021, 17, 1701-1714
     DOI: 10.1021/acs.jctc.0c01306
   
   with help from (in alphabetical order)
   P. Atkinson, C. Bannwarth, F. Bohle, G. Brandenburg, E. Caldeweyher
   M. Checinski, S. Dohm, S. Ehlert, S. Ehrlich, I. Gerasimov, C. Hölzer
   A. Katbashev, J. Koopman, C. Lavigne, S. Lehtola, F. März, M. Müller,
   F. Musil, H. Neugebauer, J. Pisarek, C. Plett, P. Pracht, F. Pultar,
   J. Seibert, P. Shushkov, S. Spicher, M. Stahn, M. Steiner, T. Strunk,
   J. Stückrath, T. Rose, and J. Unsleber
   
 * started run on 2024/11/01 at 09:47:27.446     

           -------------------------------------------------
          |                Calculation Setup                |
           -------------------------------------------------

          program call               : xtb Katherine3.mol --opt --gfn2 --chrg 1 --uhf 0 --tight
          coordinate file            : Katherine3.mol
          omp threads                :                     8

   ID    Z sym.   atoms
    1    6 C      1-21, 24-26, 31, 34, 37-39
    2    8 O      22, 23, 27-30, 32, 33, 35, 36
    3    1 H      40-60
########################################################################
[WARNING] Please study the warnings concerning your input carefully
-1- prog_main_parseArguments: Unknown option '--tight' provided
########################################################################

           -------------------------------------------------
          |                 G F N 2 - x T B                 |
           -------------------------------------------------

        Reference                      10.1021/acs.jctc.8b01176
      * Hamiltonian:
        H0-scaling (s, p, d)           1.850000    2.230000    2.230000
        zeta-weighting                 0.500000
      * Dispersion:
        s8                             2.700000
        a1                             0.520000
        a2                             5.000000
        s9                             5.000000
      * Repulsion:
        kExp                           1.500000    1.000000
        rExp                           1.000000
      * Coulomb:
        alpha                          2.000000
        third order                    shell-resolved
        anisotropic                    true
        a3                             3.000000
        a5                             4.000000
        cn-shift                       1.200000
        cn-exp                         4.000000
        max-rad                        5.000000

q/qsh data taken from xtbrestart
CAMM data taken from xtbrestart

          ...................................................
          :                      SETUP                      :
          :.................................................:
          :  # basis functions                 177          :
          :  # atomic orbitals                 177          :
          :  # shells                           99          :
          :  # electrons                       196          :
          :  max. iterations                   250          :
          :  Hamiltonian                  GFN2-xTB          :
          :  restarted?                       true          :
          :  GBSA solvation                  false          :
          :  PC potential                    false          :
          :  electronic temp.          300.0000000     K    :
          :  accuracy                    1.0000000          :
          :  -> integral cutoff          0.2500000E+02      :
          :  -> integral neglect         0.1000000E-07      :
          :  -> SCF convergence          0.1000000E-05 Eh   :
          :  -> wf. convergence          0.1000000E-03 e    :
          :  Broyden damping             0.4000000          :
          ...................................................

 iter      E             dE          RMSdq      gap      omega  full diag
   1   -112.2133379 -0.112213E+03  0.396E+00    0.37       0.0  T
   2   -111.4101786  0.803159E+00  0.399E+00    0.32       1.0  T
   3   -112.3375429 -0.927364E+00  0.277E+00    0.41       1.0  T
   4   -112.1716702  0.165873E+00  0.214E+00    0.35       1.0  T
   5   -112.3359046 -0.164234E+00  0.175E+00    0.56       1.0  T
   6   -112.5877164 -0.251812E+00  0.780E-01    0.10       1.0  T
   7   -112.5838402  0.387620E-02  0.757E-01    0.31       1.0  T
   8   -112.6068294 -0.229892E-01  0.514E-01    0.20       1.0  T
   9   -112.5448304  0.619990E-01  0.740E-01    0.02       1.0  T
  10   -112.6064089 -0.615785E-01  0.371E-01    0.14       1.0  T
  11   -112.6162306 -0.982176E-02  0.300E-01    0.15       1.0  T
  12   -112.6179309 -0.170027E-02  0.183E-01    0.15       1.0  T
  13   -112.6214021 -0.347118E-02  0.120E-01    0.15       1.0  T
  14   -112.6226790 -0.127693E-02  0.501E-02    0.12       1.0  T
  15   -112.6218833  0.795727E-03  0.884E-02    0.13       1.0  T
  16   -112.6228769 -0.993637E-03  0.195E-02    0.13       1.0  T
  17   -112.6228896 -0.126635E-04  0.178E-02    0.13       1.0  T
  18   -112.6229161 -0.265184E-04  0.900E-03    0.13       1.4  T
  19   -112.6229245 -0.845306E-05  0.379E-03    0.13       3.4  T
  20   -112.6229259 -0.140151E-05  0.229E-03    0.13       5.6  T
  21   -112.6229264 -0.440964E-06  0.573E-04    0.13      22.5  T
  22   -112.6229264 -0.233018E-07  0.359E-04    0.13      36.0  T

   *** convergence criteria satisfied after 22 iterations ***

         #    Occupation            Energy/Eh            Energy/eV
      -------------------------------------------------------------
         1        2.0000           -0.9394040             -25.5625
       ...           ...                  ...                  ...
        92        2.0000           -0.5140357             -13.9876
        93        2.0000           -0.5123887             -13.9428
        94        2.0000           -0.5113475             -13.9145
        95        2.0000           -0.5052735             -13.7492
        96        1.9969           -0.4965529             -13.5119
        97        1.9172           -0.4934079             -13.4263
        98        1.8803           -0.4930401             -13.4163 (HOMO)
        99        0.2057           -0.4883652             -13.2891 (LUMO)
       100                         -0.4497338             -12.2379
       101                         -0.4335657             -11.7979
       102                         -0.4273472             -11.6287
       103                         -0.4223461             -11.4926
       ...                                ...                  ...
       177                          2.6599538              72.3810
      -------------------------------------------------------------
                  HL-Gap            0.0046749 Eh            0.1272 eV
             Fermi-level           -0.4904232 Eh          -13.3451 eV

 SCC (total)                   0 d,  0 h,  0 min,  0.600 sec
 SCC setup                      ...        0 min,  0.000 sec (  0.024%)
 Dispersion                     ...        0 min,  0.000 sec (  0.067%)
 classical contributions        ...        0 min,  0.000 sec (  0.018%)
 integral evaluation            ...        0 min,  0.002 sec (  0.364%)
 iterations                     ...        0 min,  0.587 sec ( 97.797%)
 molecular gradient             ...        0 min,  0.009 sec (  1.507%)
 printout                       ...        0 min,  0.001 sec (  0.220%)

         :::::::::::::::::::::::::::::::::::::::::::::::::::::
         ::                     SUMMARY                     ::
         :::::::::::::::::::::::::::::::::::::::::::::::::::::
         :: total energy            -110.034980137470 Eh    ::
         :: gradient norm              3.537752943746 Eh/a0 ::
         :: HOMO-LUMO gap              0.127209296980 eV    ::
         ::.................................................::
         :: SCC energy              -112.622926408195 Eh    ::
         :: -> isotropic ES            0.279352038521 Eh    ::
         :: -> anisotropic ES          0.034181330980 Eh    ::
         :: -> anisotropic XC          0.023062569865 Eh    ::
         :: -> dispersion             -0.069502228220 Eh    ::
         :: repulsion energy           2.587589274171 Eh    ::
         :: add. restraining           0.000000000000 Eh    ::
         :: total charge               0.999999877486 e     ::
         :::::::::::::::::::::::::::::::::::::::::::::::::::::

      ----------------------------------------------------------- 
     |                   =====================                   |
     |                        A N C O P T                        |
     |                   =====================                   |
     |               Approximate Normal Coordinate               |
     |                Rational Function Optimizer                |
      ----------------------------------------------------------- 

          ...................................................
          :                      SETUP                      :
          :.................................................:
          :   optimization level            normal          :
          :   max. optcycles                   200          :
          :   ANC micro-cycles                  20          :
          :   degrees of freedom               174          :
          :.................................................:
          :   RF solver                   davidson          :
          :   write xtbopt.log                true          :
          :   linear?                        false          :
          :   energy convergence         0.5000000E-05 Eh   :
          :   grad. convergence          0.1000000E-02 Eh/α :
          :   maxmium RF displ.          1.0000000          :
          :   Hlow (freq-cutoff)         0.1000000E-01      :
          :   Hmax (freq-cutoff)         5.0000000          :
          :   S6 in model hess.         20.0000000          :
          ...................................................

generating ANC from model Hessian ...
Using Lindh-Hessian (1995)
 Shifting diagonal of input Hessian by    1.0023503897637110E-002
 Lowest  eigenvalues of input Hessian
    0.010000    0.000000    0.000000    0.000000    0.000000    0.000000
    0.000000    0.010033    0.010075    0.010315    0.010409    0.010620
    0.010740    0.010844    0.010868    0.011374    0.011498    0.012083
 Highest eigenvalues
    3.131463    3.252157    4.186147    4.663619    4.898864    5.379259


........................................................................
.............................. CYCLE    1 ..............................
........................................................................

 iter      E             dE          RMSdq      gap      omega  full diag
   1   -112.6229264 -0.112623E+03  0.350E-04    0.13       0.0  T
   2   -112.6229244  0.198126E-05  0.375E-03    0.13       3.4  T
   3   -112.6229264 -0.198053E-05  0.355E-04    0.13      36.3  T
   4   -112.6229264 -0.154767E-07  0.104E-04    0.13     124.5  T
   5   -112.6229264 -0.657892E-09  0.571E-05    0.13     226.2  T
     SCC iter.                  ...        0 min,  0.078 sec
     gradient                   ...        0 min,  0.009 sec
 * total energy  :  -110.0349802 Eh     change       -0.1886067E-07 Eh
   gradient norm :     3.5377626 Eh/α   predicted     0.0000000E+00 (-100.00%)
   displ. norm   :     0.7367797 α      lambda       -0.2489297E+01
   maximum displ.:     0.2618684 α      in ANC's #158, #154, #172, ...

........................................................................
.............................. CYCLE    2 ..............................
........................................................................

 iter      E             dE          RMSdq      gap      omega  full diag
   1   -112.8110185 -0.112811E+03  0.792E-01    0.17       0.0  T
   2   -112.5118849  0.299134E+00  0.183E+00    0.42       1.0  T
   3   -112.8204531 -0.308568E+00  0.508E-01    0.09       1.0  T
   4   -112.8290576 -0.860446E-02  0.434E-01    0.24       1.0  T
   5   -112.8363767 -0.731912E-02  0.267E-01    0.20       1.0  T
   6   -112.8377441 -0.136743E-02  0.171E-01    0.20       1.0  T
   7   -112.6267125  0.211032E+00  0.127E+00    0.01       1.0  T
   8   -112.8402068 -0.213494E+00  0.868E-02    0.18       1.0  T
   9   -112.8403383 -0.131497E-03  0.646E-02    0.18       1.0  T
  10   -112.8397212  0.617130E-03  0.896E-02    0.18       1.0  T
  11   -112.8400875 -0.366337E-03  0.775E-02    0.18       1.0  T
  12   -112.8402352 -0.147651E-03  0.667E-02    0.18       1.0  T
  13   -112.8403621 -0.126870E-03  0.579E-02    0.18       1.0  T
  14   -112.8404867 -0.124687E-03  0.483E-02    0.18       1.0  T
  15   -112.8406038 -0.117069E-03  0.364E-02    0.17       1.0  T
  16   -112.8406831 -0.793188E-04  0.262E-02    0.17       1.0  T
  17   -112.8407394 -0.563056E-04  0.152E-02    0.16       1.0  T
  18   -112.8407602 -0.208045E-04  0.775E-03    0.16       1.7  T
  19   -112.8407661 -0.583791E-05  0.355E-03    0.16       3.6  T
  20   -112.8407676 -0.148469E-05  0.816E-04    0.16      15.8  T
  21   -112.8407676 -0.777398E-07  0.106E-04    0.16     121.4  T
  22   -112.8407676  0.594724E-10  0.970E-05    0.16     133.1  T
     SCC iter.                  ...        0 min,  0.520 sec
     gradient                   ...        0 min,  0.010 sec
 * total energy  :  -111.4295061 Eh     change       -0.1394526E+01 Eh
   gradient norm :     1.1915714 Eh/α   predicted    -0.1920309E+01 (  37.70%)
   displ. norm   :     0.6638184 α      lambda       -0.7142916E+00
   maximum displ.:     0.1847066 α      in ANC's #135, #154, #117, ...

........................................................................
.............................. CYCLE    3 ..............................
........................................................................

 iter      E             dE          RMSdq      gap      omega  full diag
   1   -113.1655868 -0.113166E+03  0.707E-01    0.28       0.0  T
   2   -112.9725644  0.193022E+00  0.152E+00    0.25       1.0  T
   3   -113.1801829 -0.207619E+00  0.458E-01    0.34       1.0  T
   4   -113.1908374 -0.106545E-01  0.235E-01    0.18       1.0  T
   5   -113.1913806 -0.543247E-03  0.167E-01    0.25       1.0  T
   6   -113.1920673 -0.686659E-03  0.893E-02    0.22       1.0  T
   7   -113.1922837 -0.216424E-03  0.590E-02    0.23       1.0  T
   8   -113.1925956 -0.311825E-03  0.289E-02    0.20       1.0  T
   9   -113.1926783 -0.827264E-04  0.154E-02    0.23       1.0  T
  10   -113.1926866 -0.828329E-05  0.993E-03    0.23       1.3  T
  11   -113.1926945 -0.796333E-05  0.449E-03    0.23       2.9  T
  12   -113.1926946 -0.890538E-07  0.303E-03    0.23       4.3  T
  13   -113.1926953 -0.694324E-06  0.116E-03    0.23      11.1  T
  14   -113.1926954 -0.115607E-06  0.445E-04    0.23      29.0  T
  15   -113.1926954 -0.673734E-08  0.223E-04    0.23      57.9  T
     SCC iter.                  ...        0 min,  0.380 sec
     gradient                   ...        0 min,  0.013 sec
 * total energy  :  -112.0052882 Eh     change       -0.5757821E+00 Eh
   gradient norm :     0.7231971 Eh/α   predicted    -0.5145259E+00 ( -10.64%)
   displ. norm   :     0.7109079 α      lambda       -0.4728192E+00
   maximum displ.:     0.1802008 α      in ANC's #154, #135, #143, ...

........................................................................
.............................. CYCLE    4 ..............................
........................................................................

 iter      E             dE          RMSdq      gap      omega  full diag
   1   -113.5173840 -0.113517E+03  0.675E-01    0.32       0.0  T
   2   -113.5168307  0.553247E-03  0.582E-01    0.26       1.0  T
   3   -113.5248326 -0.800183E-02  0.432E-01    0.49       1.0  T
   4   -113.5365809 -0.117484E-01  0.190E-01    0.29       1.0  T
   5   -113.5362315  0.349463E-03  0.120E-01    0.30       1.0  T
   6   -113.5372004 -0.968972E-03  0.407E-02    0.29       1.0  T
   7   -113.5373109 -0.110484E-03  0.195E-02    0.30       1.0  T
   8   -113.5373310 -0.200872E-04  0.818E-03    0.30       1.6  T
   9   -113.5373326 -0.160503E-05  0.497E-03    0.30       2.6  T
  10   -113.5373338 -0.117838E-05  0.184E-03    0.30       7.0  T
  11   -113.5373338 -0.422896E-07  0.112E-03    0.30      11.6  T
  12   -113.5373339 -0.433358E-07  0.498E-04    0.30      25.9  T
  13   -113.5373339 -0.815179E-08  0.243E-04    0.30      53.1  T
     SCC iter.                  ...        0 min,  0.534 sec
     gradient                   ...        0 min,  0.009 sec
 * total energy  :  -112.3631980 Eh     change       -0.3579098E+00 Eh
   gradient norm :     0.3895709 Eh/α   predicted    -0.3558890E+00 (  -0.56%)
   displ. norm   :     0.7260868 α      lambda       -0.2521296E+00
   maximum displ.:     0.1693812 α      in ANC's #63, #31, #71, ...

........................................................................
.............................. CYCLE    5 ..............................
........................................................................

 iter      E             dE          RMSdq      gap      omega  full diag
   1   -113.7244273 -0.113724E+03  0.518E-01    0.45       0.0  T
   2   -113.7248765 -0.449200E-03  0.340E-01    0.35       1.0  T
   3   -113.7224370  0.243954E-02  0.290E-01    0.43       1.0  T
   4   -113.7265703 -0.413338E-02  0.125E-01    0.31       1.0  T
   5   -113.7275739 -0.100355E-02  0.535E-02    0.37       1.0  T
   6   -113.7277842 -0.210271E-03  0.175E-02    0.35       1.0  T
   7   -113.7277973 -0.131273E-04  0.868E-03    0.35       1.5  T
   8   -113.7277981 -0.763074E-06  0.499E-03    0.35       2.6  T
   9   -113.7277994 -0.129900E-05  0.171E-03    0.35       7.6  T
  10   -113.7277994 -0.303275E-07  0.982E-04    0.35      13.1  T
  11   -113.7277994 -0.284808E-07  0.493E-04    0.35      26.2  T
     SCC iter.                  ...        0 min,  0.266 sec
     gradient                   ...        0 min,  0.010 sec
 * total energy  :  -112.5672983 Eh     change       -0.2041004E+00 Eh
   gradient norm :     0.2624612 Eh/α   predicted    -0.1925266E+00 (  -5.67%)
   displ. norm   :     0.7554111 α      lambda       -0.1696580E+00
   maximum displ.:     0.2336348 α      in ANC's #31, #30, #63, ...

........................................................................
.............................. CYCLE    6 ..............................
........................................................................

 iter      E             dE          RMSdq      gap      omega  full diag
   1   -113.8606262 -0.113861E+03  0.471E-01    0.43       0.0  T
   2   -113.8616363 -0.101019E-02  0.304E-01    0.43       1.0  T
   3   -113.8608939  0.742463E-03  0.241E-01    0.38       1.0  T
   4   -113.8632403 -0.234644E-02  0.865E-02    0.44       1.0  T
   5   -113.8635867 -0.346374E-03  0.492E-02    0.39       1.0  T
   6   -113.8637905 -0.203781E-03  0.153E-02    0.40       1.0  T
   7   -113.8638040 -0.134827E-04  0.762E-03    0.40       1.7  T
   8   -113.8638057 -0.177168E-05  0.342E-03    0.40       3.8  T
   9   -113.8638060 -0.294668E-06  0.150E-03    0.40       8.6  T
  10   -113.8638061 -0.993919E-07  0.682E-04    0.40      18.9  T
  11   -113.8638061 -0.535840E-08  0.419E-04    0.40      30.8  T
     SCC iter.                  ...        0 min,  0.235 sec
     gradient                   ...        0 min,  0.009 sec
 * total energy  :  -112.7061617 Eh     change       -0.1388634E+00 Eh
   gradient norm :     0.1889597 Eh/α   predicted    -0.1332365E+00 (  -4.05%)
   displ. norm   :     0.7815727 α      lambda       -0.1173345E+00
   maximum displ.:     0.3172638 α      in ANC's #31, #30, #63, ...

........................................................................
.............................. CYCLE    7 ..............................
........................................................................

 iter      E             dE          RMSdq      gap      omega  full diag
   1   -113.9857099 -0.113986E+03  0.418E-01    0.47       0.0  T
   2   -113.9854853  0.224664E-03  0.268E-01    0.47       1.0  T
   3   -113.9840408  0.144445E-02  0.254E-01    0.42       1.0  T
   4   -113.9870014 -0.296060E-02  0.915E-02    0.48       1.0  T
   5   -113.9877082 -0.706733E-03  0.315E-02    0.44       1.0  T
   6   -113.9877904 -0.822700E-04  0.105E-02    0.45       1.2  T
   7   -113.9877960 -0.561453E-05  0.526E-03    0.45       2.5  T
   8   -113.9877967 -0.686658E-06  0.244E-03    0.45       5.3  T
   9   -113.9877969 -0.182384E-06  0.863E-04    0.45      15.0  T
  10   -113.9877969 -0.288951E-07  0.404E-04    0.45      32.0  T
     SCC iter.                  ...        0 min,  0.301 sec
     gradient                   ...        0 min,  0.012 sec
 * total energy  :  -112.8037145 Eh     change       -0.9755278E-01 Eh
   gradient norm :     0.1495518 Eh/α   predicted    -0.9450474E-01 (  -3.12%)
   displ. norm   :     0.7897015 α      lambda       -0.8332448E-01
   maximum displ.:     0.3946121 α      in ANC's #31, #30, #28, ...

........................................................................
.............................. CYCLE    8 ..............................
........................................................................

 iter      E             dE          RMSdq      gap      omega  full diag
   1   -114.0965044 -0.114097E+03  0.362E-01    0.49       0.0  T
   2   -114.0965969 -0.925342E-04  0.233E-01    0.45       1.0  T
   3   -114.0953936  0.120332E-02  0.219E-01    0.44       1.0  T
   4   -114.0976838 -0.229018E-02  0.680E-02    0.47       1.0  T
   5   -114.0980605 -0.376715E-03  0.269E-02    0.44       1.0  T
   6   -114.0981327 -0.722436E-04  0.618E-03    0.45       2.1  T
   7   -114.0981344 -0.166648E-05  0.336E-03    0.45       3.8  T
   8   -114.0981347 -0.283921E-06  0.151E-03    0.45       8.6  T
   9   -114.0981348 -0.620594E-07  0.557E-04    0.45      23.2  T
  10   -114.0981348 -0.127263E-07  0.230E-04    0.45      56.2  T
     SCC iter.                  ...        0 min,  0.183 sec
     gradient                   ...        0 min,  0.009 sec
 * total energy  :  -112.8728999 Eh     change       -0.6918543E-01 Eh
   gradient norm :     0.1195973 Eh/α   predicted    -0.6764400E-01 (  -2.23%)
   displ. norm   :     0.7748645 α      lambda       -0.5814092E-01
   maximum displ.:     0.4180742 α      in ANC's #31, #30, #28, ...

........................................................................
.............................. CYCLE    9 ..............................
........................................................................

 iter      E             dE          RMSdq      gap      omega  full diag
   1   -114.1999139 -0.114200E+03  0.317E-01    0.46       0.0  T
   2   -114.2000709 -0.156966E-03  0.192E-01    0.41       1.0  T
   3   -114.1984666  0.160423E-02  0.178E-01    0.43       1.0  T
   4   -114.2002794 -0.181275E-02  0.523E-02    0.42       1.0  T
   5   -114.2005270 -0.247622E-03  0.123E-02    0.41       1.0  T
   6   -114.2005392 -0.121331E-04  0.532E-03    0.42       2.4  T
   7   -114.2005412 -0.206038E-05  0.248E-03    0.41       5.2  T
   8   -114.2005413 -0.135695E-06  0.104E-03    0.41      12.5  T
   9   -114.2005414 -0.248531E-07  0.449E-04    0.41      28.7  T
  10   -114.2005414 -0.747045E-08  0.203E-04    0.41      63.6  T
     SCC iter.                  ...        0 min,  0.169 sec
     gradient                   ...        0 min,  0.010 sec
 * total energy  :  -112.9205495 Eh     change       -0.4764961E-01 Eh
   gradient norm :     0.0973163 Eh/α   predicted    -0.4652481E-01 (  -2.36%)
   displ. norm   :     0.7390324 α      lambda       -0.3955315E-01
   maximum displ.:     0.4202006 α      in ANC's #31, #30, #28, ...

........................................................................
.............................. CYCLE   10 ..............................
........................................................................

 iter      E             dE          RMSdq      gap      omega  full diag
   1   -114.2885155 -0.114289E+03  0.312E-01    0.40       0.0  T
   2   -114.2886697 -0.154149E-03  0.188E-01    0.36       1.0  T
   3   -114.2877888  0.880922E-03  0.119E-01    0.38       1.0  T
   4   -114.2886542 -0.865438E-03  0.383E-02    0.36       1.0  T
   5   -114.2887934 -0.139217E-03  0.855E-03    0.36       1.5  T
   6   -114.2887980 -0.461427E-05  0.388E-03    0.36       3.3  T
   7   -114.2887988 -0.801248E-06  0.215E-03    0.36       6.0  T
   8   -114.2887990 -0.154507E-06  0.838E-04    0.36      15.4  T
   9   -114.2887990 -0.166498E-07  0.362E-04    0.36      35.7  T
     SCC iter.                  ...        0 min,  0.274 sec
     gradient                   ...        0 min,  0.010 sec
 * total energy  :  -112.9515572 Eh     change       -0.3100761E-01 Eh
   gradient norm :     0.0760310 Eh/α   predicted    -0.3057794E-01 (  -1.39%)
   displ. norm   :     0.7273219 α      lambda       -0.2773887E-01
   maximum displ.:     0.3186206 α      in ANC's #30, #31, #28, ...

........................................................................
.............................. CYCLE   11 ..............................
........................................................................

 iter      E             dE          RMSdq      gap      omega  full diag
   1   -114.3479137 -0.114348E+03  0.372E-01    0.35       0.0  T
   2   -114.3481157 -0.201989E-03  0.223E-01    0.34       1.0  T
   3   -114.3472719  0.843810E-03  0.112E-01    0.31       1.0  T
   4   -114.3480276 -0.755713E-03  0.421E-02    0.35       1.0  T
   5   -114.3482120 -0.184435E-03  0.881E-03    0.34       1.5  T
   6   -114.3482159 -0.383729E-05  0.376E-03    0.34       3.4  T
   7   -114.3482160 -0.136590E-06  0.214E-03    0.34       6.0  T
   8   -114.3482161 -0.104260E-06  0.818E-04    0.34      15.8  T
   9   -114.3482161 -0.411958E-07  0.325E-04    0.34      39.7  T
     SCC iter.                  ...        0 min,  0.167 sec
     gradient                   ...        0 min,  0.009 sec
 * total energy  :  -112.9666299 Eh     change       -0.1507277E-01 Eh
   gradient norm :     0.0711442 Eh/α   predicted    -0.2120641E-01 (  40.69%)
   displ. norm   :     0.6355220 α      lambda       -0.2465986E-01
   maximum displ.:     0.3060056 α      in ANC's #31, #44, #30, ...

........................................................................
.............................. CYCLE   12 ..............................
........................................................................

 iter      E             dE          RMSdq      gap      omega  full diag
   1   -114.3970877 -0.114397E+03  0.372E-01    0.32       0.0  T
   2   -114.3973612 -0.273441E-03  0.222E-01    0.30       1.0  T
   3   -114.3970908  0.270358E-03  0.755E-02    0.33       1.0  T
   4   -114.3973602 -0.269384E-03  0.234E-02    0.30       1.0  T
   5   -114.3974115 -0.512855E-04  0.926E-03    0.31       1.4  T
   6   -114.3974191 -0.765885E-05  0.364E-03    0.31       3.5  T
   7   -114.3974191  0.323345E-07  0.251E-03    0.31       5.1  T
   8   -114.3974194 -0.325928E-06  0.919E-04    0.31      14.0  T
   9   -114.3974195 -0.539773E-07  0.324E-04    0.31      39.8  T
     SCC iter.                  ...        0 min,  0.178 sec
     gradient                   ...        0 min,  0.010 sec
 * total energy  :  -112.9784550 Eh     change       -0.1182503E-01 Eh
   gradient norm :     0.0630078 Eh/α   predicted    -0.1730987E-01 (  46.38%)
   displ. norm   :     0.4754778 α      lambda       -0.1054632E-01
   maximum displ.:     0.1792542 α      in ANC's #27, #30, #9, ...

........................................................................
.............................. CYCLE   13 ..............................
........................................................................

 iter      E             dE          RMSdq      gap      omega  full diag
   1   -114.4051622 -0.114405E+03  0.226E-01    0.32       0.0  T
   2   -114.4052181 -0.558793E-04  0.135E-01    0.34       1.0  T
   3   -114.4049609  0.257192E-03  0.590E-02    0.31       1.0  T
   4   -114.4052147 -0.253804E-03  0.173E-02    0.34       1.0  T
   5   -114.4052426 -0.279147E-04  0.531E-03    0.33       2.4  T
   6   -114.4052443 -0.169649E-05  0.256E-03    0.33       5.0  T
   7   -114.4052444 -0.100906E-06  0.136E-03    0.33       9.5  T
   8   -114.4052445 -0.569162E-07  0.371E-04    0.33      34.8  T
   9   -114.4052445 -0.522189E-08  0.184E-04    0.33      70.2  T
     SCC iter.                  ...        0 min,  0.155 sec
     gradient                   ...        0 min,  0.010 sec
 * total energy  :  -112.9852837 Eh     change       -0.6828750E-02 Eh
   gradient norm :     0.0511769 Eh/α   predicted    -0.6465319E-02 (  -5.32%)
   displ. norm   :     0.5933629 α      lambda       -0.1216381E-01
   maximum displ.:     0.1595931 α      in ANC's #27, #23, #20, ...

........................................................................
.............................. CYCLE   14 ..............................
........................................................................

 iter      E             dE          RMSdq      gap      omega  full diag
   1   -114.4113174 -0.114411E+03  0.286E-01    0.34       0.0  T
   2   -114.4114521 -0.134694E-03  0.169E-01    0.36       1.0  T
   3   -114.4110705  0.381582E-03  0.757E-02    0.35       1.0  T
   4   -114.4114192 -0.348665E-03  0.281E-02    0.37       1.0  T
   5   -114.4114926 -0.733827E-04  0.708E-03    0.36       1.8  T
   6   -114.4114957 -0.317018E-05  0.281E-03    0.36       4.6  T
   7   -114.4114958 -0.508645E-07  0.149E-03    0.36       8.6  T
   8   -114.4114958 -0.474400E-07  0.597E-04    0.36      21.6  T
   9   -114.4114959 -0.266064E-07  0.256E-04    0.36      50.5  T
     SCC iter.                  ...        0 min,  0.135 sec
     gradient                   ...        0 min,  0.009 sec
 * total energy  :  -112.9925072 Eh     change       -0.7223533E-02 Eh
   gradient norm :     0.0633035 Eh/α   predicted    -0.8223235E-02 (  13.84%)
   displ. norm   :     0.5927226 α      lambda       -0.1210277E-01
   maximum displ.:     0.2044763 α      in ANC's #20, #16, #9, ...

........................................................................
.............................. CYCLE   15 ..............................
........................................................................

 iter      E             dE          RMSdq      gap      omega  full diag
   1   -114.4154242 -0.114415E+03  0.280E-01    0.38       0.0  T
   2   -114.4157614 -0.337137E-03  0.163E-01    0.38       1.0  T
   3   -114.4156392  0.122180E-03  0.636E-02    0.39       1.0  T
   4   -114.4156961 -0.569340E-04  0.324E-02    0.39       1.0  T
   5   -114.4157954 -0.992531E-04  0.859E-03    0.39       1.5  T
   6   -114.4158005 -0.509614E-05  0.340E-03    0.39       3.8  T
   7   -114.4158006 -0.105380E-06  0.200E-03    0.39       6.5  T
   8   -114.4158007 -0.155452E-06  0.625E-04    0.39      20.6  T
   9   -114.4158008 -0.187979E-07  0.235E-04    0.39      54.8  T
     SCC iter.                  ...        0 min,  0.169 sec
     gradient                   ...        0 min,  0.010 sec
 * total energy  :  -113.0005138 Eh     change       -0.8006602E-02 Eh
   gradient norm :     0.0526169 Eh/α   predicted    -0.8177363E-02 (   2.13%)
   displ. norm   :     0.6262468 α      lambda       -0.1068226E-01
   maximum displ.:     0.3023521 α      in ANC's #20, #11, #25, ...

........................................................................
.............................. CYCLE   16 ..............................
........................................................................

 iter      E             dE          RMSdq      gap      omega  full diag
   1   -114.4226369 -0.114423E+03  0.261E-01    0.42       0.0  T
   2   -114.4228337 -0.196773E-03  0.153E-01    0.43       1.0  T
   3   -114.4227462  0.874824E-04  0.512E-02    0.43       1.0  T
   4   -114.4228259 -0.796806E-04  0.191E-02    0.43       1.0  T
   5   -114.4228563 -0.304033E-04  0.640E-03    0.43       2.0  T
   6   -114.4228589 -0.259531E-05  0.305E-03    0.43       4.2  T
   7   -114.4228590 -0.153448E-06  0.169E-03    0.43       7.6  T
   8   -114.4228592 -0.137253E-06  0.491E-04    0.43      26.3  T
   9   -114.4228592 -0.101572E-07  0.213E-04    0.43      60.6  T
     SCC iter.                  ...        0 min,  0.195 sec
     gradient                   ...        0 min,  0.010 sec
 * total energy  :  -113.0073403 Eh     change       -0.6826443E-02 Eh
   gradient norm :     0.0586007 Eh/α   predicted    -0.7435851E-02 (   8.93%)
   displ. norm   :     0.6439139 α      lambda       -0.1279323E-01
   maximum displ.:     0.3474215 α      in ANC's #20, #11, #25, ...

........................................................................
.............................. CYCLE   17 ..............................
........................................................................

 iter      E             dE          RMSdq      gap      omega  full diag
   1   -114.4368261 -0.114437E+03  0.304E-01    0.48       0.0  T
   2   -114.4370884 -0.262278E-03  0.179E-01    0.45       1.0  T
   3   -114.4368120  0.276394E-03  0.808E-02    0.46       1.0  T
   4   -114.4371063 -0.294373E-03  0.248E-02    0.45       1.0  T
   5   -114.4371543 -0.479598E-04  0.863E-03    0.46       1.5  T
   6   -114.4371598 -0.548921E-05  0.373E-03    0.46       3.5  T
   7   -114.4371601 -0.314222E-06  0.201E-03    0.46       6.4  T
   8   -114.4371602 -0.111286E-06  0.539E-04    0.46      23.9  T
   9   -114.4371602 -0.965066E-08  0.243E-04    0.46      53.0  T
     SCC iter.                  ...        0 min,  0.152 sec
     gradient                   ...        0 min,  0.010 sec
 * total energy  :  -113.0135633 Eh     change       -0.6223039E-02 Eh
   gradient norm :     0.0620614 Eh/α   predicted    -0.9048824E-02 (  45.41%)
   displ. norm   :     0.5584464 α      lambda       -0.9556094E-02
   maximum displ.:     0.2821067 α      in ANC's #20, #11, #16, ...

........................................................................
.............................. CYCLE   18 ..............................
........................................................................

 iter      E             dE          RMSdq      gap      omega  full diag
   1   -114.4427137 -0.114443E+03  0.240E-01    0.49       0.0  T
   2   -114.4430940 -0.380298E-03  0.139E-01    0.45       1.0  T
   3   -114.4430401  0.539097E-04  0.604E-02    0.48       1.0  T
   4   -114.4430721 -0.319914E-04  0.254E-02    0.45       1.0  T
   5   -114.4431310 -0.589314E-04  0.668E-03    0.46       1.9  T
   6   -114.4431343 -0.328168E-05  0.290E-03    0.46       4.5  T
   7   -114.4431344 -0.172936E-06  0.172E-03    0.46       7.5  T
   8   -114.4431346 -0.126258E-06  0.627E-04    0.46      20.6  T
   9   -114.4431346 -0.969051E-08  0.318E-04    0.46      40.6  T
     SCC iter.                  ...        0 min,  0.191 sec
     gradient                   ...        0 min,  0.010 sec
 * total energy  :  -113.0192483 Eh     change       -0.5685022E-02 Eh
   gradient norm :     0.0552147 Eh/α   predicted    -0.6268151E-02 (  10.26%)
   displ. norm   :     0.5742595 α      lambda       -0.1052275E-01
   maximum displ.:     0.2175909 α      in ANC's #20, #8, #19, ...

........................................................................
.............................. CYCLE   19 ..............................
........................................................................

 iter      E             dE          RMSdq      gap      omega  full diag
   1   -114.4599671 -0.114460E+03  0.245E-01    0.50       0.0  T
   2   -114.4604205 -0.453405E-03  0.146E-01    0.48       1.0  T
   3   -114.4603603  0.601987E-04  0.670E-02    0.48       1.0  T
   4   -114.4603947 -0.343550E-04  0.274E-02    0.49       1.0  T
   5   -114.4604625 -0.677944E-04  0.938E-03    0.48       1.4  T
   6   -114.4604696 -0.707436E-05  0.362E-03    0.48       3.6  T
   7   -114.4604700 -0.417954E-06  0.192E-03    0.48       6.7  T
   8   -114.4604701 -0.775514E-07  0.693E-04    0.48      18.6  T
   9   -114.4604701 -0.571272E-08  0.350E-04    0.48      36.9  T
     SCC iter.                  ...        0 min,  0.198 sec
     gradient                   ...        0 min,  0.010 sec
 * total energy  :  -113.0227374 Eh     change       -0.3489010E-02 Eh
   gradient norm :     0.0806611 Eh/α   predicted    -0.6996443E-02 ( 100.53%)
   displ. norm   :     0.4922822 α      lambda       -0.9450060E-02
   maximum displ.:     0.2064024 α      in ANC's #20, #11, #25, ...

........................................................................
.............................. CYCLE   20 ..............................
........................................................................

 iter      E             dE          RMSdq      gap      omega  full diag
   1   -114.4508182 -0.114451E+03  0.215E-01    0.52       0.0  T
   2   -114.4513409 -0.522657E-03  0.125E-01    0.51       1.0  T
   3   -114.4513162  0.246899E-04  0.656E-02    0.51       1.0  T
   4   -114.4512954  0.207438E-04  0.310E-02    0.52       1.0  T
   5   -114.4513849 -0.894369E-04  0.561E-03    0.51       2.3  T
   6   -114.4513867 -0.181244E-05  0.313E-03    0.51       4.1  T
   7   -114.4513869 -0.176535E-06  0.182E-03    0.51       7.1  T
   8   -114.4513870 -0.179555E-06  0.654E-04    0.51      19.7  T
   9   -114.4513870 -0.129484E-07  0.305E-04    0.51      42.4  T
     SCC iter.                  ...        0 min,  0.222 sec
     gradient                   ...        0 min,  0.010 sec
 * total energy  :  -113.0272999 Eh     change       -0.4562504E-02 Eh
   gradient norm :     0.0503606 Eh/α   predicted    -0.5870122E-02 (  28.66%)
   displ. norm   :     0.4444268 α      lambda       -0.7703903E-02
   maximum displ.:     0.1613217 α      in ANC's #8, #20, #11, ...
 * RMSD in coord.:     1.0618907 α      energy gain  -0.2992320E+01 Eh

generating ANC from model Hessian ...
Using Lindh-Hessian (1995)
 Shifting diagonal of input Hessian by    9.7998956633214302E-003
 Lowest  eigenvalues of input Hessian
    0.000000    0.000000    0.000000    0.000000    0.000000    0.000000
    0.010000    0.010063    0.010178    0.010435    0.010746    0.010950
    0.011047    0.011341    0.011507    0.011968    0.012667    0.013063
 Highest eigenvalues
    2.110413    2.270345    2.297875    2.394343    2.415574    2.437035


........................................................................
.............................. CYCLE   21 ..............................
........................................................................

 iter      E             dE          RMSdq      gap      omega  full diag
   1   -114.4591364 -0.114459E+03  0.212E-01    0.52       0.0  T
   2   -114.4592021 -0.657281E-04  0.128E-01    0.51       1.0  T
   3   -114.4590718  0.130301E-03  0.436E-02    0.52       1.0  T
   4   -114.4592126 -0.140831E-03  0.114E-02    0.50       1.1  T
   5   -114.4592233 -0.106591E-04  0.451E-03    0.51       2.9  T
   6   -114.4592241 -0.782465E-06  0.263E-03    0.51       4.9  T
   7   -114.4592242 -0.109110E-06  0.144E-03    0.51       9.0  T
   8   -114.4592243 -0.121259E-06  0.436E-04    0.51      29.6  T
   9   -114.4592243 -0.790378E-08  0.224E-04    0.51      57.7  T
     SCC iter.                  ...        0 min,  0.252 sec
     gradient                   ...        0 min,  0.010 sec
 * total energy  :  -113.0308659 Eh     change       -0.3566004E-02 Eh
   gradient norm :     0.0518876 Eh/α   predicted     0.0000000E+00 (-100.00%)
   displ. norm   :     0.4294649 α      lambda       -0.9156214E-02
   maximum displ.:     0.2145002 α      in ANC's #6, #8, #3, ...

........................................................................
.............................. CYCLE   22 ..............................
........................................................................

 iter      E             dE          RMSdq      gap      omega  full diag
   1   -114.4652082 -0.114465E+03  0.172E-01    0.52       0.0  T
   2   -114.4652337 -0.254836E-04  0.103E-01    0.51       1.0  T
   3   -114.4652102  0.235070E-04  0.216E-02    0.52       1.0  T
   4   -114.4652357 -0.255293E-04  0.728E-03    0.51       1.8  T
   5   -114.4652389 -0.322891E-05  0.321E-03    0.52       4.0  T
   6   -114.4652393 -0.381715E-06  0.199E-03    0.51       6.5  T
   7   -114.4652395 -0.151794E-06  0.766E-04    0.51      16.8  T
   8   -114.4652395 -0.198352E-07  0.310E-04    0.51      41.6  T
     SCC iter.                  ...        0 min,  0.201 sec
     gradient                   ...        0 min,  0.010 sec
 * total energy  :  -113.0378488 Eh     change       -0.6982912E-02 Eh
   gradient norm :     0.0219987 Eh/α   predicted    -0.5422496E-02 ( -22.35%)
   displ. norm   :     0.6438945 α      lambda       -0.6756176E-02
   maximum displ.:     0.3688248 α      in ANC's #6, #8, #3, ...

........................................................................
.............................. CYCLE   23 ..............................
........................................................................

 iter      E             dE          RMSdq      gap      omega  full diag
   1   -114.4683600 -0.114468E+03  0.201E-01    0.53       0.0  T
   2   -114.4683942 -0.342052E-04  0.120E-01    0.51       1.0  T
   3   -114.4683482  0.460501E-04  0.266E-02    0.52       1.0  T
   4   -114.4683896 -0.414061E-04  0.114E-02    0.51       1.1  T
   5   -114.4684013 -0.117200E-04  0.365E-03    0.52       3.5  T
   6   -114.4684019 -0.570855E-06  0.205E-03    0.52       6.3  T
   7   -114.4684020 -0.692774E-07  0.766E-04    0.52      16.9  T
   8   -114.4684020 -0.286336E-07  0.255E-04    0.52      50.6  T
     SCC iter.                  ...        0 min,  0.250 sec
     gradient                   ...        0 min,  0.010 sec
 * total energy  :  -113.0433034 Eh     change       -0.5454605E-02 Eh
   gradient norm :     0.0172521 Eh/α   predicted    -0.4778645E-02 ( -12.39%)
   displ. norm   :     0.7388497 α      lambda       -0.5692744E-02
   maximum displ.:     0.4367942 α      in ANC's #6, #8, #3, ...

........................................................................
.............................. CYCLE   24 ..............................
........................................................................

 iter      E             dE          RMSdq      gap      omega  full diag
   1   -114.4698913 -0.114470E+03  0.211E-01    0.54       0.0  T
   2   -114.4699167 -0.253494E-04  0.125E-01    0.52       1.0  T
   3   -114.4698684  0.482579E-04  0.258E-02    0.53       1.0  T
   4   -114.4699164 -0.479529E-04  0.944E-03    0.52       1.4  T
   5   -114.4699240 -0.761641E-05  0.374E-03    0.52       3.5  T
   6   -114.4699245 -0.492616E-06  0.211E-03    0.52       6.1  T
   7   -114.4699246 -0.104674E-06  0.814E-04    0.52      15.9  T
   8   -114.4699246 -0.333291E-07  0.275E-04    0.52      46.9  T
     SCC iter.                  ...        0 min,  0.158 sec
     gradient                   ...        0 min,  0.010 sec
 * total energy  :  -113.0483540 Eh     change       -0.5050630E-02 Eh
   gradient norm :     0.0238842 Eh/α   predicted    -0.4400211E-02 ( -12.88%)
   displ. norm   :     0.7799077 α      lambda       -0.5858268E-02
   maximum displ.:     0.4727815 α      in ANC's #6, #8, #3, ...

........................................................................
.............................. CYCLE   25 ..............................
........................................................................

 iter      E             dE          RMSdq      gap      omega  full diag
   1   -114.4750066 -0.114475E+03  0.216E-01    0.54       0.0  T
   2   -114.4750246 -0.180255E-04  0.128E-01    0.52       1.0  T
   3   -114.4749498  0.747564E-04  0.303E-02    0.53       1.0  T
   4   -114.4750287 -0.788642E-04  0.840E-03    0.52       1.5  T
   5   -114.4750339 -0.518866E-05  0.412E-03    0.53       3.1  T
   6   -114.4750345 -0.619035E-06  0.215E-03    0.53       6.0  T
   7   -114.4750346 -0.910537E-07  0.890E-04    0.53      14.5  T
   8   -114.4750346 -0.403219E-07  0.309E-04    0.53      41.8  T
     SCC iter.                  ...        0 min,  0.175 sec
     gradient                   ...        0 min,  0.010 sec
 * total energy  :  -113.0534796 Eh     change       -0.5125573E-02 Eh
   gradient norm :     0.0227664 Eh/α   predicted    -0.4710811E-02 (  -8.09%)
   displ. norm   :     0.7629664 α      lambda       -0.5314269E-02
   maximum displ.:     0.4765470 α      in ANC's #6, #8, #4, ...

........................................................................
.............................. CYCLE   26 ..............................
........................................................................

 iter      E             dE          RMSdq      gap      omega  full diag
   1   -114.4825922 -0.114483E+03  0.209E-01    0.54       0.0  T
   2   -114.4826147 -0.225489E-04  0.124E-01    0.53       1.0  T
   3   -114.4825257  0.889867E-04  0.359E-02    0.54       1.0  T
   4   -114.4826222 -0.964414E-04  0.807E-03    0.53       1.6  T
   5   -114.4826265 -0.433132E-05  0.428E-03    0.53       3.0  T
   6   -114.4826274 -0.882030E-06  0.221E-03    0.53       5.8  T
   7   -114.4826274 -0.799328E-07  0.954E-04    0.53      13.5  T
   8   -114.4826275 -0.528692E-07  0.271E-04    0.53      47.6  T
     SCC iter.                  ...        0 min,  0.203 sec
     gradient                   ...        0 min,  0.012 sec
 * total energy  :  -113.0579680 Eh     change       -0.4488461E-02 Eh
   gradient norm :     0.0179408 Eh/α   predicted    -0.4203933E-02 (  -6.34%)
   displ. norm   :     0.7820135 α      lambda       -0.4199450E-02
   maximum displ.:     0.4944336 α      in ANC's #6, #8, #4, ...

........................................................................
.............................. CYCLE   27 ..............................
........................................................................

 iter      E             dE          RMSdq      gap      omega  full diag
   1   -114.4819133 -0.114482E+03  0.215E-01    0.55       0.0  T
   2   -114.4819418 -0.284549E-04  0.127E-01    0.53       1.0  T
   3   -114.4818209  0.120868E-03  0.432E-02    0.54       1.0  T
   4   -114.4819553 -0.134332E-03  0.769E-03    0.53       1.7  T
   5   -114.4819587 -0.341586E-05  0.415E-03    0.53       3.1  T
   6   -114.4819595 -0.822159E-06  0.224E-03    0.53       5.8  T
   7   -114.4819596 -0.889774E-07  0.105E-03    0.53      12.3  T
   8   -114.4819596 -0.629887E-07  0.261E-04    0.53      49.4  T
   9   -114.4819597 -0.265264E-08  0.121E-04    0.53     107.0  T
     SCC iter.                  ...        0 min,  0.165 sec
     gradient                   ...        0 min,  0.009 sec
 * total energy  :  -113.0615510 Eh     change       -0.3582957E-02 Eh
   gradient norm :     0.0188556 Eh/α   predicted    -0.3383814E-02 (  -5.56%)
   displ. norm   :     0.7369699 α      lambda       -0.3868242E-02
   maximum displ.:     0.4521773 α      in ANC's #6, #8, #4, ...

........................................................................
.............................. CYCLE   28 ..............................
........................................................................

 iter      E             dE          RMSdq      gap      omega  full diag
   1   -114.4926684 -0.114493E+03  0.198E-01    0.54       0.0  T
   2   -114.4927280 -0.596342E-04  0.117E-01    0.53       1.0  T
   3   -114.4925954  0.132637E-03  0.515E-02    0.54       1.0  T
   4   -114.4927502 -0.154845E-03  0.981E-03    0.54       1.3  T
   5   -114.4927564 -0.618848E-05  0.356E-03    0.54       3.6  T
   6   -114.4927568 -0.376547E-06  0.214E-03    0.54       6.0  T
   7   -114.4927568 -0.277364E-07  0.122E-03    0.54      10.6  T
   8   -114.4927569 -0.964683E-07  0.367E-04    0.54      35.2  T
   9   -114.4927569 -0.826917E-08  0.147E-04    0.54      87.7  T
     SCC iter.                  ...        0 min,  0.135 sec
     gradient                   ...        0 min,  0.012 sec
 * total energy  :  -113.0643798 Eh     change       -0.2828765E-02 Eh
   gradient norm :     0.0153158 Eh/α   predicted    -0.2984591E-02 (   5.51%)
   displ. norm   :     0.7971021 α      lambda       -0.3334294E-02
   maximum displ.:     0.5119271 α      in ANC's #6, #8, #3, ...

........................................................................
.............................. CYCLE   29 ..............................
........................................................................

 iter      E             dE          RMSdq      gap      omega  full diag
   1   -114.4813082 -0.114481E+03  0.224E-01    0.55       0.0  T
   2   -114.4813485 -0.403581E-04  0.133E-01    0.54       1.0  T
   3   -114.4811939  0.154614E-03  0.492E-02    0.54       1.0  T
   4   -114.4813676 -0.173739E-03  0.909E-03    0.53       1.4  T
   5   -114.4813718 -0.414360E-05  0.500E-03    0.54       2.6  T
   6   -114.4813729 -0.111424E-05  0.272E-03    0.53       4.7  T
   7   -114.4813730 -0.135970E-06  0.129E-03    0.54      10.0  T
   8   -114.4813731 -0.891818E-07  0.382E-04    0.54      33.8  T
   9   -114.4813731 -0.541570E-08  0.168E-04    0.54      77.1  T
     SCC iter.                  ...        0 min,  0.144 sec
     gradient                   ...        0 min,  0.012 sec
 * total energy  :  -113.0666155 Eh     change       -0.2235780E-02 Eh
   gradient norm :     0.0244470 Eh/α   predicted    -0.2726408E-02 (  21.94%)
   displ. norm   :     0.5620798 α      lambda       -0.1952881E-02
   maximum displ.:     0.3491639 α      in ANC's #6, #8, #3, ...

........................................................................
.............................. CYCLE   30 ..............................
........................................................................

 iter      E             dE          RMSdq      gap      omega  full diag
   1   -114.4875694 -0.114488E+03  0.139E-01    0.54       0.0  T
   2   -114.4875927 -0.232492E-04  0.826E-02    0.54       1.0  T
   3   -114.4875077  0.849416E-04  0.389E-02    0.55       1.0  T
   4   -114.4876067 -0.989498E-04  0.607E-03    0.54       2.1  T
   5   -114.4876088 -0.211609E-05  0.263E-03    0.54       4.9  T
   6   -114.4876091 -0.305879E-06  0.140E-03    0.54       9.2  T
   7   -114.4876091 -0.240959E-07  0.843E-04    0.54      15.3  T
   8   -114.4876092 -0.376529E-07  0.250E-04    0.54      51.6  T
     SCC iter.                  ...        0 min,  0.171 sec
     gradient                   ...        0 min,  0.009 sec
 * total energy  :  -113.0681486 Eh     change       -0.1533046E-02 Eh
   gradient norm :     0.0163329 Eh/α   predicted    -0.1284930E-02 ( -16.18%)
   displ. norm   :     0.6476043 α      lambda       -0.2469217E-02
   maximum displ.:     0.3518207 α      in ANC's #6, #8, #3, ...

........................................................................
.............................. CYCLE   31 ..............................
........................................................................

 iter      E             dE          RMSdq      gap      omega  full diag
   1   -114.4982171 -0.114498E+03  0.168E-01    0.55       0.0  T
   2   -114.4982709 -0.538180E-04  0.998E-02    0.54       1.0  T
   3   -114.4981393  0.131629E-03  0.504E-02    0.55       1.0  T
   4   -114.4982972 -0.157880E-03  0.937E-03    0.54       1.4  T
   5   -114.4983024 -0.518804E-05  0.348E-03    0.54       3.7  T
   6   -114.4983027 -0.357400E-06  0.203E-03    0.54       6.4  T
   7   -114.4983028 -0.245599E-07  0.847E-04    0.54      15.2  T
   8   -114.4983028 -0.376346E-07  0.379E-04    0.54      34.1  T
     SCC iter.                  ...        0 min,  0.142 sec
     gradient                   ...        0 min,  0.012 sec
 * total energy  :  -113.0693551 Eh     change       -0.1206554E-02 Eh
   gradient norm :     0.0221520 Eh/α   predicted    -0.1752396E-02 (  45.24%)
   displ. norm   :     0.5276112 α      lambda       -0.1934772E-02
   maximum displ.:     0.2762384 α      in ANC's #6, #3, #8, ...

........................................................................
.............................. CYCLE   32 ..............................
........................................................................

 iter      E             dE          RMSdq      gap      omega  full diag
   1   -114.4957126 -0.114496E+03  0.155E-01    0.55       0.0  T
   2   -114.4957565 -0.438571E-04  0.924E-02    0.55       1.0  T
   3   -114.4956728  0.836546E-04  0.398E-02    0.56       1.0  T
   4   -114.4957697 -0.968314E-04  0.871E-03    0.55       1.5  T
   5   -114.4957743 -0.463506E-05  0.310E-03    0.55       4.2  T
   6   -114.4957745 -0.191958E-06  0.190E-03    0.55       6.8  T
   7   -114.4957745 -0.478657E-07  0.840E-04    0.55      15.4  T
   8   -114.4957746 -0.178865E-07  0.432E-04    0.55      29.9  T
     SCC iter.                  ...        0 min,  0.155 sec
     gradient                   ...        0 min,  0.012 sec
 * total energy  :  -113.0701353 Eh     change       -0.7801726E-03 Eh
   gradient norm :     0.0319157 Eh/α   predicted    -0.1236682E-02 (  58.51%)
   displ. norm   :     0.4332414 α      lambda       -0.1950738E-02
   maximum displ.:     0.2621730 α      in ANC's #6, #3, #4, ...

........................................................................
.............................. CYCLE   33 ..............................
........................................................................

 iter      E             dE          RMSdq      gap      omega  full diag
   1   -114.4974639 -0.114497E+03  0.124E-01    0.57       0.0  T
   2   -114.4975648 -0.100923E-03  0.741E-02    0.57       1.0  T
   3   -114.4975420  0.228379E-04  0.351E-02    0.56       1.0  T
   4   -114.4975652 -0.231725E-04  0.134E-02    0.56       1.0  T
   5   -114.4975793 -0.141357E-04  0.300E-03    0.56       4.3  T
   6   -114.4975796 -0.268467E-06  0.176E-03    0.56       7.3  T
   7   -114.4975796 -0.414972E-07  0.820E-04    0.56      15.8  T
   8   -114.4975796 -0.252392E-07  0.405E-04    0.56      31.9  T
     SCC iter.                  ...        0 min,  0.163 sec
     gradient                   ...        0 min,  0.010 sec
 * total energy  :  -113.0708463 Eh     change       -0.7109768E-03 Eh
   gradient norm :     0.0206000 Eh/α   predicted    -0.1158449E-02 (  62.94%)
   displ. norm   :     0.3262743 α      lambda       -0.1044686E-02
   maximum displ.:     0.1515326 α      in ANC's #3, #6, #4, ...

........................................................................
.............................. CYCLE   34 ..............................
........................................................................

 iter      E             dE          RMSdq      gap      omega  full diag
   1   -114.4969447 -0.114497E+03  0.862E-02    0.56       0.0  T
   2   -114.4969600 -0.152893E-04  0.515E-02    0.57       1.0  T
   3   -114.4969210  0.390509E-04  0.274E-02    0.57       1.0  T
   4   -114.4969686 -0.475849E-04  0.514E-03    0.57       2.5  T
   5   -114.4969700 -0.141823E-05  0.198E-03    0.57       6.5  T
   6   -114.4969701 -0.962164E-07  0.121E-03    0.57      10.7  T
   7   -114.4969701 -0.141959E-07  0.628E-04    0.57      20.6  T
   8   -114.4969701 -0.181084E-07  0.274E-04    0.57      47.1  T
     SCC iter.                  ...        0 min,  0.124 sec
     gradient                   ...        0 min,  0.009 sec
 * total energy  :  -113.0714508 Eh     change       -0.6044934E-03 Eh
   gradient norm :     0.0161018 Eh/α   predicted    -0.5779475E-03 (  -4.39%)
   displ. norm   :     0.4270491 α      lambda       -0.1421754E-02
   maximum displ.:     0.2087846 α      in ANC's #3, #14, #9, ...

........................................................................
.............................. CYCLE   35 ..............................
........................................................................

 iter      E             dE          RMSdq      gap      omega  full diag
   1   -114.5094027 -0.114509E+03  0.117E-01    0.58       0.0  T
   2   -114.5094856 -0.829355E-04  0.711E-02    0.57       1.0  T
   3   -114.5094388  0.468330E-04  0.398E-02    0.57       1.0  T
   4   -114.5094961 -0.572957E-04  0.148E-02    0.57       1.0  T
   5   -114.5095114 -0.153055E-04  0.443E-03    0.57       2.9  T
   6   -114.5095127 -0.126537E-05  0.197E-03    0.57       6.5  T
   7   -114.5095127 -0.588254E-07  0.111E-03    0.57      11.6  T
   8   -114.5095128 -0.526797E-07  0.355E-04    0.57      36.3  T
   9   -114.5095128 -0.375816E-08  0.165E-04    0.57      78.1  T
     SCC iter.                  ...        0 min,  0.204 sec
     gradient                   ...        0 min,  0.010 sec
 * total energy  :  -113.0714377 Eh     change        0.1304776E-04 Eh
   gradient norm :     0.0285306 Eh/α   predicted    -0.8405219E-03 (*******%)
   displ. norm   :     0.3075127 α      lambda       -0.1573933E-02
   maximum displ.:     0.1605323 α      in ANC's #6, #3, #2, ...

........................................................................
.............................. CYCLE   36 ..............................
........................................................................

 iter      E             dE          RMSdq      gap      omega  full diag
   1   -114.4988387 -0.114499E+03  0.924E-02    0.58       0.0  T
   2   -114.4988642 -0.255209E-04  0.558E-02    0.57       1.0  T
   3   -114.4988277  0.365030E-04  0.258E-02    0.57       1.0  T
   4   -114.4988632 -0.354839E-04  0.975E-03    0.57       1.3  T
   5   -114.4988717 -0.848672E-05  0.303E-03    0.57       4.3  T
   6   -114.4988722 -0.464385E-06  0.158E-03    0.57       8.2  T
   7   -114.4988722 -0.315987E-07  0.796E-04    0.57      16.2  T
   8   -114.4988722 -0.254071E-07  0.270E-04    0.57      47.8  T
     SCC iter.                  ...        0 min,  0.211 sec
     gradient                   ...        0 min,  0.011 sec
 * total energy  :  -113.0723107 Eh     change       -0.8730025E-03 Eh
   gradient norm :     0.0164241 Eh/α   predicted    -0.8613895E-03 (  -1.33%)
   displ. norm   :     0.2824404 α      lambda       -0.1100586E-02
   maximum displ.:     0.1816496 α      in ANC's #3, #2, #18, ...

........................................................................
.............................. CYCLE   37 ..............................
........................................................................

 iter      E             dE          RMSdq      gap      omega  full diag
   1   -114.5027338 -0.114503E+03  0.882E-02    0.56       0.0  T
   2   -114.5028109 -0.770293E-04  0.551E-02    0.58       1.0  T
   3   -114.5027946  0.162841E-04  0.315E-02    0.58       1.0  T
   4   -114.5028103 -0.157702E-04  0.160E-02    0.58       1.0  T
   5   -114.5028291 -0.187967E-04  0.408E-03    0.58       3.2  T
   6   -114.5028302 -0.103929E-05  0.187E-03    0.58       6.9  T
   7   -114.5028302 -0.733349E-07  0.108E-03    0.58      12.0  T
   8   -114.5028303 -0.427419E-07  0.378E-04    0.58      34.1  T
   9   -114.5028303 -0.363508E-08  0.163E-04    0.58      79.4  T
     SCC iter.                  ...        0 min,  0.164 sec
     gradient                   ...        0 min,  0.018 sec
 * total energy  :  -113.0723843 Eh     change       -0.7355848E-04 Eh
   gradient norm :     0.0278291 Eh/α   predicted    -0.5941920E-03 ( 707.78%)
   displ. norm   :     0.3368516 α      lambda       -0.1096331E-02
   maximum displ.:     0.1771359 α      in ANC's #3, #6, #10, ...

........................................................................
.............................. CYCLE   38 ..............................
........................................................................

 iter      E             dE          RMSdq      gap      omega  full diag
   1   -114.4977650 -0.114498E+03  0.883E-02    0.59       0.0  T
   2   -114.4977841 -0.190508E-04  0.528E-02    0.58       1.0  T
   3   -114.4977459  0.382195E-04  0.270E-02    0.58       1.0  T
   4   -114.4977894 -0.434994E-04  0.683E-03    0.58       1.9  T
   5   -114.4977930 -0.359465E-05  0.264E-03    0.58       4.9  T
   6   -114.4977934 -0.414544E-06  0.134E-03    0.58       9.6  T
   7   -114.4977934 -0.296996E-07  0.725E-04    0.58      17.8  T
   8   -114.4977934 -0.219145E-07  0.212E-04    0.58      60.8  T
     SCC iter.                  ...        0 min,  0.202 sec
     gradient                   ...        0 min,  0.010 sec
 * total energy  :  -113.0731105 Eh     change       -0.7261964E-03 Eh
   gradient norm :     0.0117922 Eh/α   predicted    -0.6103649E-03 ( -15.95%)
   displ. norm   :     0.4302907 α      lambda       -0.1008743E-02
   maximum displ.:     0.2471301 α      in ANC's #3, #10, #8, ...

........................................................................
.............................. CYCLE   39 ..............................
........................................................................

 iter      E             dE          RMSdq      gap      omega  full diag
   1   -114.5023964 -0.114502E+03  0.112E-01    0.60       0.0  T
   2   -114.5024746 -0.782473E-04  0.682E-02    0.57       1.0  T
   3   -114.5024417  0.329273E-04  0.355E-02    0.58       1.0  T
   4   -114.5024778 -0.361082E-04  0.143E-02    0.57       1.0  T
   5   -114.5024930 -0.152473E-04  0.350E-03    0.57       3.7  T
   6   -114.5024938 -0.775887E-06  0.180E-03    0.57       7.2  T
   7   -114.5024939 -0.838230E-07  0.101E-03    0.57      12.8  T
   8   -114.5024939 -0.380726E-07  0.333E-04    0.57      38.8  T
   9   -114.5024939 -0.348217E-08  0.145E-04    0.57      88.8  T
     SCC iter.                  ...        0 min,  0.189 sec
     gradient                   ...        0 min,  0.015 sec
 * total energy  :  -113.0731704 Eh     change       -0.5990042E-04 Eh
   gradient norm :     0.0311343 Eh/α   predicted    -0.5977564E-03 ( 897.92%)
   displ. norm   :     0.3281857 α      lambda       -0.1243890E-02
   maximum displ.:     0.1995876 α      in ANC's #3, #18, #2, ...

........................................................................
.............................. CYCLE   40 ..............................
........................................................................

 iter      E             dE          RMSdq      gap      omega  full diag
   1   -114.4977079 -0.114498E+03  0.882E-02    0.57       0.0  T
   2   -114.4977457 -0.377366E-04  0.533E-02    0.58       1.0  T
   3   -114.4977248  0.208396E-04  0.253E-02    0.58       1.0  T
   4   -114.4977477 -0.228277E-04  0.893E-03    0.58       1.4  T
   5   -114.4977539 -0.625057E-05  0.217E-03    0.58       5.9  T
   6   -114.4977541 -0.151330E-06  0.121E-03    0.58      10.7  T
   7   -114.4977541 -0.122634E-07  0.506E-04    0.58      25.5  T
   8   -114.4977541 -0.563250E-08  0.255E-04    0.58      50.7  T
     SCC iter.                  ...        0 min,  0.142 sec
     gradient                   ...        0 min,  0.009 sec
 * total energy  :  -113.0739353 Eh     change       -0.7648842E-03 Eh
   gradient norm :     0.0124349 Eh/α   predicted    -0.6889346E-03 (  -9.93%)
   displ. norm   :     0.3788726 α      lambda       -0.6693277E-03
   maximum displ.:     0.2320793 α      in ANC's #3, #9, #10, ...

........................................................................
.............................. CYCLE   41 ..............................
........................................................................

 iter      E             dE          RMSdq      gap      omega  full diag
   1   -114.4950887 -0.114495E+03  0.100E-01    0.58       0.0  T
   2   -114.4951086 -0.198752E-04  0.606E-02    0.58       1.0  T
   3   -114.4950456  0.629498E-04  0.335E-02    0.58       1.0  T
   4   -114.4951192 -0.735399E-04  0.780E-03    0.58       1.7  T
   5   -114.4951229 -0.378450E-05  0.309E-03    0.58       4.2  T
   6   -114.4951234 -0.503357E-06  0.148E-03    0.58       8.7  T
   7   -114.4951235 -0.180730E-07  0.950E-04    0.58      13.6  T
   8   -114.4951235 -0.443322E-07  0.225E-04    0.58      57.5  T
     SCC iter.                  ...        0 min,  0.165 sec
     gradient                   ...        0 min,  0.011 sec
 * total energy  :  -113.0742307 Eh     change       -0.2953685E-03 Eh
   gradient norm :     0.0147718 Eh/α   predicted    -0.3827040E-03 (  29.57%)
   displ. norm   :     0.4171041 α      lambda       -0.7271737E-03
   maximum displ.:     0.2555734 α      in ANC's #3, #10, #2, ...

........................................................................
.............................. CYCLE   42 ..............................
........................................................................

 iter      E             dE          RMSdq      gap      omega  full diag
   1   -114.4984240 -0.114498E+03  0.102E-01    0.59       0.0  T
   2   -114.4984441 -0.201662E-04  0.612E-02    0.58       1.0  T
   3   -114.4984047  0.393880E-04  0.249E-02    0.59       1.0  T
   4   -114.4984457 -0.409848E-04  0.812E-03    0.58       1.6  T
   5   -114.4984507 -0.496780E-05  0.229E-03    0.58       5.6  T
   6   -114.4984510 -0.263670E-06  0.122E-03    0.58      10.5  T
   7   -114.4984510 -0.173425E-07  0.714E-04    0.58      18.1  T
   8   -114.4984510 -0.266855E-07  0.189E-04    0.58      68.2  T
     SCC iter.                  ...        0 min,  0.128 sec
     gradient                   ...        0 min,  0.011 sec
 * total energy  :  -113.0746772 Eh     change       -0.4465693E-03 Eh
   gradient norm :     0.0152908 Eh/α   predicted    -0.4268486E-03 (  -4.42%)
   displ. norm   :     0.4316742 α      lambda       -0.5851646E-03
   maximum displ.:     0.2923137 α      in ANC's #3, #10, #2, ...
 * RMSD in coord.:     1.1775305 α      energy gain  -0.4737736E-01 Eh

generating ANC from model Hessian ...
Using Lindh-Hessian (1995)
 Shifting diagonal of input Hessian by    9.8138056054996505E-003
 Lowest  eigenvalues of input Hessian
    0.000000    0.000000    0.000000    0.000000    0.000000    0.000000
    0.010000    0.010078    0.010177    0.010461    0.010943    0.011096
    0.011231    0.011750    0.011953    0.012480    0.012770    0.013238
 Highest eigenvalues
    2.130677    2.240319    2.264082    2.420891    2.426252    2.433950


........................................................................
.............................. CYCLE   43 ..............................
........................................................................

 iter      E             dE          RMSdq      gap      omega  full diag
   1   -114.4974349 -0.114497E+03  0.983E-02    0.59       0.0  T
   2   -114.4974502 -0.152913E-04  0.587E-02    0.58       1.0  T
   3   -114.4974169  0.333073E-04  0.228E-02    0.59       1.0  T
   4   -114.4974514 -0.345302E-04  0.732E-03    0.58       1.8  T
   5   -114.4974554 -0.398899E-05  0.218E-03    0.58       5.9  T
   6   -114.4974556 -0.239744E-06  0.117E-03    0.58      11.0  T
   7   -114.4974556 -0.148967E-07  0.653E-04    0.58      19.8  T
   8   -114.4974557 -0.243156E-07  0.174E-04    0.58      74.1  T
     SCC iter.                  ...        0 min,  0.149 sec
     gradient                   ...        0 min,  0.011 sec
 * total energy  :  -113.0750080 Eh     change       -0.3308101E-03 Eh
   gradient norm :     0.0142147 Eh/α   predicted     0.0000000E+00 (-100.00%)
   displ. norm   :     0.1296607 α      lambda       -0.4818451E-03
   maximum displ.:     0.0575530 α      in ANC's #15, #9, #13, ...

........................................................................
.............................. CYCLE   44 ..............................
........................................................................

 iter      E             dE          RMSdq      gap      omega  full diag
   1   -114.5015788 -0.114502E+03  0.405E-02    0.58       0.0  T
   2   -114.5015816 -0.285717E-05  0.250E-02    0.58       1.0  T
   3   -114.5015637  0.178987E-04  0.173E-02    0.58       1.0  T
   4   -114.5015848 -0.211256E-04  0.367E-03    0.58       3.5  T
   5   -114.5015859 -0.103658E-05  0.121E-03    0.58      10.7  T
   6   -114.5015860 -0.969543E-07  0.554E-04    0.58      23.3  T
   7   -114.5015860 -0.393955E-08  0.308E-04    0.58      41.9  T
     SCC iter.                  ...        0 min,  0.109 sec
     gradient                   ...        0 min,  0.010 sec
 * total energy  :  -113.0753764 Eh     change       -0.3683822E-03 Eh
   gradient norm :     0.0052472 Eh/α   predicted    -0.2449821E-03 ( -33.50%)
   displ. norm   :     0.3177415 α      lambda       -0.6146355E-03
   maximum displ.:     0.1558857 α      in ANC's #15, #9, #14, ...

........................................................................
.............................. CYCLE   45 ..............................
........................................................................

 iter      E             dE          RMSdq      gap      omega  full diag
   1   -114.5047881 -0.114505E+03  0.758E-02    0.58       0.0  T
   2   -114.5047943 -0.612834E-05  0.462E-02    0.58       1.0  T
   3   -114.5047307  0.635468E-04  0.320E-02    0.58       1.0  T
   4   -114.5048054 -0.747117E-04  0.586E-03    0.58       2.2  T
   5   -114.5048081 -0.266440E-05  0.207E-03    0.58       6.2  T
   6   -114.5048084 -0.265146E-06  0.957E-04    0.58      13.5  T
   7   -114.5048084 -0.109228E-07  0.506E-04    0.58      25.5  T
     SCC iter.                  ...        0 min,  0.145 sec
     gradient                   ...        0 min,  0.012 sec
 * total energy  :  -113.0758376 Eh     change       -0.4612183E-03 Eh
   gradient norm :     0.0089200 Eh/α   predicted    -0.3383734E-03 ( -26.63%)
   displ. norm   :     0.4582554 α      lambda       -0.6279302E-03
   maximum displ.:     0.2282321 α      in ANC's #15, #9, #13, ...

........................................................................
.............................. CYCLE   46 ..............................
........................................................................

 iter      E             dE          RMSdq      gap      omega  full diag
   1   -114.5031846 -0.114503E+03  0.985E-02    0.58       0.0  T
   2   -114.5031901 -0.550109E-05  0.592E-02    0.58       1.0  T
   3   -114.5030833  0.106825E-03  0.387E-02    0.58       1.0  T
   4   -114.5032039 -0.120536E-03  0.603E-03    0.58       2.1  T
   5   -114.5032065 -0.266160E-05  0.248E-03    0.58       5.2  T
   6   -114.5032068 -0.293022E-06  0.123E-03    0.58      10.5  T
   7   -114.5032068 -0.223493E-07  0.561E-04    0.58      23.0  T
   8   -114.5032068 -0.119025E-07  0.190E-04    0.58      68.0  T
     SCC iter.                  ...        0 min,  0.123 sec
     gradient                   ...        0 min,  0.009 sec
 * total energy  :  -113.0762554 Eh     change       -0.4177558E-03 Eh
   gradient norm :     0.0177477 Eh/α   predicted    -0.3798982E-03 (  -9.06%)
   displ. norm   :     0.2976602 α      lambda       -0.5575014E-03
   maximum displ.:     0.1301371 α      in ANC's #9, #15, #2, ...

........................................................................
.............................. CYCLE   47 ..............................
........................................................................

 iter      E             dE          RMSdq      gap      omega  full diag
   1   -114.5025418 -0.114503E+03  0.602E-02    0.58       0.0  T
   2   -114.5025438 -0.198695E-05  0.356E-02    0.58       1.0  T
   3   -114.5025226  0.211884E-04  0.165E-02    0.58       1.0  T
   4   -114.5025461 -0.234256E-04  0.262E-03    0.58       4.9  T
   5   -114.5025465 -0.383293E-06  0.136E-03    0.58       9.5  T
   6   -114.5025465 -0.788349E-07  0.741E-04    0.58      17.4  T
   7   -114.5025465 -0.100992E-07  0.299E-04    0.58      43.1  T
     SCC iter.                  ...        0 min,  0.122 sec
     gradient                   ...        0 min,  0.010 sec
 * total energy  :  -113.0767277 Eh     change       -0.4723588E-03 Eh
   gradient norm :     0.0151952 Eh/α   predicted    -0.3034726E-03 ( -35.75%)
   displ. norm   :     0.3958452 α      lambda       -0.1094532E-02
   maximum displ.:     0.1573700 α      in ANC's #9, #3, #2, ...

........................................................................
.............................. CYCLE   48 ..............................
........................................................................

 iter      E             dE          RMSdq      gap      omega  full diag
   1   -114.5049268 -0.114505E+03  0.831E-02    0.57       0.0  T
   2   -114.5049379 -0.111093E-04  0.493E-02    0.58       1.0  T
   3   -114.5049274  0.105240E-04  0.134E-02    0.58       1.0  T
   4   -114.5049372 -0.973378E-05  0.601E-03    0.58       2.1  T
   5   -114.5049401 -0.297806E-05  0.193E-03    0.58       6.7  T
   6   -114.5049402 -0.107852E-06  0.119E-03    0.58      10.9  T
   7   -114.5049403 -0.287214E-07  0.521E-04    0.58      24.8  T
   8   -114.5049403 -0.158678E-07  0.135E-04    0.58      95.4  T
     SCC iter.                  ...        0 min,  0.137 sec
     gradient                   ...        0 min,  0.010 sec
 * total energy  :  -113.0773338 Eh     change       -0.6060477E-03 Eh
   gradient norm :     0.0072568 Eh/α   predicted    -0.6330190E-03 (   4.45%)
   displ. norm   :     0.6407603 α      lambda       -0.8934283E-03
   maximum displ.:     0.2960062 α      in ANC's #15, #9, #2, ...

........................................................................
.............................. CYCLE   49 ..............................
........................................................................

 iter      E             dE          RMSdq      gap      omega  full diag
   1   -114.4962598 -0.114496E+03  0.123E-01    0.57       0.0  T
   2   -114.4962717 -0.119179E-04  0.725E-02    0.57       1.0  T
   3   -114.4962091  0.626518E-04  0.284E-02    0.58       1.0  T
   4   -114.4962766 -0.674888E-04  0.682E-03    0.57       1.9  T
   5   -114.4962794 -0.287815E-05  0.305E-03    0.58       4.2  T
   6   -114.4962797 -0.305463E-06  0.174E-03    0.57       7.4  T
   7   -114.4962798 -0.955003E-07  0.587E-04    0.57      22.0  T
   8   -114.4962799 -0.138897E-07  0.223E-04    0.57      58.0  T
     SCC iter.                  ...        0 min,  0.129 sec
     gradient                   ...        0 min,  0.011 sec
 * total energy  :  -113.0776108 Eh     change       -0.2770474E-03 Eh
   gradient norm :     0.0181980 Eh/α   predicted    -0.6301255E-03 ( 127.44%)
   displ. norm   :     0.1217479 α      lambda       -0.6184612E-03
   maximum displ.:     0.0628368 α      in ANC's #15, #9, #13, ...

........................................................................
.............................. CYCLE   50 ..............................
........................................................................

 iter      E             dE          RMSdq      gap      omega  full diag
   1   -114.5032051 -0.114503E+03  0.402E-02    0.58       0.0  T
   2   -114.5032092 -0.411646E-05  0.233E-02    0.58       1.0  T
   3   -114.5032033  0.598271E-05  0.104E-02    0.57       1.2  T
   4   -114.5032088 -0.549462E-05  0.437E-03    0.58       3.0  T
   5   -114.5032104 -0.162382E-05  0.120E-03    0.57      10.8  T
   6   -114.5032104 -0.397800E-07  0.653E-04    0.58      19.8  T
   7   -114.5032104 -0.858128E-08  0.268E-04    0.57      48.1  T
     SCC iter.                  ...        0 min,  0.158 sec
     gradient                   ...        0 min,  0.009 sec
 * total energy  :  -113.0779647 Eh     change       -0.3538272E-03 Eh
   gradient norm :     0.0061747 Eh/α   predicted    -0.3138190E-03 ( -11.31%)
   displ. norm   :     0.3052066 α      lambda       -0.3582163E-03
   maximum displ.:     0.1393136 α      in ANC's #3, #1, #2, ...

........................................................................
.............................. CYCLE   51 ..............................
........................................................................

 iter      E             dE          RMSdq      gap      omega  full diag
   1   -114.5056075 -0.114506E+03  0.510E-02    0.57       0.0  T
   2   -114.5056088 -0.130662E-05  0.301E-02    0.57       1.0  T
   3   -114.5056055  0.329479E-05  0.678E-03    0.57       1.9  T
   4   -114.5056092 -0.363576E-05  0.180E-03    0.57       7.2  T
[...]
        94        2.0000           -0.5317702             -14.4702
        95        2.0000           -0.5298189             -14.4171
        96        2.0000           -0.5247787             -14.2800
        97        2.0000           -0.5179929             -14.0953
        98        1.9999           -0.5130374             -13.9605 (HOMO)
        99        0.0001           -0.4930871             -13.4176 (LUMO)
       100                         -0.4301654             -11.7054
       101                         -0.4054429             -11.0327
       102                         -0.4018925             -10.9361
       103                         -0.3952038             -10.7540
       ...                                ...                  ...
       177                          0.6105847              16.6149
      -------------------------------------------------------------
                  HL-Gap            0.0199503 Eh            0.5429 eV
             Fermi-level           -0.5030597 Eh          -13.6889 eV

 SCC (total)                   0 d,  0 h,  0 min,  0.062 sec
 SCC setup                      ...        0 min,  0.000 sec (  0.216%)
 Dispersion                     ...        0 min,  0.000 sec (  0.614%)
 classical contributions        ...        0 min,  0.000 sec (  0.145%)
 integral evaluation            ...        0 min,  0.002 sec (  3.243%)
 iterations                     ...        0 min,  0.050 sec ( 81.030%)
 molecular gradient             ...        0 min,  0.009 sec ( 14.168%)
 printout                       ...        0 min,  0.000 sec (  0.567%)

         :::::::::::::::::::::::::::::::::::::::::::::::::::::
         ::                     SUMMARY                     ::
         :::::::::::::::::::::::::::::::::::::::::::::::::::::
         :: total energy            -113.079981561366 Eh    ::
         :: gradient norm              0.000782153398 Eh/a0 ::
         :: HOMO-LUMO gap              0.542876475784 eV    ::
         ::.................................................::
         :: SCC energy              -114.507814913989 Eh    ::
         :: -> isotropic ES            0.240854009276 Eh    ::
         :: -> anisotropic ES         -0.009888995331 Eh    ::
         :: -> anisotropic XC          0.019626463360 Eh    ::
         :: -> dispersion             -0.074948003013 Eh    ::
         :: repulsion energy           1.427669816320 Eh    ::
         :: add. restraining           0.000000000000 Eh    ::
         :: total charge               1.000000000001 e     ::
         :::::::::::::::::::::::::::::::::::::::::::::::::::::

           -------------------------------------------------
          |                Property Printout                |
           -------------------------------------------------

    * Orbital Energies and Occupations

         #    Occupation            Energy/Eh            Energy/eV
      -------------------------------------------------------------
         1        2.0000           -0.8780881             -23.8940
       ...           ...                  ...                  ...
        86        2.0000           -0.5588565             -15.2073
        87        2.0000           -0.5554254             -15.1139
        88        2.0000           -0.5542694             -15.0824
        89        2.0000           -0.5450149             -14.8306
        90        2.0000           -0.5449395             -14.8286
        91        2.0000           -0.5415285             -14.7357
        92        2.0000           -0.5345747             -14.5465
        93        2.0000           -0.5341866             -14.5360
        94        2.0000           -0.5317702             -14.4702
        95        2.0000           -0.5298189             -14.4171
        96        2.0000           -0.5247787             -14.2800
        97        2.0000           -0.5179929             -14.0953
        98        1.9999           -0.5130374             -13.9605 (HOMO)
        99        0.0001           -0.4930871             -13.4176 (LUMO)
       100                         -0.4301654             -11.7054
       101                         -0.4054429             -11.0327
       102                         -0.4018925             -10.9361
       103                         -0.3952038             -10.7540
       104                         -0.3682548             -10.0207
       105                         -0.3678269             -10.0091
       106                         -0.3421269              -9.3097
       107                         -0.3283173              -8.9340
       108                         -0.3116270              -8.4798
       109                         -0.2908265              -7.9138
       ...                                ...                  ...
       177                          0.6105847              16.6149
      -------------------------------------------------------------
                  HL-Gap            0.0199503 Eh            0.5429 eV
             Fermi-level           -0.5030597 Eh          -13.6889 eV

     #   Z          covCN         q      C6AA      α(0)
     1   6 C        2.913    -0.053    29.328     8.880
     2   6 C        2.860     0.177    24.211     8.065
     3   6 C        2.973     0.004    27.921     8.667
     4   6 C        2.976     0.001    28.003     8.680
     5   6 C        2.923    -0.010    28.269     8.719
     6   6 C        2.968     0.012    27.754     8.641
     7   6 C        2.973     0.070    26.438     8.434
     8   6 C        2.988     0.018    27.605     8.619
     9   6 C        2.976     0.004    27.937     8.670
    10   6 C        2.830     0.232    23.142     7.883
    11   6 C        2.973     0.004    27.931     8.669
    12   6 C        2.977    -0.001    28.038     8.686
    13   6 C        2.831     0.232    23.151     7.885
    14   6 C        2.977     0.002    27.978     8.676
    15   6 C        2.920    -0.001    28.057     8.686
    16   6 C        2.968     0.010    27.785     8.646
    17   6 C        2.923     0.002    27.982     8.675
    18   6 C        2.860     0.178    24.189     8.062
    19   6 C        2.918    -0.051    29.268     8.872
    20   6 C        2.968     0.010    27.789     8.647
    21   6 C        2.921    -0.013    28.338     8.730
    22   8 O        1.705    -0.210    17.498     5.648
    23   8 O        1.705    -0.213    17.544     5.655
    24   6 C        2.729     0.355    20.979     7.499
    25   6 C        2.730     0.356    20.965     7.496
    26   6 C        2.730     0.355    20.972     7.497
    27   8 O        0.858    -0.293    19.653     5.944
    28   8 O        0.858    -0.305    19.872     5.977
    29   8 O        0.857    -0.374    21.165     6.168
    30   8 O        1.704    -0.240    17.973     5.724
    31   6 C        3.658     0.023    20.476     6.494
    32   8 O        0.857    -0.366    21.022     6.147
    33   8 O        1.704    -0.248    18.111     5.746
    34   6 C        3.657     0.022    20.490     6.497
    35   8 O        0.857    -0.387    21.423     6.206
    36   8 O        1.704    -0.233    17.862     5.706
    37   6 C        3.657     0.021    20.515     6.502
    38   6 C        3.643     0.014    20.691     6.539
    39   6 C        3.642     0.015    20.669     6.536
    40   1 H        0.925     0.086     1.921     2.167
    41   1 H        0.924     0.079     1.989     2.205
    42   1 H        0.924     0.078     1.996     2.209
    43   1 H        0.926     0.112     1.676     2.025
    44   1 H        0.925     0.121     1.603     1.980
    45   1 H        0.926     0.114     1.666     2.019
    46   1 H        0.926     0.103     1.760     2.074
    47   1 H        0.925     0.091     1.871     2.139
    48   1 H        0.924     0.076     2.023     2.224
    49   1 H        0.924     0.073     2.056     2.242
    50   1 H        0.924     0.079     1.991     2.206
    51   1 H        0.925     0.088     1.898     2.154
    52   1 H        0.924     0.082     1.963     2.191
    53   1 H        0.925     0.083     1.945     2.181
    54   1 H        0.924     0.082     1.959     2.189
    55   1 H        0.924     0.078     2.003     2.213
    56   1 H        0.926     0.123     1.591     1.973
    57   1 H        0.925     0.091     1.866     2.136
    58   1 H        0.924     0.078     1.995     2.209
    59   1 H        0.924     0.075     2.033     2.230
    60   1 H        0.926     0.094     1.843     2.123

 Mol. C6AA /au·bohr⁶  :      47483.911959
 Mol. C8AA /au·bohr⁸  :    1163689.613949
 Mol. α(0) /au        :        338.562052


Wiberg/Mayer (AO) data.
largest (>0.10) Wiberg bond orders for each atom

 ---------------------------------------------------------------------------
     #   Z sym  total        # sym  WBO       # sym  WBO       # sym  WBO
 ---------------------------------------------------------------------------
     1   6 C    3.981 --     6 C    1.437     2 C    1.337    60 H    0.953
     2   6 C    3.922 --     1 C    1.337     3 C    1.211    23 O    1.166
     3   6 C    3.977 --     4 C    1.256     7 C    1.241     2 C    1.211
     4   6 C    3.978 --     5 C    1.468     3 C    1.256    10 C    1.009
     5   6 C    3.957 --     4 C    1.468     6 C    1.320    56 H    0.950
     6   6 C    3.955 --     1 C    1.437     5 C    1.320    24 C    0.970
     7   6 C    3.958 --     3 C    1.241    11 C    1.241     8 C    1.158
     8   6 C    3.986 --     9 C    1.297    14 C    1.295     7 C    1.158
     9   6 C    3.977 --    17 C    1.415     8 C    1.297    10 C    1.013
    10   6 C    3.940 --    27 O    1.828     9 C    1.013     4 C    1.009
    11   6 C    3.977 --    12 C    1.256     7 C    1.241    18 C    1.211
    12   6 C    3.978 --    21 C    1.466    11 C    1.256    13 C    1.012
    13   6 C    3.939 --    28 O    1.817    14 C    1.017    12 C    1.012
    14   6 C    3.978 --    15 C    1.413     8 C    1.295    13 C    1.017
    15   6 C    3.968 --    14 C    1.413    16 C    1.382    43 H    0.953
    16   6 C    3.951 --    15 C    1.382    17 C    1.379    26 C    0.969
    17   6 C    3.965 --     9 C    1.415    16 C    1.379    44 H    0.951
    18   6 C    3.922 --    19 C    1.334    11 C    1.211    22 O    1.171
    19   6 C    3.978 --    20 C    1.439    18 C    1.334    46 H    0.950
    20   6 C    3.956 --    19 C    1.439    21 C    1.321    25 C    0.969
    21   6 C    3.960 --    12 C    1.466    20 C    1.321    45 H    0.952
    22   8 O    2.348 --    18 C    1.171    38 C    0.956
    23   8 O    2.343 --     2 C    1.166    39 C    0.957
    24   6 C    3.934 --    32 O    1.753    33 O    1.148     6 C    0.970
    25   6 C    3.933 --    35 O    1.731    36 O    1.168    20 C    0.969
    26   6 C    3.933 --    29 O    1.745    30 O    1.157    16 C    0.969
    27   8 O    2.093 --    10 C    1.828
    28   8 O    2.083 --    13 C    1.817
    29   8 O    2.060 --    26 C    1.745    30 O    0.191
    30   8 O    2.337 --    26 C    1.157    31 C    0.944    29 O    0.191
    31   6 C    3.905 --    40 H    0.980    41 H    0.973    42 H    0.973
                            30 O    0.944
    32   8 O    2.066 --    24 C    1.753    33 O    0.190
    33   8 O    2.327 --    24 C    1.148    34 C    0.944    32 O    0.190
    34   6 C    3.905 --    53 H    0.980    54 H    0.974    55 H    0.973
                            33 O    0.944
    35   8 O    2.049 --    25 C    1.731    36 O    0.193
    36   8 O    2.349 --    25 C    1.168    37 C    0.943    35 O    0.193
    37   6 C    3.903 --    51 H    0.978    52 H    0.974    50 H    0.971
                            36 O    0.943
    38   6 C    3.909 --    57 H    0.976    58 H    0.970    59 H    0.968
                            22 O    0.956
    39   6 C    3.912 --    47 H    0.976    48 H    0.971    49 H    0.969
                            23 O    0.957
    40   1 H    0.992 --    31 C    0.980
    41   1 H    0.993 --    31 C    0.973
    42   1 H    0.993 --    31 C    0.973
    43   1 H    0.986 --    15 C    0.953
    44   1 H    0.984 --    17 C    0.951
    45   1 H    0.986 --    21 C    0.952
    46   1 H    0.988 --    19 C    0.950
    47   1 H    0.991 --    39 C    0.976
    48   1 H    0.991 --    39 C    0.971
    49   1 H    0.992 --    39 C    0.969
    50   1 H    0.992 --    37 C    0.971
    51   1 H    0.992 --    37 C    0.978
    52   1 H    0.993 --    37 C    0.974
    53   1 H    0.993 --    34 C    0.980
    54   1 H    0.992 --    34 C    0.974
    55   1 H    0.993 --    34 C    0.973
    56   1 H    0.984 --     5 C    0.950
    57   1 H    0.991 --    38 C    0.976
    58   1 H    0.991 --    38 C    0.970
    59   1 H    0.991 --    38 C    0.968
    60   1 H    0.990 --     1 C    0.953
 ---------------------------------------------------------------------------

Topologies differ in bond orders
Writing corrected topology to xtbtopo.mol

molecular dipole:
                 x           y           z       tot (Debye)
 q only:       -3.899      -0.571       1.264
   full:       -4.280      -0.661       1.167      11.399
molecular quadrupole (traceless):
                xx          xy          yy          xz          yz          zz
 q only:       20.322     -28.590     -12.381      12.983     -39.943      -7.941
  q+dip:       20.355     -31.545     -16.055      12.214     -40.799      -4.300
   full:       17.245     -33.174     -20.148      10.625     -36.921       2.904

           -------------------------------------------------
          |                Geometry Summary                 |
           -------------------------------------------------

      molecular mass/u    :      529.4721460
   center of mass at/Å    :       -0.5449426       0.1870825       1.0707719
  moments of inertia/u·Å² :        0.5748970E+04   0.6404504E+04   0.1143844E+05
rotational constants/cm⁻¹ :        0.2932287E-02   0.2632153E-02   0.1473770E-02

 * 56 selected distances

     #   Z          #   Z                                           value/Å
     1   6 C        2   6 C                                       1.3979525
     2   6 C        3   6 C                                       1.4316207 (max)
     3   6 C        4   6 C                                       1.4192510
     4   6 C        5   6 C                                       1.3776063
     1   6 C        6   6 C                                       1.3825758
     5   6 C        6   6 C                                       1.3986129
     3   6 C        7   6 C                                       1.4262449
     8   6 C        9   6 C                                       1.4067674
     7   6 C       11   6 C                                       1.4258808
    11   6 C       12   6 C                                       1.4192683
     8   6 C       14   6 C                                       1.4068455
    14   6 C       15   6 C                                       1.3882833
    15   6 C       16   6 C                                       1.3919464
     9   6 C       17   6 C                                       1.3868585
    16   6 C       17   6 C                                       1.3932379
    11   6 C       18   6 C                                       1.4313434
    18   6 C       19   6 C                                       1.3967578
    19   6 C       20   6 C                                       1.3827507
    12   6 C       21   6 C                                       1.3792469
    20   6 C       21   6 C                                       1.3972834
    18   6 C       22   8 O                                       1.3287944
     2   6 C       23   8 O                                       1.3303214
    10   6 C       27   8 O                                       1.2062557
    13   6 C       28   8 O                                       1.2082210
    26   6 C       29   8 O                                       1.2017489
    26   6 C       30   8 O                                       1.3273424
    30   8 O       31   6 C                                       1.4252870
    24   6 C       32   8 O                                       1.2003780
    24   6 C       33   8 O                                       1.3309162
    33   8 O       34   6 C                                       1.4266744
    25   6 C       35   8 O                                       1.2041232
    25   6 C       36   8 O                                       1.3229991
    36   8 O       37   6 C                                       1.4255063
    22   8 O       38   6 C                                       1.4178824
    23   8 O       39   6 C                                       1.4171617
    31   6 C       40   1 H                                       1.0866629
    31   6 C       41   1 H                                       1.0911989
    31   6 C       42   1 H                                       1.0915372
    15   6 C       43   1 H                                       1.0799657
    17   6 C       44   1 H                                       1.0814436
    21   6 C       45   1 H                                       1.0792558
Note: The following floating-point exceptions are signalling: IEEE_UNDERFLOW_FLAG
normal termination of xtb
    19   6 C       46   1 H                                       1.0795376
    39   6 C       47   1 H                                       1.0886482
    39   6 C       48   1 H                                       1.0922002
    39   6 C       49   1 H                                       1.0928963
    37   6 C       50   1 H                                       1.0915403
    37   6 C       51   1 H                                       1.0867153
    37   6 C       52   1 H                                       1.0915599
    34   6 C       53   1 H                                       1.0868113
    34   6 C       54   1 H                                       1.0911207
    34   6 C       55   1 H                                       1.0914527
     5   6 C       56   1 H                                       1.0807655
    38   6 C       57   1 H                                       1.0885374
    38   6 C       58   1 H                                       1.0918987
    38   6 C       59   1 H                                       1.0927025
     1   6 C       60   1 H                                       1.0777868 (min)

 * 3 distinct bonds (by element types)

   Z      Z             #   av. dist./Å        max./Å        min./Å
   1 H    6 C          21     1.0873446     1.0928963     1.0777868
   6 C    6 C          20     1.4020167     1.4316207     1.3776063
   6 C    8 O          15     1.3182408     1.4266744     1.2003780


optimized geometry written to: xtbopt.mol


           -------------------------------------------------
          | TOTAL ENERGY             -113.079981561366 Eh   |
          | GRADIENT NORM               0.000782153398 Eh/α |
          | HOMO-LUMO GAP               0.542876475784 eV   |
           -------------------------------------------------
########################################################################
[WARNING] Runtime exception occurred
-1- restart_readRestart: Number of electron missmatch in restart file.
########################################################################

------------------------------------------------------------------------
 * finished run on 2024/11/01 at 09:47:46.808     
------------------------------------------------------------------------
 total:
 * wall-time:     0 d,  0 h,  0 min, 19.361 sec
 *  cpu-time:     0 d,  0 h,  0 min, 54.438 sec
 * ratio c/w:     2.812 speedup
 SCF:
 * wall-time:     0 d,  0 h,  0 min,  0.600 sec
 *  cpu-time:     0 d,  0 h,  0 min,  2.061 sec
 * ratio c/w:     3.433 speedup
 ANC optimizer:
 * wall-time:     0 d,  0 h,  0 min, 18.748 sec
 *  cpu-time:     0 d,  0 h,  0 min, 52.364 sec
 * ratio c/w:     2.793 speedup

