     -----------------------------------------------------------      
     |                   =====================                   |     
     |                           x T B                           |     
     |                   =====================                   |     
     |                         S. Grimme                         |     
     |          Mulliken Center for Theoretical Chemistry        |     
     |                    University of Bonn                     |     
      -----------------------------------------------------------      

   * xtb version 6.7.1 (43a0e4e5b5d943adc66b4aa6563d39c792f6153b) compiled by 'joseph@Linux' on 2024/10/21

   xtb is free software: you can redistribute it and/or modify it under
   the terms of the GNU Lesser General Public License as published by
   the Free Software Foundation, either version 3 of the License, or
   (at your option) any later version.
   
   xtb is distributed in the hope that it will be useful,
   but WITHOUT ANY WARRANTY; without even the implied warranty of
   MERCHANTABILITY or FITNESS FOR A PARTICULAR PURPOSE.  See the
   GNU Lesser General Public License for more details.
   
   Cite this work as:
   * C. Bannwarth, E. Caldeweyher, S. Ehlert, A. Hansen, P. Pracht,
     J. Seibert, S. Spicher, S. Grimme, WIREs Comput. Mol. Sci., 2020, 11,
     e01493. DOI: 10.1002/wcms.1493
   
   for GFN2-xTB:
   * C. Bannwarth, S. Ehlert and S. Grimme., J. Chem. Theory Comput., 2019,
     15, 1652-1671. DOI: 10.1021/acs.jctc.8b01176
   for GFN1-xTB:
   * S. Grimme, C. Bannwarth, P. Shushkov, J. Chem. Theory Comput., 2017,
     13, 1989-2009. DOI: 10.1021/acs.jctc.7b00118
   for GFN0-xTB:
   * P. Pracht, E. Caldeweyher, S. Ehlert, S. Grimme, ChemRxiv, 2019, preprint.
     DOI: 10.26434/chemrxiv.8326202.v1
   for GFN-FF:
   * S. Spicher and S. Grimme, Angew. Chem. Int. Ed., 2020, 59, 15665-15673.
     DOI: 10.1002/anie.202004239
   
   for ALPB and GBSA implicit solvation:
   * S. Ehlert, M. Stahn, S. Spicher, S. Grimme, J. Chem. Theory Comput.,
     2021, 17, 4250-4261. DOI: 10.1021/acs.jctc.1c00471
   
   for ddCOSMO and CPCM-X implicit solvation:
   * M. Stahn, S. Ehlert, S. Grimme, J. Phys. Chem. A,
     2023, XX, XXXX-XXXX. DOI: 10.1021/acs.jpca.3c04382
   
   for DFT-D4:
   * E. Caldeweyher, C. Bannwarth and S. Grimme, J. Chem. Phys., 2017,
     147, 034112. DOI: 10.1063/1.4993215
   * E. Caldeweyher, S. Ehlert, A. Hansen, H. Neugebauer, S. Spicher,
     C. Bannwarth and S. Grimme, J. Chem. Phys., 2019, 150, 154122.
     DOI: 10.1063/1.5090222
   * E. Caldeweyher, J.-M. Mewes, S. Ehlert and S. Grimme, Phys. Chem. Chem. Phys.
     2020, 22, 8499-8512. DOI: 10.1039/D0CP00502A
   
   for sTDA-xTB:
   * S. Grimme and C. Bannwarth, J. Chem. Phys., 2016, 145, 054103.
     DOI: 10.1063/1.4959605
   
   in the mass-spec context:
   * V. Asgeirsson, C. Bauer and S. Grimme, Chem. Sci., 2017, 8, 4879.
     DOI: 10.1039/c7sc00601b
   * J. Koopman and S. Grimme, ACS Omega 2019, 4, 12, 15120-15133.
     DOI: 10.1021/acsomega.9b02011
   
   for metadynamics refer to:
   * S. Grimme, J. Chem. Theory Comput., 2019, 155, 2847-2862
     DOI: 10.1021/acs.jctc.9b00143
   
   for SPH calculations refer to:
   * S. Spicher and S. Grimme, J. Chem. Theory Comput., 2021, 17, 1701-1714
     DOI: 10.1021/acs.jctc.0c01306
   
   for ONIOM refer to:
   * C. Plett, A. Katbashev, S. Ehlert, S. Grimme, M. Bursch,
     Phys. Chem. Chem. Phys., 2023, 25, 17860-17868. DOI: 10.1039/D3CP02178E
   
   for DIPRO refer to:
   * J. Kohn, N. Gildemeister, S. Grimme, D. Fazzi, A. Hansen,
     J. Chem. Phys., 2023, just accepted.
   
   for PTB refer to:
   * S. Grimme, M. Mueller, A. Hansen, J. Chem. Phys., 2023, 158, 124111.
     DOI: 10.1063/5.0137838
   
   with help from (in alphabetical order)
   P. Atkinson, C. Bannwarth, F. Bohle, G. Brandenburg, E. Caldeweyher
   M. Checinski, S. Dohm, S. Ehlert, S. Ehrlich, I. Gerasimov, C. Hölzer
   A. Katbashev, J. Kohn, J. Koopman, C. Lavigne, S. Lehtola, F. März, M. Müller,
   F. Musil, H. Neugebauer, J. Pisarek, C. Plett, P. Pracht, F. Pultar,
   J. Seibert, P. Shushkov, S. Spicher, M. Stahn, M. Steiner, T. Strunk,
   J. Stückrath, T. Rose, and J. Unsleber
   
 * started run on 2024/11/01 at 10:54:11.173     
   ID    Z sym.   atoms
    1    6 C      1-21, 24-26, 31, 34, 37-39, 61-81, 84-86, 91, 94, 97-99
    2    8 O      22, 23, 27-30, 32, 33, 35, 36, 82, 83, 87-90, 92, 93, 95, 96
    3    1 H      40-60, 100-120

           -------------------------------------------------
          |                Calculation Setup                |
           -------------------------------------------------

          program call               : xtb opt_radical_stacked_dimer_Katherine3.mol --dipro --chrg 0 --uhf 2
          coordinate file            : opt_radical_stacked_dimer_Katherine3.mol
          omp threads                :                     4


molecular fragmentation (1/2 indicates fragments):
111111111111111111111111111111111111111111111111111111111111222222222222
222222222222222222222222222222222222222222222222
# atoms in fragment 1/2:    60    60
 fragment masses (1/2) :      529.47      529.47
CMA distance (Bohr)    :   8.571
constraining FC (au)   :  0.0500

           -------------------------------------------------
          |                 G F N 2 - x T B                 |
           -------------------------------------------------

        Reference                      10.1021/acs.jctc.8b01176
      * Hamiltonian:
        H0-scaling (s, p, d)           1.850000    2.230000    2.230000
        zeta-weighting                 0.500000
      * Dispersion:
        s8                             2.700000
        a1                             0.520000
        a2                             5.000000
        s9                             5.000000
      * Repulsion:
        kExp                           1.500000    1.000000
        rExp                           1.000000
      * Coulomb:
        alpha                          2.000000
        third order                    shell-resolved
        anisotropic                    true
        a3                             3.000000
        a5                             4.000000
        cn-shift                       1.200000
        cn-exp                         4.000000
        max-rad                        5.000000

           -------------------------------------------------
          |                    D I P R O                    |
           -------------------------------------------------
Calculation for dimer 
--------------------- 
  
charge of dimer :   0.
unpaired e- of dimer :  2
repulsion energy          2.8512136087096E+00 Eh
dispersion energy         1.2458277225033E-02 Eh
number of electrons       3.9400000000000E+02 e
integral cutoff           1.7347787504999E+01 bohr

------------------------------------------------------------
  cycle        total energy    energy error   density error
------------------------------------------------------------
      1     -225.2036629768  -2.2806733E+02   2.1255472E-01
      2     -226.9168275384  -1.7131646E+00   8.8372208E-02
      3     -226.9615892733  -4.4761735E-02   4.9942969E-02
      4     -226.9575051308   4.0841425E-03   2.4666403E-02
      5     -227.0478939435  -9.0388813E-02   9.1423444E-03
      6     -227.0605151279  -1.2621184E-02   3.8882602E-03
      7     -227.0613365165  -8.2138861E-04   1.7860817E-03
      8     -227.0616069343  -2.7041781E-04   6.0756199E-04
      9     -227.0616296923  -2.2757973E-05   3.5912377E-04
     10     -227.0616414829  -1.1790577E-05   1.6303536E-04
     11     -227.0616429681  -1.4852105E-06   8.1609225E-05
     12     -227.0616439388  -9.7073064E-07   3.2895697E-05
     13     -227.0616440307  -9.1866411E-08   1.7233833E-05
------------------------------------------------------------

electronic energy        -2.2992531591661E+02 Eh
total energy             -2.2706164403068E+02 Eh

 total:                                   1.598 sec
 - repulsion                              0.000 sec (  0%)
 - dispersion                             0.008 sec (  0%)
 - coulomb                                0.003 sec (  0%)
 - hamiltonian                            0.016 sec (  0%)
 - scc                                    1.570 sec ( 98%)

Found 2 fragments!
Fragment 1:  1-60
Fragment 2:  61-120

[Info] Fragment spin read from .UHFfrag
Calculation for fragment 1
 ------------------------------
   
charge of fragment :   0.
unpaired e- of fragment :  1
------------------------------------------------------------
  cycle        total energy    energy error   density error
------------------------------------------------------------
      1     -112.5738661066  -1.1399874E+02   2.0978911E-01
      2     -113.4443973968  -8.7053129E-01   8.5870463E-02
      3     -113.4768590337  -3.2461637E-02   4.7504507E-02
      4     -113.4882764348  -1.1417401E-02   1.9406445E-02
      5     -113.5051177418  -1.6841307E-02   7.3386499E-03
      6     -113.5078864617  -2.7687200E-03   3.6200505E-03
      7     -113.5083623869  -4.7592521E-04   1.6164805E-03
      8     -113.5084992072  -1.3682023E-04   4.6634069E-04
      9     -113.5085016891  -2.4819442E-06   2.7744725E-04
     10     -113.5085046015  -2.9123470E-06   1.0998256E-04
     11     -113.5085048752  -2.7373392E-07   4.1296671E-05
     12     -113.5085049295  -5.4315521E-08   2.0657525E-05
     13     -113.5085049331  -3.5561243E-09   9.6473787E-06
------------------------------------------------------------

 total:                                   0.283 sec
Calculation for fragment 2
 ------------------------------
   
charge of fragment :   0.
unpaired e- of fragment :  1
------------------------------------------------------------
  cycle        total energy    energy error   density error
------------------------------------------------------------
      1     -112.5774359992  -1.1400394E+02   2.1547055E-01
      2     -113.4425801468  -8.6514415E-01   9.0177077E-02
      3     -113.4739844741  -3.1404327E-02   4.9393537E-02
      4     -113.4864393096  -1.2454836E-02   2.0133608E-02
      5     -113.5036549349  -1.7215625E-02   7.4741688E-03
      6     -113.5064650695  -2.8101346E-03   3.6095654E-03
      7     -113.5069054448  -4.4037528E-04   1.6232357E-03
      8     -113.5070374179  -1.3197310E-04   4.7738919E-04
      9     -113.5070397520  -2.3341962E-06   2.8500200E-04
     10     -113.5070428111  -3.0590364E-06   1.1482451E-04
     11     -113.5070430876  -2.7654477E-07   4.1388107E-05
     12     -113.5070431429  -5.5272167E-08   2.0763987E-05
     13     -113.5070431463  -3.4346641E-09   1.0170396E-05
------------------------------------------------------------

 total:                                   0.295 sec
   
   ::::::::::::::::::::::::::::::::::::::::::::::
   ::     D I P R O      C O U P L I N G S     ::
   ::::::::::::::::::::::::::::::::::::::::::::::
   
energy threshhold for near-degenerate orbitals near HOMO and LUMO considered for DIPRO:  0.100 eV
no. of orbitals within energy window of frag 1         3
no. of orbitals within energy window of frag 2         3
   
  Fragment 1 SOMO-1  Fragment 2 SOMO-1
--------------------------------------
E_mon(orb) frag1 frag2             -10.948   -10.713 eV
J(AB):                0.002 eV
S(AB):            -0.00010089 Eh
|J(AB,eff)|:            0.001 eV
   
  Fragment 1 SOMO-1  Fragment 2 SOMO 
--------------------------------------
E_mon(orb) frag1 frag2             -10.948   -10.647 eV
J(AB):                0.014 eV
S(AB):            -0.00057413 Eh
|J(AB,eff)|:            0.008 eV
   
  Fragment 1 SOMO-1  Fragment 2 LUMO 
--------------------------------------
E_mon(orb) frag1 frag2             -10.948    -9.900 eV
J(AB):                0.003 eV
S(AB):            -0.00013567 Eh
|J(AB,eff)|:            0.002 eV
   
  Fragment 1 SOMO   Fragment 2 SOMO-1
--------------------------------------
E_mon(orb) frag1 frag2             -10.904   -10.713 eV
J(AB):                0.000 eV
S(AB):             0.00000151 Eh
|J(AB,eff)|:            0.000 eV
   
  Fragment 1 SOMO   Fragment 2 SOMO 
--------------------------------------
E_mon(orb) frag1 frag2             -10.904   -10.647 eV
J(AB):                0.007 eV
S(AB):            -0.00025904 Eh
|J(AB,eff)|:            0.004 eV
   
  Fragment 1 SOMO   Fragment 2 LUMO 
--------------------------------------
E_mon(orb) frag1 frag2             -10.904    -9.900 eV
J(AB):                0.026 eV
S(AB):            -0.00110145 Eh
|J(AB,eff)|:            0.015 eV
   
  Fragment 1 LUMO   Fragment 2 SOMO-1
--------------------------------------
E_mon(orb) frag1 frag2             -10.144   -10.713 eV
J(AB):                0.043 eV
S(AB):            -0.00169465 Eh
|J(AB,eff)|:            0.025 eV
   
  Fragment 1 LUMO   Fragment 2 SOMO 
--------------------------------------
E_mon(orb) frag1 frag2             -10.144   -10.647 eV
J(AB):                0.008 eV
S(AB):            -0.00025909 Eh
|J(AB,eff)|:            0.005 eV
   
  Fragment 1 LUMO   Fragment 2 LUMO 
--------------------------------------
E_mon(orb) frag1 frag2             -10.144    -9.900 eV
J(AB):               -0.162 eV
S(AB):             0.00670749 Eh
|J(AB,eff)|:            0.095 eV
   
..............................................................................
:  total |J(AB,eff)| for hole transport (occ. MOs) :               0.009 eV  :
:  total |J(AB,eff)| for charge transport (unocc. MOs) :           0.095 eV  :
:  total |J(AB,eff)| for charge transfer (CT) :                    0.029 eV  :
..............................................................................
  
 Please remember, DIPRO is not available for restart!
   
normal termination of dipro
----------------------------------------------------------
 * finished run on 2024/11/01 at 10:54:13.430     
----------------------------------------------------------
 dipro:
 * wall-time:     0 d,  0 h,  0 min,  2.218 sec
 *  cpu-time:     0 d,  0 h,  0 min,  3.429 sec
 * ratio c/w:     1.546 speedup
normal termination of xtb
Note: The following floating-point exceptions are signalling: IEEE_UNDERFLOW_FLAG

