      -----------------------------------------------------------      
     |                   =====================                   |     
     |                           x T B                           |     
     |                   =====================                   |     
     |                         S. Grimme                         |     
     |          Mulliken Center for Theoretical Chemistry        |     
     |                    University of Bonn                     |     
      -----------------------------------------------------------      

   * xtb version 6.6.1 (8d0f1dd) compiled by 'runner@Mac-1690902418499.local' on 2023-08-01

   xtb is free software: you can redistribute it and/or modify it under
   the terms of the GNU Lesser General Public License as published by
   the Free Software Foundation, either version 3 of the License, or
   (at your option) any later version.
   
   xtb is distributed in the hope that it will be useful,
   but WITHOUT ANY WARRANTY; without even the implied warranty of
   MERCHANTABILITY or FITNESS FOR A PARTICULAR PURPOSE.  See the
   GNU Lesser General Public License for more details.
   
   Cite this work as:
   * C. Bannwarth, E. Caldeweyher, S. Ehlert, A. Hansen, P. Pracht,
     J. Seibert, S. Spicher, S. Grimme, WIREs Comput. Mol. Sci., 2020, 11,
     e01493. DOI: 10.1002/wcms.1493
   
   for GFN2-xTB:
   * C. Bannwarth, S. Ehlert and S. Grimme., J. Chem. Theory Comput., 2019,
     15, 1652-1671. DOI: 10.1021/acs.jctc.8b01176
   for GFN1-xTB:
   * S. Grimme, C. Bannwarth, P. Shushkov, J. Chem. Theory Comput., 2017,
     13, 1989-2009. DOI: 10.1021/acs.jctc.7b00118
   for GFN0-xTB:
   * P. Pracht, E. Caldeweyher, S. Ehlert, S. Grimme, ChemRxiv, 2019, preprint.
     DOI: 10.26434/chemrxiv.8326202.v1
   for GFN-FF:
   * S. Spicher and S. Grimme, Angew. Chem. Int. Ed., 2020, 59, 15665-15673.
     DOI: 10.1002/anie.202004239
   
   for ALPB and GBSA implicit solvation:
   * S. Ehlert, M. Stahn, S. Spicher, S. Grimme, J. Chem. Theory Comput.,
     2021, 17, 4250-4261. DOI: 10.1021/acs.jctc.1c00471
   
   for DFT-D4:
   * E. Caldeweyher, C. Bannwarth and S. Grimme, J. Chem. Phys., 2017,
     147, 034112. DOI: 10.1063/1.4993215
   * E. Caldeweyher, S. Ehlert, A. Hansen, H. Neugebauer, S. Spicher,
     C. Bannwarth and S. Grimme, J. Chem. Phys., 2019, 150, 154122.
     DOI: 10.1063/1.5090222
   * E. Caldeweyher, J.-M. Mewes, S. Ehlert and S. Grimme, Phys. Chem. Chem. Phys.
     2020, 22, 8499-8512. DOI: 10.1039/D0CP00502A
   
   for sTDA-xTB:
   * S. Grimme and C. Bannwarth, J. Chem. Phys., 2016, 145, 054103.
     DOI: 10.1063/1.4959605
   
   in the mass-spec context:
   * V. Asgeirsson, C. Bauer and S. Grimme, Chem. Sci., 2017, 8, 4879.
     DOI: 10.1039/c7sc00601b
   * J. Koopman and S. Grimme, ACS Omega 2019, 4, 12, 15120-15133.
     DOI: 10.1021/acsomega.9b02011
   
   for metadynamics refer to:
   * S. Grimme, J. Chem. Theory Comput., 2019, 155, 2847-2862
     DOI: 10.1021/acs.jctc.9b00143
   
   for SPH calculations refer to:
   * S. Spicher and S. Grimme, J. Chem. Theory Comput., 2021, 17, 1701-1714
     DOI: 10.1021/acs.jctc.0c01306
   
   with help from (in alphabetical order)
   P. Atkinson, C. Bannwarth, F. Bohle, G. Brandenburg, E. Caldeweyher
   M. Checinski, S. Dohm, S. Ehlert, S. Ehrlich, I. Gerasimov, C. Hölzer
   A. Katbashev, J. Koopman, C. Lavigne, S. Lehtola, F. März, M. Müller,
   F. Musil, H. Neugebauer, J. Pisarek, C. Plett, P. Pracht, F. Pultar,
   J. Seibert, P. Shushkov, S. Spicher, M. Stahn, M. Steiner, T. Strunk,
   J. Stückrath, T. Rose, and J. Unsleber
   
 * started run on 2024/11/12 at 09:12:17.637     

           -------------------------------------------------
          |                Calculation Setup                |
           -------------------------------------------------

          program call               : xtb opt_cation_Katherine3.mol --gfn2 --sp --chrg 0 --uhf 1
          coordinate file            : opt_cation_Katherine3.mol
          omp threads                :                     8

   ID    Z sym.   atoms
    1    6 C      1-21, 26-38, 75
    2    8 O      22-25
    3    1 H      39-74, 76-78
########################################################################
[WARNING] Please study the warnings concerning your input carefully
-1- prog_main: Charge in sdf/mol input was overwritten
########################################################################

           -------------------------------------------------
          |                 G F N 2 - x T B                 |
           -------------------------------------------------

        Reference                      10.1021/acs.jctc.8b01176
      * Hamiltonian:
        H0-scaling (s, p, d)           1.850000    2.230000    2.230000
        zeta-weighting                 0.500000
      * Dispersion:
        s8                             2.700000
        a1                             0.520000
        a2                             5.000000
        s9                             5.000000
      * Repulsion:
        kExp                           1.500000    1.000000
        rExp                           1.000000
      * Coulomb:
        alpha                          2.000000
        third order                    shell-resolved
        anisotropic                    true
        a3                             3.000000
        a5                             4.000000
        cn-shift                       1.200000
        cn-exp                         4.000000
        max-rad                        5.000000

q/qsh data taken from xtbrestart
CAMM data taken from xtbrestart

          ...................................................
          :                      SETUP                      :
          :.................................................:
          :  # basis functions                 195          :
          :  # atomic orbitals                 195          :
          :  # shells                          117          :
          :  # electrons                       203          :
          :  max. iterations                   250          :
          :  Hamiltonian                  GFN2-xTB          :
          :  restarted?                       true          :
          :  GBSA solvation                  false          :
          :  PC potential                    false          :
          :  electronic temp.          300.0000000     K    :
          :  accuracy                    1.0000000          :
          :  -> integral cutoff          0.2500000E+02      :
          :  -> integral neglect         0.1000000E-07      :
          :  -> SCF convergence          0.1000000E-05 Eh   :
          :  -> wf. convergence          0.1000000E-03 e    :
          :  Broyden damping             0.4000000          :
          ...................................................

 iter      E             dE          RMSdq      gap      omega  full diag
   1   -112.8133718 -0.112813E+03  0.498E-01    1.55       0.0  T
   2   -112.8255207 -0.121490E-01  0.402E-01    1.28       1.0  T
   3   -112.8344195 -0.889882E-02  0.230E-01    1.44       1.0  T
   4   -112.8348936 -0.474026E-03  0.159E-01    1.42       1.0  T
   5   -112.8353066 -0.413017E-03  0.642E-02    1.43       1.0  T
   6   -112.8355073 -0.200686E-03  0.200E-02    1.44       1.0  T
   7   -112.8355210 -0.137057E-04  0.695E-03    1.44       1.6  T
   8   -112.8355211 -0.119604E-06  0.260E-03    1.44       4.4  T
   9   -112.8355213 -0.242386E-06  0.817E-04    1.44      13.9  T
  10   -112.8355214 -0.966887E-08  0.404E-04    1.44      28.0  T

   *** convergence criteria satisfied after 10 iterations ***

         #    Occupation            Energy/Eh            Energy/eV
      -------------------------------------------------------------
         1        2.0000           -0.7284265             -19.8215
       ...           ...                  ...                  ...
        96        2.0000           -0.3993169             -10.8660
        97        2.0000           -0.3952848             -10.7562
        98        2.0000           -0.3880664             -10.5598
        99        2.0000           -0.3785629             -10.3012
       100        2.0000           -0.3727737             -10.1437
       101        2.0000           -0.3688578             -10.0371
       102        1.0000           -0.3317918              -9.0285 (HOMO)
       103                         -0.2790332              -7.5929 (LUMO)
       104                         -0.2464109              -6.7052
       105                         -0.2296585              -6.2493
       106                         -0.2260549              -6.1513
       107                         -0.2129365              -5.7943
       ...                                ...                  ...
       195                          0.7579397              20.6246
      -------------------------------------------------------------
                  HL-Gap            0.0527586 Eh            1.4356 eV
             Fermi-level           -0.3278648 Eh           -8.9217 eV

 SCC (total)                   0 d,  0 h,  0 min,  0.243 sec
 SCC setup                      ...        0 min,  0.000 sec (  0.074%)
 Dispersion                     ...        0 min,  0.001 sec (  0.257%)
 classical contributions        ...        0 min,  0.000 sec (  0.060%)
 integral evaluation            ...        0 min,  0.003 sec (  1.163%)
 iterations                     ...        0 min,  0.214 sec ( 88.131%)
 molecular gradient             ...        0 min,  0.017 sec (  7.107%)
 printout                       ...        0 min,  0.008 sec (  3.203%)

         :::::::::::::::::::::::::::::::::::::::::::::::::::::
         ::                     SUMMARY                     ::
         :::::::::::::::::::::::::::::::::::::::::::::::::::::
         :: total energy            -111.154897489861 Eh    ::
         :: gradient norm              0.060923595420 Eh/a0 ::
         :: HOMO-LUMO gap              1.435634266572 eV    ::
         ::.................................................::
         :: SCC energy              -112.835521351495 Eh    ::
         :: -> isotropic ES            0.091536674683 Eh    ::
         :: -> anisotropic ES          0.016178114756 Eh    ::
         :: -> anisotropic XC          0.041006036307 Eh    ::
         :: -> dispersion             -0.097219153807 Eh    ::
         :: repulsion energy           1.679712595973 Eh    ::
         :: add. restraining           0.000000000000 Eh    ::
         :: total charge              -0.000053717942 e     ::
         :::::::::::::::::::::::::::::::::::::::::::::::::::::

           -------------------------------------------------
          |                Property Printout                |
           -------------------------------------------------

    * Orbital Energies and Occupations

         #    Occupation            Energy/Eh            Energy/eV
      -------------------------------------------------------------
         1        2.0000           -0.7284265             -19.8215
       ...           ...                  ...                  ...
        90        2.0000           -0.4239956             -11.5375
        91        2.0000           -0.4237317             -11.5303
        92        2.0000           -0.4208554             -11.4521
        93        2.0000           -0.4185943             -11.3905
        94        2.0000           -0.4121951             -11.2164
        95        2.0000           -0.4044465             -11.0055
        96        2.0000           -0.3993169             -10.8660
        97        2.0000           -0.3952848             -10.7562
        98        2.0000           -0.3880664             -10.5598
        99        2.0000           -0.3785629             -10.3012
       100        2.0000           -0.3727737             -10.1437
       101        2.0000           -0.3688578             -10.0371
       102        1.0000           -0.3317918              -9.0285 (HOMO)
       103                         -0.2790332              -7.5929 (LUMO)
       104                         -0.2464109              -6.7052
       105                         -0.2296585              -6.2493
       106                         -0.2260549              -6.1513
       107                         -0.2129365              -5.7943
       108                         -0.1817464              -4.9456
       109                         -0.1769992              -4.8164
       110                         -0.1528791              -4.1601
       111                         -0.0965500              -2.6273
       112                         -0.0860154              -2.3406
       113                         -0.0459575              -1.2506
       ...                                ...                  ...
       195                          0.7579397              20.6246
      -------------------------------------------------------------
                  HL-Gap            0.0527586 Eh            1.4356 eV
             Fermi-level           -0.3278648 Eh           -8.9217 eV

     #   Z          covCN         q      C6AA      α(0)
     1   6 C        2.921    -0.074    29.849     8.959
     2   6 C        2.859     0.152    24.705     8.147
     3   6 C        2.974    -0.008    28.208     8.712
     4   6 C        2.977    -0.024    28.601     8.772
     5   6 C        2.927    -0.042    29.043     8.838
     6   6 C        2.971     0.011    27.758     8.642
     7   6 C        2.972     0.016    27.645     8.624
     8   6 C        2.990     0.002    27.971     8.675
     9   6 C        2.977    -0.022    28.550     8.765
    10   6 C        2.833     0.219    23.380     7.924
    11   6 C        2.974    -0.008    28.205     8.711
    12   6 C        2.976    -0.024    28.599     8.772
    13   6 C        2.833     0.220    23.377     7.923
    14   6 C        2.976    -0.022    28.549     8.765
    15   6 C        2.928    -0.021    28.538     8.761
    16   6 C        2.972     0.012    27.747     8.640
    17   6 C        2.926    -0.026    28.651     8.778
    18   6 C        2.859     0.152    24.701     8.146
    19   6 C        2.921    -0.074    29.848     8.959
    20   6 C        2.971     0.011    27.756     8.642
    21   6 C        2.927    -0.042    29.039     8.837
    22   8 O        1.705    -0.248    18.116     5.747
    23   8 O        1.705    -0.249    18.129     5.749
    24   8 O        0.858    -0.391    21.500     6.217
    25   8 O        0.858    -0.392    21.524     6.220
    26   6 C        3.642     0.037    20.294     6.477
    27   6 C        3.642     0.037    20.295     6.477
    28   6 C        3.903     0.028    20.052     6.365
    29   6 C        3.761    -0.111    22.676     6.788
    30   6 C        3.762    -0.105    22.559     6.771
    31   6 C        3.903     0.028    20.052     6.365
    32   6 C        3.762    -0.105    22.557     6.770
    33   6 C        3.761    -0.111    22.677     6.788
    34   6 C        3.761    -0.106    22.565     6.772
    35   6 C        3.903     0.027    20.061     6.367
    36   6 C        3.761    -0.110    22.652     6.785
    37   6 C        3.762    -0.107    22.598     6.776
    38   6 C        3.762    -0.108    22.600     6.777
    39   1 H        0.925     0.035     2.518     2.482
    40   1 H        0.925     0.042     2.420     2.433
    41   1 H        0.925     0.040     2.450     2.448
    42   1 H        0.925     0.038     2.473     2.459
    43   1 H        0.925     0.040     2.442     2.444
    44   1 H        0.925     0.039     2.458     2.452
    45   1 H        0.925     0.040     2.450     2.448
    46   1 H        0.925     0.041     2.435     2.440
    47   1 H        0.925     0.035     2.513     2.479
    48   1 H        0.926     0.062     2.180     2.309
    49   1 H        0.926     0.068     2.108     2.270
    50   1 H        0.926     0.070     2.088     2.260
    51   1 H        0.926     0.037     2.489     2.467
    52   1 H        0.925     0.038     2.477     2.461
    53   1 H        0.925     0.042     2.422     2.434
    54   1 H        0.925     0.043     2.415     2.430
    55   1 H        0.925     0.033     2.538     2.491
    56   1 H        0.925     0.040     2.451     2.448
    57   1 H        0.925     0.036     2.504     2.475
    58   1 H        0.925     0.064     2.149     2.293
    59   1 H        0.924     0.046     2.371     2.408
    60   1 H        0.924     0.043     2.411     2.428
    61   1 H        0.925     0.064     2.150     2.293
    62   1 H        0.924     0.046     2.370     2.407
    63   1 H        0.924     0.043     2.414     2.430
    64   1 H        0.926     0.037     2.490     2.468
    65   1 H        0.926     0.070     2.089     2.260
    66   1 H        0.925     0.040     2.449     2.447
    67   1 H        0.925     0.034     2.534     2.489
    68   1 H        0.925     0.036     2.497     2.471
    69   1 H        0.925     0.043     2.413     2.429
    70   1 H        0.925     0.038     2.476     2.461
    71   1 H        0.925     0.042     2.424     2.435
    72   1 H        0.925     0.040     2.449     2.447
    73   1 H        0.925     0.036     2.500     2.473
    74   1 H        0.925     0.033     2.539     2.492
    75   6 C        3.762    -0.106    22.563     6.771
    76   1 H        0.925     0.040     2.446     2.446
    77   1 H        0.925     0.034     2.535     2.490
    78   1 H        0.925     0.037     2.493     2.469

 Mol. C6AA /au·bohr⁶  :      64230.250430
 Mol. C8AA /au·bohr⁸  :    1518956.081417
 Mol. α(0) /au        :        392.640760


Wiberg/Mayer (AO) data.
largest (>0.10) Wiberg bond orders for each atom

 ---------------------------------------------------------------------------
     #   Z sym  total        # sym  WBO       # sym  WBO       # sym  WBO
 ---------------------------------------------------------------------------
     1   6 C    3.979 --     2 C    1.393     6 C    1.392    64 H    0.958
     2   6 C    3.916 --     1 C    1.393     3 C    1.233    23 O    1.095
     3   6 C    3.980 --     4 C    1.276     2 C    1.233     7 C    1.209
     4   6 C    3.974 --     5 C    1.415     3 C    1.276    10 C    1.037
     5   6 C    3.976 --     4 C    1.415     6 C    1.386    65 H    0.957
     6   6 C    3.956 --     1 C    1.392     5 C    1.386    31 C    0.990
     7   6 C    3.927 --    11 C    1.212     3 C    1.209     8 C    1.191
     8   6 C    3.987 --     9 C    1.285    14 C    1.276     7 C    1.191
     9   6 C    3.979 --    17 C    1.402     8 C    1.285    10 C    1.040
    10   6 C    3.935 --    24 O    1.739     9 C    1.040     4 C    1.037
    11   6 C    3.980 --    12 C    1.275    18 C    1.231     7 C    1.212
    12   6 C    3.974 --    21 C    1.415    11 C    1.275    13 C    1.038
    13   6 C    3.935 --    25 O    1.737    14 C    1.041    12 C    1.038
    14   6 C    3.980 --    15 C    1.416     8 C    1.276    13 C    1.041
    15   6 C    3.983 --    14 C    1.416    16 C    1.387    48 H    0.959
    16   6 C    3.964 --    17 C    1.401    15 C    1.387    35 C    0.990
    17   6 C    3.982 --     9 C    1.402    16 C    1.401    49 H    0.959
    18   6 C    3.916 --    19 C    1.393    11 C    1.231    22 O    1.096
    19   6 C    3.979 --    18 C    1.393    20 C    1.392    51 H    0.957
    20   6 C    3.956 --    19 C    1.392    21 C    1.386    28 C    0.990
    21   6 C    3.976 --    12 C    1.415    20 C    1.386    50 H    0.957
    22   8 O    2.271 --    18 C    1.096    26 C    0.978
    23   8 O    2.270 --     2 C    1.095    27 C    0.978
    24   8 O    2.014 --    10 C    1.739
    25   8 O    2.014 --    13 C    1.737
    26   6 C    3.943 --    58 H    0.980    22 O    0.978    59 H    0.976
                            60 H    0.975
    27   6 C    3.943 --    61 H    0.980    23 O    0.978    62 H    0.976
                            63 H    0.975
    28   6 C    3.991 --    29 C    1.000    20 C    0.990    30 C    0.984
                            75 C    0.983
    29   6 C    3.995 --    28 C    1.000    54 H    0.984    52 H    0.984
                            53 H    0.984
    30   6 C    3.993 --    57 H    0.987    28 C    0.984    56 H    0.984
                            55 H    0.984
    31   6 C    3.991 --    33 C    1.000     6 C    0.990    34 C    0.984
                            32 C    0.983
    32   6 C    3.993 --    73 H    0.987    74 H    0.984    72 H    0.984
                            31 C    0.983
    33   6 C    3.995 --    31 C    1.000    70 H    0.984    71 H    0.984
                            69 H    0.984
    34   6 C    3.993 --    68 H    0.987    66 H    0.984    31 C    0.984
                            67 H    0.984
    35   6 C    3.990 --    36 C    1.000    16 C    0.990    38 C    0.984
                            37 C    0.983
    36   6 C    3.995 --    35 C    1.000    42 H    0.984    44 H    0.984
                            43 H    0.984
    37   6 C    3.992 --    39 H    0.987    41 H    0.984    40 H    0.983
                            35 C    0.983
    38   6 C    3.992 --    47 H    0.987    45 H    0.984    35 C    0.984
                            46 H    0.983
    39   1 H    0.999 --    37 C    0.987
    40   1 H    0.998 --    37 C    0.983
    41   1 H    0.997 --    37 C    0.984
    42   1 H    0.998 --    36 C    0.984
    43   1 H    0.998 --    36 C    0.984
    44   1 H    0.998 --    36 C    0.984
    45   1 H    0.997 --    38 C    0.984
    46   1 H    0.998 --    38 C    0.983
    47   1 H    0.999 --    38 C    0.987
    48   1 H    0.995 --    15 C    0.959
    49   1 H    0.994 --    17 C    0.959
    50   1 H    0.994 --    21 C    0.957
    51   1 H    0.998 --    19 C    0.957
    52   1 H    0.998 --    29 C    0.984
    53   1 H    0.998 --    29 C    0.984
    54   1 H    0.998 --    29 C    0.984
    55   1 H    0.999 --    30 C    0.984
    56   1 H    0.997 --    30 C    0.984
    57   1 H    0.999 --    30 C    0.987
    58   1 H    0.995 --    26 C    0.980
    59   1 H    0.997 --    26 C    0.976
    60   1 H    0.997 --    26 C    0.975
    61   1 H    0.995 --    27 C    0.980
    62   1 H    0.997 --    27 C    0.976
    63   1 H    0.997 --    27 C    0.975
    64   1 H    0.998 --     1 C    0.958
    65   1 H    0.994 --     5 C    0.957
    66   1 H    0.997 --    34 C    0.984
    67   1 H    0.999 --    34 C    0.984
    68   1 H    0.999 --    34 C    0.987
    69   1 H    0.998 --    33 C    0.984
    70   1 H    0.998 --    33 C    0.984
    71   1 H    0.998 --    33 C    0.984
    72   1 H    0.997 --    32 C    0.984
    73   1 H    0.999 --    32 C    0.987
    74   1 H    0.999 --    32 C    0.984
    75   6 C    3.993 --    78 H    0.987    76 H    0.984    77 H    0.984
                            28 C    0.983
    76   1 H    0.997 --    75 C    0.984
    77   1 H    0.999 --    75 C    0.984
    78   1 H    0.999 --    75 C    0.987
 ---------------------------------------------------------------------------

Topologies differ in bond orders
Writing corrected topology to xtbtopo.mol

molecular dipole:
                 x           y           z       tot (Debye)
 q only:       -2.033       1.103       0.267
   full:       -2.478       1.339       0.327       7.208
molecular quadrupole (traceless):
                xx          xy          yy          xz          yz          zz
 q only:       18.014      -8.374     -10.273      -8.393     -11.279      -7.741
  q+dip:       22.870      -9.532     -10.788     -10.370     -13.049     -12.082
   full:       19.577     -10.283     -14.371     -10.225     -15.593      -5.206


           -------------------------------------------------
          | TOTAL ENERGY             -111.154897489861 Eh   |
          | GRADIENT NORM               0.060923595420 Eh/α |
          | HOMO-LUMO GAP               1.435634266572 eV   |
           -------------------------------------------------
########################################################################
[WARNING] Runtime exception occurred
-2- restart_readRestart: Multiplicity missmatch in restart file.
-1- restart_readRestart: Number of electron missmatch in restart file.
########################################################################

------------------------------------------------------------------------
 * finished run on 2024/11/12 at 09:12:17.891     
------------------------------------------------------------------------
 total:
 * wall-time:     0 d,  0 h,  0 min,  0.252 sec
 *  cpu-time:     0 d,  0 h,  0 min,  0.789 sec
Note: The following floating-point exceptions are signalling: IEEE_UNDERFLOW_FLAG
normal termination of xtb
 * ratio c/w:     3.125 speedup
 SCF:
 * wall-time:     0 d,  0 h,  0 min,  0.243 sec
 *  cpu-time:     0 d,  0 h,  0 min,  0.771 sec
 * ratio c/w:     3.174 speedup

