      -----------------------------------------------------------      
     |                   =====================                   |     
     |                           x T B                           |     
     |                   =====================                   |     
     |                         S. Grimme                         |     
     |          Mulliken Center for Theoretical Chemistry        |     
     |                    University of Bonn                     |     
      -----------------------------------------------------------      

   * xtb version 6.6.1 (8d0f1dd) compiled by 'runner@Mac-1690902418499.local' on 2023-08-01

   xtb is free software: you can redistribute it and/or modify it under
   the terms of the GNU Lesser General Public License as published by
   the Free Software Foundation, either version 3 of the License, or
   (at your option) any later version.
   
   xtb is distributed in the hope that it will be useful,
   but WITHOUT ANY WARRANTY; without even the implied warranty of
   MERCHANTABILITY or FITNESS FOR A PARTICULAR PURPOSE.  See the
   GNU Lesser General Public License for more details.
   
   Cite this work as:
   * C. Bannwarth, E. Caldeweyher, S. Ehlert, A. Hansen, P. Pracht,
     J. Seibert, S. Spicher, S. Grimme, WIREs Comput. Mol. Sci., 2020, 11,
     e01493. DOI: 10.1002/wcms.1493
   
   for GFN2-xTB:
   * C. Bannwarth, S. Ehlert and S. Grimme., J. Chem. Theory Comput., 2019,
     15, 1652-1671. DOI: 10.1021/acs.jctc.8b01176
   for GFN1-xTB:
   * S. Grimme, C. Bannwarth, P. Shushkov, J. Chem. Theory Comput., 2017,
     13, 1989-2009. DOI: 10.1021/acs.jctc.7b00118
   for GFN0-xTB:
   * P. Pracht, E. Caldeweyher, S. Ehlert, S. Grimme, ChemRxiv, 2019, preprint.
     DOI: 10.26434/chemrxiv.8326202.v1
   for GFN-FF:
   * S. Spicher and S. Grimme, Angew. Chem. Int. Ed., 2020, 59, 15665-15673.
     DOI: 10.1002/anie.202004239
   
   for ALPB and GBSA implicit solvation:
   * S. Ehlert, M. Stahn, S. Spicher, S. Grimme, J. Chem. Theory Comput.,
     2021, 17, 4250-4261. DOI: 10.1021/acs.jctc.1c00471
   
   for DFT-D4:
   * E. Caldeweyher, C. Bannwarth and S. Grimme, J. Chem. Phys., 2017,
     147, 034112. DOI: 10.1063/1.4993215
   * E. Caldeweyher, S. Ehlert, A. Hansen, H. Neugebauer, S. Spicher,
     C. Bannwarth and S. Grimme, J. Chem. Phys., 2019, 150, 154122.
     DOI: 10.1063/1.5090222
   * E. Caldeweyher, J.-M. Mewes, S. Ehlert and S. Grimme, Phys. Chem. Chem. Phys.
     2020, 22, 8499-8512. DOI: 10.1039/D0CP00502A
   
   for sTDA-xTB:
   * S. Grimme and C. Bannwarth, J. Chem. Phys., 2016, 145, 054103.
     DOI: 10.1063/1.4959605
   
   in the mass-spec context:
   * V. Asgeirsson, C. Bauer and S. Grimme, Chem. Sci., 2017, 8, 4879.
     DOI: 10.1039/c7sc00601b
   * J. Koopman and S. Grimme, ACS Omega 2019, 4, 12, 15120-15133.
     DOI: 10.1021/acsomega.9b02011
   
   for metadynamics refer to:
   * S. Grimme, J. Chem. Theory Comput., 2019, 155, 2847-2862
     DOI: 10.1021/acs.jctc.9b00143
   
   for SPH calculations refer to:
   * S. Spicher and S. Grimme, J. Chem. Theory Comput., 2021, 17, 1701-1714
     DOI: 10.1021/acs.jctc.0c01306
   
   with help from (in alphabetical order)
   P. Atkinson, C. Bannwarth, F. Bohle, G. Brandenburg, E. Caldeweyher
   M. Checinski, S. Dohm, S. Ehlert, S. Ehrlich, I. Gerasimov, C. Hölzer
   A. Katbashev, J. Koopman, C. Lavigne, S. Lehtola, F. März, M. Müller,
   F. Musil, H. Neugebauer, J. Pisarek, C. Plett, P. Pracht, F. Pultar,
   J. Seibert, P. Shushkov, S. Spicher, M. Stahn, M. Steiner, T. Strunk,
   J. Stückrath, T. Rose, and J. Unsleber
   
 * started run on 2024/11/12 at 09:12:16.392     

           -------------------------------------------------
          |                Calculation Setup                |
           -------------------------------------------------

          program call               : xtb opt_anion_Katherine3.mol --gfn2 --sp --chrg 0 --uhf 1
          coordinate file            : opt_anion_Katherine3.mol
          omp threads                :                     8

   ID    Z sym.   atoms
    1    6 C      1-21, 26-38, 75
    2    8 O      22-25
    3    1 H      39-74, 76-78
########################################################################
[WARNING] Please study the warnings concerning your input carefully
-1- prog_main: Charge in sdf/mol input was overwritten
########################################################################

           -------------------------------------------------
          |                 G F N 2 - x T B                 |
           -------------------------------------------------

        Reference                      10.1021/acs.jctc.8b01176
      * Hamiltonian:
        H0-scaling (s, p, d)           1.850000    2.230000    2.230000
        zeta-weighting                 0.500000
      * Dispersion:
        s8                             2.700000
        a1                             0.520000
        a2                             5.000000
        s9                             5.000000
      * Repulsion:
        kExp                           1.500000    1.000000
        rExp                           1.000000
      * Coulomb:
        alpha                          2.000000
        third order                    shell-resolved
        anisotropic                    true
        a3                             3.000000
        a5                             4.000000
        cn-shift                       1.200000
        cn-exp                         4.000000
        max-rad                        5.000000

q/qsh data taken from xtbrestart
CAMM data taken from xtbrestart

          ...................................................
          :                      SETUP                      :
          :.................................................:
          :  # basis functions                 195          :
          :  # atomic orbitals                 195          :
          :  # shells                          117          :
          :  # electrons                       203          :
          :  max. iterations                   250          :
          :  Hamiltonian                  GFN2-xTB          :
          :  restarted?                       true          :
          :  GBSA solvation                  false          :
          :  PC potential                    false          :
          :  electronic temp.          300.0000000     K    :
          :  accuracy                    1.0000000          :
          :  -> integral cutoff          0.2500000E+02      :
          :  -> integral neglect         0.1000000E-07      :
          :  -> SCF convergence          0.1000000E-05 Eh   :
          :  -> wf. convergence          0.1000000E-03 e    :
          :  Broyden damping             0.4000000          :
          ...................................................

 iter      E             dE          RMSdq      gap      omega  full diag
   1   -112.8009302 -0.112801E+03  0.537E-01    1.36       0.0  T
   2   -112.8142989 -0.133686E-01  0.434E-01    1.61       1.0  T
   3   -112.8247913 -0.104925E-01  0.243E-01    1.46       1.0  T
   4   -112.8254081 -0.616797E-03  0.171E-01    1.48       1.0  T
   5   -112.8257979 -0.389779E-03  0.688E-02    1.47       1.0  T
   6   -112.8260728 -0.274854E-03  0.168E-02    1.47       1.0  T
   7   -112.8260811 -0.829551E-05  0.818E-03    1.47       1.4  T
   8   -112.8260826 -0.150495E-05  0.397E-03    1.47       2.8  T
   9   -112.8260831 -0.572999E-06  0.135E-03    1.47       8.4  T
  10   -112.8260832 -0.554463E-07  0.538E-04    1.47      21.0  T
  11   -112.8260832 -0.376693E-08  0.284E-04    1.47      39.9  T

   *** convergence criteria satisfied after 11 iterations ***

         #    Occupation            Energy/Eh            Energy/eV
      -------------------------------------------------------------
         1        2.0000           -0.7253485             -19.7377
       ...           ...                  ...                  ...
        96        2.0000           -0.4026001             -10.9553
        97        2.0000           -0.3989055             -10.8548
        98        2.0000           -0.3934344             -10.7059
        99        2.0000           -0.3833023             -10.4302
       100        2.0000           -0.3761808             -10.2364
       101        2.0000           -0.3729192             -10.1476
       102        1.0000           -0.3413344              -9.2882 (HOMO)
       103                         -0.2873633              -7.8196 (LUMO)
       104                         -0.2507834              -6.8242
       105                         -0.2340323              -6.3683
       106                         -0.2321380              -6.3168
       107                         -0.2167642              -5.8985
       ...                                ...                  ...
       195                          0.7249911              19.7280
      -------------------------------------------------------------
                  HL-Gap            0.0539710 Eh            1.4686 eV
             Fermi-level           -0.3357303 Eh           -9.1357 eV

 SCC (total)                   0 d,  0 h,  0 min,  0.301 sec
 SCC setup                      ...        0 min,  0.000 sec (  0.052%)
 Dispersion                     ...        0 min,  0.001 sec (  0.183%)
 classical contributions        ...        0 min,  0.000 sec (  0.048%)
 integral evaluation            ...        0 min,  0.003 sec (  0.867%)
 iterations                     ...        0 min,  0.281 sec ( 93.401%)
 molecular gradient             ...        0 min,  0.015 sec (  4.930%)
 printout                       ...        0 min,  0.002 sec (  0.517%)

         :::::::::::::::::::::::::::::::::::::::::::::::::::::
         ::                     SUMMARY                     ::
         :::::::::::::::::::::::::::::::::::::::::::::::::::::
         :: total energy            -111.155040407249 Eh    ::
         :: gradient norm              0.057825237715 Eh/a0 ::
         :: HOMO-LUMO gap              1.468626190640 eV    ::
         ::.................................................::
         :: SCC energy              -112.826083188466 Eh    ::
         :: -> isotropic ES            0.096847103802 Eh    ::
         :: -> anisotropic ES          0.014742392418 Eh    ::
         :: -> anisotropic XC          0.041219462817 Eh    ::
         :: -> dispersion             -0.097795047504 Eh    ::
         :: repulsion energy           1.670210271830 Eh    ::
         :: add. restraining           0.000000000000 Eh    ::
         :: total charge               0.000012052613 e     ::
         :::::::::::::::::::::::::::::::::::::::::::::::::::::

           -------------------------------------------------
          |                Property Printout                |
           -------------------------------------------------

    * Orbital Energies and Occupations

         #    Occupation            Energy/Eh            Energy/eV
      -------------------------------------------------------------
         1        2.0000           -0.7253485             -19.7377
       ...           ...                  ...                  ...
        90        2.0000           -0.4266235             -11.6090
        91        2.0000           -0.4262269             -11.5982
        92        2.0000           -0.4220942             -11.4858
        93        2.0000           -0.4204916             -11.4422
        94        2.0000           -0.4144077             -11.2766
        95        2.0000           -0.4074476             -11.0872
        96        2.0000           -0.4026001             -10.9553
        97        2.0000           -0.3989055             -10.8548
        98        2.0000           -0.3934344             -10.7059
        99        2.0000           -0.3833023             -10.4302
       100        2.0000           -0.3761808             -10.2364
       101        2.0000           -0.3729192             -10.1476
       102        1.0000           -0.3413344              -9.2882 (HOMO)
       103                         -0.2873633              -7.8196 (LUMO)
       104                         -0.2507834              -6.8242
       105                         -0.2340323              -6.3683
       106                         -0.2321380              -6.3168
       107                         -0.2167642              -5.8985
       108                         -0.1853009              -5.0423
       109                         -0.1774442              -4.8285
       110                         -0.1548621              -4.2140
       111                         -0.1024914              -2.7889
       112                         -0.0889270              -2.4198
       113                         -0.0450701              -1.2264
       ...                                ...                  ...
       195                          0.7249911              19.7280
      -------------------------------------------------------------
                  HL-Gap            0.0539710 Eh            1.4686 eV
             Fermi-level           -0.3357303 Eh           -9.1357 eV

     #   Z          covCN         q      C6AA      α(0)
     1   6 C        2.923    -0.070    29.738     8.943
     2   6 C        2.862     0.150    24.746     8.154
     3   6 C        2.979    -0.002    28.067     8.690
     4   6 C        2.982    -0.020    28.503     8.757
     5   6 C        2.929    -0.039    28.974     8.828
     6   6 C        2.970     0.014    27.703     8.634
     7   6 C        2.975     0.024    27.471     8.597
     8   6 C        2.994     0.002    27.979     8.677
     9   6 C        2.977    -0.018    28.454     8.750
    10   6 C        2.837     0.215    23.472     7.939
    11   6 C        2.979    -0.002    28.063     8.690
    12   6 C        2.982    -0.020    28.501     8.757
    13   6 C        2.837     0.215    23.464     7.938
    14   6 C        2.976    -0.018    28.456     8.750
    15   6 C        2.932    -0.019    28.481     8.752
    16   6 C        2.968     0.015    27.678     8.630
    17   6 C        2.929    -0.023    28.584     8.768
    18   6 C        2.862     0.150    24.749     8.154
    19   6 C        2.924    -0.070    29.735     8.942
    20   6 C        2.970     0.014    27.703     8.633
    21   6 C        2.929    -0.039    28.973     8.827
    22   8 O        1.705    -0.262    18.350     5.784
    23   8 O        1.705    -0.263    18.351     5.784
    24   8 O        0.857    -0.407    21.820     6.263
    25   8 O        0.857    -0.408    21.837     6.265
    26   6 C        3.642     0.046    20.150     6.454
    27   6 C        3.642     0.046    20.151     6.454
    28   6 C        3.902     0.027    20.062     6.367
    29   6 C        3.762    -0.112    22.691     6.790
    30   6 C        3.761    -0.105    22.560     6.771
    31   6 C        3.902     0.027    20.062     6.367
    32   6 C        3.761    -0.105    22.559     6.771
    33   6 C        3.762    -0.112    22.691     6.790
    34   6 C        3.761    -0.105    22.561     6.771
    35   6 C        3.903     0.027    20.071     6.368
    36   6 C        3.761    -0.111    22.667     6.787
    37   6 C        3.761    -0.108    22.604     6.777
    38   6 C        3.761    -0.108    22.602     6.777
    39   1 H        0.925     0.035     2.514     2.479
    40   1 H        0.925     0.043     2.414     2.430
    41   1 H        0.925     0.041     2.437     2.442
    42   1 H        0.925     0.039     2.459     2.452
    43   1 H        0.925     0.041     2.440     2.443
    44   1 H        0.925     0.039     2.456     2.451
    45   1 H        0.925     0.041     2.435     2.440
    46   1 H        0.925     0.041     2.430     2.438
    47   1 H        0.925     0.036     2.509     2.477
    48   1 H        0.925     0.066     2.125     2.279
    49   1 H        0.926     0.073     2.052     2.240
    50   1 H        0.926     0.074     2.042     2.235
    51   1 H        0.926     0.041     2.436     2.441
    52   1 H        0.925     0.039     2.463     2.454
    53   1 H        0.925     0.042     2.419     2.432
    54   1 H        0.925     0.042     2.418     2.432
    55   1 H        0.925     0.033     2.539     2.492
    56   1 H        0.925     0.041     2.442     2.444
    57   1 H        0.925     0.036     2.500     2.473
    58   1 H        0.924     0.060     2.203     2.321
    59   1 H        0.923     0.038     2.470     2.458
    60   1 H        0.923     0.035     2.513     2.479
    61   1 H        0.924     0.060     2.203     2.321
    62   1 H        0.923     0.038     2.470     2.458
    63   1 H        0.923     0.035     2.515     2.480
    64   1 H        0.926     0.041     2.437     2.441
    65   1 H        0.926     0.074     2.041     2.234
    66   1 H        0.925     0.041     2.435     2.440
    67   1 H        0.925     0.034     2.537     2.491
    68   1 H        0.925     0.037     2.488     2.466
    69   1 H        0.925     0.042     2.419     2.432
    70   1 H        0.925     0.039     2.463     2.454
    71   1 H        0.925     0.042     2.418     2.432
    72   1 H        0.925     0.040     2.442     2.444
    73   1 H        0.925     0.036     2.503     2.474
    74   1 H        0.925     0.033     2.539     2.492
    75   6 C        3.761    -0.105    22.561     6.771
    76   1 H        0.925     0.041     2.435     2.440
    77   1 H        0.925     0.034     2.536     2.490
    78   1 H        0.925     0.037     2.489     2.467

 Mol. C6AA /au·bohr⁶  :      64229.324982
 Mol. C8AA /au·bohr⁸  :    1518605.085583
 Mol. α(0) /au        :        392.610987


Wiberg/Mayer (AO) data.
largest (>0.10) Wiberg bond orders for each atom

 ---------------------------------------------------------------------------
     #   Z sym  total        # sym  WBO       # sym  WBO       # sym  WBO
 ---------------------------------------------------------------------------
     1   6 C    3.979 --     2 C    1.440     6 C    1.342    64 H    0.956
     2   6 C    3.918 --     1 C    1.440     3 C    1.228    23 O    1.059
     3   6 C    3.980 --     4 C    1.297     2 C    1.228     7 C    1.197
     4   6 C    3.973 --     5 C    1.361     3 C    1.297    10 C    1.067
     5   6 C    3.976 --     6 C    1.444     4 C    1.361    65 H    0.956
     6   6 C    3.957 --     5 C    1.444     1 C    1.342    31 C    0.986
     7   6 C    3.935 --     8 C    1.235    11 C    1.197     3 C    1.197
     8   6 C    3.987 --     9 C    1.264    14 C    1.256     7 C    1.235
     9   6 C    3.978 --    17 C    1.398     8 C    1.264    10 C    1.065
    10   6 C    3.941 --    24 O    1.691     4 C    1.067     9 C    1.065
    11   6 C    3.980 --    12 C    1.296    18 C    1.228     7 C    1.197
    12   6 C    3.973 --    21 C    1.361    11 C    1.296    13 C    1.067
    13   6 C    3.941 --    25 O    1.691    12 C    1.067    14 C    1.064
    14   6 C    3.979 --    15 C    1.412     8 C    1.256    13 C    1.064
    15   6 C    3.981 --    14 C    1.412    16 C    1.388    48 H    0.957
    16   6 C    3.962 --    17 C    1.402    15 C    1.388    35 C    0.985
    17   6 C    3.981 --    16 C    1.402     9 C    1.398    49 H    0.957
    18   6 C    3.918 --    19 C    1.440    11 C    1.228    22 O    1.059
    19   6 C    3.979 --    18 C    1.440    20 C    1.342    51 H    0.956
    20   6 C    3.957 --    21 C    1.443    19 C    1.342    28 C    0.986
    21   6 C    3.976 --    20 C    1.443    12 C    1.361    50 H    0.956
    22   8 O    2.242 --    18 C    1.059    26 C    0.993
    23   8 O    2.241 --     2 C    1.059    27 C    0.993
    24   8 O    1.977 --    10 C    1.691
    25   8 O    1.977 --    13 C    1.691
    26   6 C    3.948 --    22 O    0.993    58 H    0.978    59 H    0.974
                            60 H    0.973
    27   6 C    3.948 --    23 O    0.993    61 H    0.978    62 H    0.974
                            63 H    0.973
    28   6 C    3.990 --    29 C    1.000    30 C    0.986    20 C    0.986
                            75 C    0.985
    29   6 C    3.995 --    28 C    1.000    54 H    0.985    52 H    0.984
                            53 H    0.984
    30   6 C    3.993 --    57 H    0.987    28 C    0.986    56 H    0.984
                            55 H    0.984
    31   6 C    3.990 --    33 C    1.000    32 C    0.986     6 C    0.986
                            34 C    0.985
    32   6 C    3.993 --    73 H    0.987    31 C    0.986    72 H    0.984
                            74 H    0.984
    33   6 C    3.995 --    31 C    1.000    69 H    0.985    70 H    0.984
                            71 H    0.984
    34   6 C    3.993 --    68 H    0.987    31 C    0.985    66 H    0.984
                            67 H    0.984
    35   6 C    3.989 --    36 C    1.000    38 C    0.985    37 C    0.985
                            16 C    0.985
    36   6 C    3.995 --    35 C    1.000    44 H    0.984    42 H    0.984
                            43 H    0.984
    37   6 C    3.992 --    39 H    0.987    35 C    0.985    41 H    0.984
                            40 H    0.983
    38   6 C    3.992 --    47 H    0.987    35 C    0.985    45 H    0.984
                            46 H    0.983
    39   1 H    0.999 --    37 C    0.987
    40   1 H    0.998 --    37 C    0.983
    41   1 H    0.997 --    37 C    0.984
    42   1 H    0.998 --    36 C    0.984
    43   1 H    0.998 --    36 C    0.984
    44   1 H    0.998 --    36 C    0.984
    45   1 H    0.997 --    38 C    0.984
    46   1 H    0.998 --    38 C    0.983
    47   1 H    0.999 --    38 C    0.987
    48   1 H    0.995 --    15 C    0.957
    49   1 H    0.994 --    17 C    0.957
    50   1 H    0.994 --    21 C    0.956
    51   1 H    0.998 --    19 C    0.956
    52   1 H    0.998 --    29 C    0.984
    53   1 H    0.998 --    29 C    0.984
    54   1 H    0.998 --    29 C    0.985
    55   1 H    0.999 --    30 C    0.984
    56   1 H    0.997 --    30 C    0.984
    57   1 H    0.999 --    30 C    0.987
    58   1 H    0.996 --    26 C    0.978
    59   1 H    0.998 --    26 C    0.974
    60   1 H    0.998 --    26 C    0.973
    61   1 H    0.996 --    27 C    0.978
    62   1 H    0.998 --    27 C    0.974
    63   1 H    0.998 --    27 C    0.973
    64   1 H    0.998 --     1 C    0.956
    65   1 H    0.994 --     5 C    0.956
    66   1 H    0.997 --    34 C    0.984
    67   1 H    0.999 --    34 C    0.984
    68   1 H    0.999 --    34 C    0.987
    69   1 H    0.998 --    33 C    0.985
    70   1 H    0.998 --    33 C    0.984
    71   1 H    0.998 --    33 C    0.984
    72   1 H    0.997 --    32 C    0.984
    73   1 H    0.999 --    32 C    0.987
    74   1 H    0.999 --    32 C    0.984
    75   6 C    3.993 --    78 H    0.987    28 C    0.985    76 H    0.984
                            77 H    0.984
    76   1 H    0.997 --    75 C    0.984
    77   1 H    0.999 --    75 C    0.984
    78   1 H    0.999 --    75 C    0.987
 ---------------------------------------------------------------------------

Topologies differ in bond orders
Writing corrected topology to xtbtopo.mol

molecular dipole:
                 x           y           z       tot (Debye)
 q only:       -1.975       1.062       0.300
   full:       -2.468       1.323       0.375       7.180
molecular quadrupole (traceless):
                xx          xy          yy          xz          yz          zz
 q only:       17.877      -8.946     -10.229      -7.562      -9.433      -7.648
  q+dip:       22.695     -10.276     -11.305      -9.435     -11.211     -11.390
   full:       19.274     -11.037     -15.219      -8.913     -13.448      -4.055


           -------------------------------------------------
          | TOTAL ENERGY             -111.155040407249 Eh   |
          | GRADIENT NORM               0.057825237715 Eh/α |
          | HOMO-LUMO GAP               1.468626190640 eV   |
           -------------------------------------------------
########################################################################
[WARNING] Runtime exception occurred
-2- restart_readRestart: Multiplicity missmatch in restart file.
-1- restart_readRestart: Number of electron missmatch in restart file.
########################################################################

------------------------------------------------------------------------
 * finished run on 2024/11/12 at 09:12:16.703     
------------------------------------------------------------------------
Note: The following floating-point exceptions are signalling: IEEE_UNDERFLOW_FLAG
normal termination of xtb
 total:
 * wall-time:     0 d,  0 h,  0 min,  0.311 sec
 *  cpu-time:     0 d,  0 h,  0 min,  0.905 sec
 * ratio c/w:     2.912 speedup
 SCF:
 * wall-time:     0 d,  0 h,  0 min,  0.301 sec
 *  cpu-time:     0 d,  0 h,  0 min,  0.889 sec
 * ratio c/w:     2.949 speedup

