Optimization of monomers started
Stacking dimer
Calculating transfer integral
Reorganization energy (electron): 0.13091692403940897 eV
Reorganization energy (hole): 0.1375058056040184 eV
Electron Transfer integral J: 0.026 eV
Hole Transfer integral J: 0.014 eV
=                   |     
     |                         S. Grimme                         |     
     |          Mulliken Center for Theoretical Chemistry        |     
     |                    University of Bonn                     |     
      -----------------------------------------------------------      

   * xtb version 6.7.1 (edcfbbe) compiled by 'runner@Mac-1732539442253.local' on 2024-11-25

   xtb is free software: you can redistribute it and/or modify it under
   the terms of the GNU Lesser General Public License as published by
   the Free Software Foundation, either version 3 of the License, or
   (at your option) any later version.
   
   xtb is distributed in the hope that it will be useful,
   but WITHOUT ANY WARRANTY; without even the implied warranty of
   MERCHANTABILITY or FITNESS FOR A PARTICULAR PURPOSE.  See the
   GNU Lesser General Public License for more details.
   
   Cite this work as:
   * C. Bannwarth, E. Caldeweyher, S. Ehlert, A. Hansen, P. Pracht,
     J. Seibert, S. Spicher, S. Grimme, WIREs Comput. Mol. Sci., 2020, 11,
     e01493. DOI: 10.1002/wcms.1493
   
   for GFN2-xTB:
   * C. Bannwarth, S. Ehlert and S. Grimme., J. Chem. Theory Comput., 2019,
     15, 1652-1671. DOI: 10.1021/acs.jctc.8b01176
   for GFN1-xTB:
   * S. Grimme, C. Bannwarth, P. Shushkov, J. Chem. Theory Comput., 2017,
     13, 1989-2009. DOI: 10.1021/acs.jctc.7b00118
   for GFN0-xTB:
   * P. Pracht, E. Caldeweyher, S. Ehlert, S. Grimme, ChemRxiv, 2019, preprint.
     DOI: 10.26434/chemrxiv.8326202.v1
   for GFN-FF:
   * S. Spicher and S. Grimme, Angew. Chem. Int. Ed., 2020, 59, 15665-15673.
     DOI: 10.1002/anie.202004239
   
   for ALPB and GBSA implicit solvation:
   * S. Ehlert, M. Stahn, S. Spicher, S. Grimme, J. Chem. Theory Comput.,
     2021, 17, 4250-4261. DOI: 10.1021/acs.jctc.1c00471
   
   for ddCOSMO and CPCM-X implicit solvation:
   * M. Stahn, S. Ehlert, S. Grimme, J. Phys. Chem. A,
     2023, XX, XXXX-XXXX. DOI: 10.1021/acs.jpca.3c04382
   
   for DFT-D4:
   * E. Caldeweyher, C. Bannwarth and S. Grimme, J. Chem. Phys., 2017,
     147, 034112. DOI: 10.1063/1.4993215
   * E. Caldeweyher, S. Ehlert, A. Hansen, H. Neugebauer, S. Spicher,
     C. Bannwarth and S. Grimme, J. Chem. Phys., 2019, 150, 154122.
     DOI: 10.1063/1.5090222
   * E. Caldeweyher, J.-M. Mewes, S. Ehlert and S. Grimme, Phys. Chem. Chem. Phys.
     2020, 22, 8499-8512. DOI: 10.1039/D0CP00502A
   
   for sTDA-xTB:
   * S. Grimme and C. Bannwarth, J. Chem. Phys., 2016, 145, 054103.
     DOI: 10.1063/1.4959605
   
   in the mass-spec context:
   * V. Asgeirsson, C. Bauer and S. Grimme, Chem. Sci., 2017, 8, 4879.
     DOI: 10.1039/c7sc00601b
   * J. Koopman and S. Grimme, ACS Omega 2019, 4, 12, 15120-15133.
     DOI: 10.1021/acsomega.9b02011
   
   for metadynamics refer to:
   * S. Grimme, J. Chem. Theory Comput., 2019, 155, 2847-2862
     DOI: 10.1021/acs.jctc.9b00143
   
   for SPH calculations refer to:
   * S. Spicher and S. Grimme, J. Chem. Theory Comput., 2021, 17, 1701-1714
     DOI: 10.1021/acs.jctc.0c01306
   
   for ONIOM refer to:
   * C. Plett, A. Katbashev, S. Ehlert, S. Grimme, M. Bursch,
     Phys. Chem. Chem. Phys., 2023, 25, 17860-17868. DOI: 10.1039/D3CP02178E
   
   for DIPRO refer to:
   * J. Kohn, N. Gildemeister, S. Grimme, D. Fazzi, A. Hansen,
     J. Chem. Phys., 2023, just accepted.
   
   for PTB refer to:
   * S. Grimme, M. Mueller, A. Hansen, J. Chem. Phys., 2023, 158, 124111.
     DOI: 10.1063/5.0137838
   
   with help from (in alphabetical order)
   P. Atkinson, C. Bannwarth, F. Bohle, G. Brandenburg, E. Caldeweyher
   M. Checinski, S. Dohm, S. Ehlert, S. Ehrlich, I. Gerasimov, C. Hölzer
   A. Katbashev, J. Kohn, J. Koopman, C. Lavigne, S. Lehtola, F. März, M. Müller,
   F. Musil, H. Neugebauer, J. Pisarek, C. Plett, P. Pracht, F. Pultar,
   J. Seibert, P. Shushkov, S. Spicher, M. Stahn, M. Steiner, T. Strunk,
   J. Stückrath, T. Rose, and J. Unsleber
   
 * started run on 2024/12/02 at 12:16:40.261     
   ID    Z sym.   atoms
    1    6 C      1-21, 26-38, 75
    2    8 O      22-25
    3    1 H      39-74, 76-78

           -------------------------------------------------
          |                Calculation Setup                |
           -------------------------------------------------

          program call               : xtb Katherine3.mol --opt --gfn 2 --chrg 0 --uhf 1 --tight
          coordinate file            : Katherine3.mol
          omp threads                :                     8

########################################################################
[WARNING] Please study the warnings concerning your input carefully
-1- prog_main_parseArguments: Unknown option '--tight' provided
########################################################################

           -------------------------------------------------
          |                 G F N 2 - x T B                 |
           -------------------------------------------------

        Reference                      10.1021/acs.jctc.8b01176
      * Hamiltonian:
        H0-scaling (s, p, d)           1.850000    2.230000    2.230000
        zeta-weighting                 0.500000
      * Dispersion:
        s8                             2.700000
        a1                             0.520000
        a2                             5.000000
        s9                             5.000000
      * Repulsion:
        kExp                           1.500000    1.000000
        rExp                           1.000000
      * Coulomb:
        alpha                          2.000000
        third order                    shell-resolved
        anisotropic                    true
        a3                             3.000000
        a5                             4.000000
        cn-shift                       1.200000
        cn-exp                         4.000000
        max-rad                        5.000000


          ...................................................
          :                      SETUP                      :
          :.................................................:
          :  # basis functions                 195          :
          :  # atomic orbitals                 195          :
          :  # shells                          117          :
          :  # electrons                       203          :
          :  max. iterations                   250          :
          :  Hamiltonian                  GFN2-xTB          :
          :  restarted?                      false          :
          :  GBSA solvation                  false          :
          :  PC potential                    false          :
          :  electronic temp.          300.0000000     K    :
          :  accuracy                    1.0000000          :
          :  -> integral cutoff          0.2500000E+02      :
          :  -> integral neglect         0.1000000E-07      :
          :  -> SCF convergence          0.1000000E-05 Eh   :
          :  -> wf. convergence          0.1000000E-03 e    :
          :  Broyden damping             0.4000000          :
          :  net charge                          0          :
          :  unpaired electrons                  1          :
          ...................................................

 iter      E             dE          RMSdq      gap      omega  full diag
   1   -112.3156217 -0.112316E+03  0.403E+00    1.50       0.0  T
   2   -112.4608973 -0.145276E+00  0.229E+00    1.36       1.0  T
   3   -112.4043082  0.565891E-01  0.124E+00    1.75       1.0  T
   4   -112.4442035 -0.398953E-01  0.689E-01    1.14       1.0  T
   5   -112.4899670 -0.457635E-01  0.193E-01    1.58       1.0  T
   6   -112.4932545 -0.328743E-02  0.814E-02    1.45       1.0  T
   7   -112.4935120 -0.257523E-03  0.410E-02    1.48       1.0  T
   8   -112.4935650 -0.529866E-04  0.139E-02    1.48       1.0  T
   9   -112.4935716 -0.662110E-05  0.639E-03    1.48       1.8  T
  10   -112.4935735 -0.185972E-05  0.215E-03    1.48       5.3  T
  11   -112.4935735 -0.888664E-07  0.102E-03    1.48      11.1  T
  12   -112.4935736 -0.509816E-08  0.508E-04    1.48      22.3  T
  13   -112.4935736 -0.115415E-07  0.200E-04    1.48      56.6  T

   *** convergence criteria satisfied after 13 iterations ***

         #    Occupation            Energy/Eh            Energy/eV
      -------------------------------------------------------------
         1        2.0000           -0.7223752             -19.6568
       ...           ...                  ...                  ...
        96        2.0000           -0.3965867             -10.7917
        97        2.0000           -0.3960583             -10.7773
        98        2.0000           -0.3860661             -10.5054
        99        2.0000           -0.3764369             -10.2434
       100        2.0000           -0.3735838             -10.1657
       101        2.0000           -0.3702196             -10.0742
       102        1.0000           -0.3391587              -9.2290 (HOMO)
       103                         -0.2848158              -7.7502 (LUMO)
       104                         -0.2591599              -7.0521
       105                         -0.2387611              -6.4970
       106                         -0.2350352              -6.3956
       107                         -0.2233809              -6.0785
       ...                                ...                  ...
       195                          0.6807945              18.5254
      -------------------------------------------------------------
                  HL-Gap            0.0543429 Eh            1.4787 eV
             Fermi-level           -0.3333311 Eh           -9.0704 eV

 SCC (total)                   0 d,  0 h,  0 min,  0.301 sec
 SCC setup                      ...        0 min,  0.001 sec (  0.378%)
 Dispersion                     ...        0 min,  0.001 sec (  0.220%)
 classical contributions        ...        0 min,  0.000 sec (  0.077%)
 integral evaluation            ...        0 min,  0.003 sec (  1.087%)
 iterations                     ...        0 min,  0.278 sec ( 92.080%)
 molecular gradient             ...        0 min,  0.016 sec (  5.392%)
 printout                       ...        0 min,  0.002 sec (  0.762%)

         :::::::::::::::::::::::::::::::::::::::::::::::::::::
         ::                     SUMMARY                     ::
         :::::::::::::::::::::::::::::::::::::::::::::::::::::
         :: total energy            -111.015813970012 Eh    ::
         :: gradient norm              0.167394404513 Eh/a0 ::
         :: HOMO-LUMO gap              1.478745041704 eV    ::
         ::.................................................::
         :: SCC energy              -112.492819231803 Eh    ::
         :: -> isotropic ES            0.092289774313 Eh    ::
         :: -> anisotropic ES          0.020364051002 Eh    ::
         :: -> anisotropic XC          0.045929491123 Eh    ::
         :: -> dispersion             -0.093242589784 Eh    ::
         :: repulsion energy           1.477005261791 Eh    ::
         :: add. restraining           0.000000000000 Eh    ::
         :: total charge               0.000000000000 e     ::
         :::::::::::::::::::::::::::::::::::::::::::::::::::::

      ----------------------------------------------------------- 
     |                   =====================                   |
     |                        A N C O P T                        |
     |                   =====================                   |
     |               Approximate Normal Coordinate               |
     |                Rational Function Optimizer                |
      ----------------------------------------------------------- 
      ----------------------------------------------------------- 
     |                   =====================                   |
     |                        A N C O P T                        |
     |                   =====================                   |
     |               Approximate Normal Coordinate               |
     |                Rational Function Optimizer                |
      ----------------------------------------------------------- 

          ...................................................
          :                      SETUP                      :
          :.................................................:
          :   optimization level            normal          :
          :   max. optcycles                   234          :
          :   ANC micro-cycles                  20          :
          :   degrees of freedom               228          :
          :.................................................:
          :   RF solver                   davidson          :
          :   write xtbopt.log                true          :
          :   linear?                        false          :
          :   energy convergence         0.5000000E-05 Eh   :
          :   grad. convergence          0.1000000E-02 Eh/α :
          :   maxmium RF displ.          1.0000000          :
          :   Hlow (freq-cutoff)         0.1000000E-01      :
          :   Hmax (freq-cutoff)         5.0000000          :
          :   S6 in model hess.         20.0000000          :
          ...................................................

generating ANC from exact Hessian ...
Using Lindh-Hessian (1995)
 Shifting diagonal of input Hessian by    9.9305692385430744E-003
 Lowest  eigenvalues of input Hessian
    0.000000    0.000000    0.000000    0.000000    0.000000    0.000000
    0.010000    0.010077    0.010151    0.010254    0.010389    0.010397
    0.010668    0.010985    0.011181    0.011598    0.012069    0.012317
 Highest eigenvalues
    1.919636    1.946955    2.013153    2.069950    2.160927    2.181159


........................................................................
.............................. CYCLE    1 ..............................
........................................................................

 iter      E             dE          RMSdq      gap      omega  full diag
   1   -112.4935736 -0.112494E+03  0.105E-04    1.48       0.0  T
   2   -112.4935736 -0.101608E-09  0.750E-05    1.48     151.0  T
   3   -112.4935736 -0.373134E-09  0.450E-05    1.48     251.4  T
     SCC iter.                  ...        0 min,  0.060 sec
     gradient                   ...        0 min,  0.015 sec
 * total energy  :  -111.0158140 Eh     change       -0.1570058E-08 Eh
   gradient norm :     0.1673941 Eh/α   predicted     0.0000000E+00 (-100.00%)
   displ. norm   :     0.5330840 α      lambda       -0.6716779E-01
   maximum displ.:     0.2543442 α      in ANC's #88, #123, #49, ...

........................................................................
.............................. CYCLE    2 ..............................
........................................................................

 iter      E             dE          RMSdq      gap      omega  full diag
   1   -112.6120988 -0.112612E+03  0.307E-01    1.36       0.0  T
   2   -112.6120060  0.927808E-04  0.205E-01    1.47       1.0  T
   3   -112.6117514  0.254656E-03  0.150E-01    1.36       1.0  T
   4   -112.6132748 -0.152346E-02  0.290E-02    1.43       1.0  T
   5   -112.6133582 -0.834040E-04  0.101E-02    1.42       1.1  T
   6   -112.6133648 -0.663121E-05  0.434E-03    1.42       2.6  T
   7   -112.6133652 -0.318384E-06  0.207E-03    1.42       5.5  T
   8   -112.6133653 -0.163244E-06  0.396E-04    1.42      28.6  T
   9   -112.6133653 -0.252858E-08  0.178E-04    1.42      63.5  T
     SCC iter.                  ...        0 min,  0.180 sec
     gradient                   ...        0 min,  0.019 sec
 * total energy  :  -111.0637298 Eh     change       -0.4791585E-01 Eh
   gradient norm :     0.0892758 Eh/α   predicted    -0.4313660E-01 (  -9.97%)
   displ. norm   :     0.5996252 α      lambda       -0.3356403E-01
   maximum displ.:     0.2798089 α      in ANC's #49, #21, #85, ...

........................................................................
.............................. CYCLE    3 ..............................
........................................................................

 iter      E             dE          RMSdq      gap      omega  full diag
   1   -112.6978140 -0.112698E+03  0.213E-01    1.42       0.0  T
   2   -112.6980123 -0.198377E-03  0.164E-01    1.49       1.0  T
   3   -112.6980950 -0.826328E-04  0.797E-02    1.44       1.0  T
   4   -112.6984113 -0.316302E-03  0.278E-02    1.46       1.0  T
   5   -112.6984976 -0.863468E-04  0.621E-03    1.46       1.8  T
   6   -112.6984997 -0.204657E-05  0.287E-03    1.46       3.9  T
   7   -112.6984997 -0.445862E-07  0.151E-03    1.46       7.5  T
   8   -112.6984998 -0.110622E-06  0.362E-04    1.46      31.3  T
   9   -112.6984998 -0.178409E-08  0.198E-04    1.46      57.3  T
     SCC iter.                  ...        0 min,  0.276 sec
     gradient                   ...        0 min,  0.014 sec
 * total energy  :  -111.0844472 Eh     change       -0.2071741E-01 Eh
   gradient norm :     0.0326194 Eh/α   predicted    -0.2281612E-01 (  10.13%)
   displ. norm   :     0.5811341 α      lambda       -0.1123664E-01
   maximum displ.:     0.2893138 α      in ANC's #21, #49, #11, ...

........................................................................
.............................. CYCLE    4 ..............................
........................................................................

 iter      E             dE          RMSdq      gap      omega  full diag
   1   -112.7234440 -0.112723E+03  0.139E-01    1.45       0.0  T
   2   -112.7234578 -0.138477E-04  0.826E-02    1.46       1.0  T
   3   -112.7234301  0.277699E-04  0.228E-02    1.45       1.0  T
   4   -112.7234634 -0.332886E-04  0.343E-03    1.45       3.3  T
   5   -112.7234637 -0.310942E-06  0.208E-03    1.45       5.4  T
   6   -112.7234638 -0.137593E-06  0.115E-03    1.45       9.8  T
   7   -112.7234639 -0.743301E-07  0.370E-04    1.45      30.6  T
   8   -112.7234639 -0.101570E-07  0.138E-04    1.45      82.1  T
     SCC iter.                  ...        0 min,  0.165 sec
     gradient                   ...        0 min,  0.016 sec
 * total energy  :  -111.0931727 Eh     change       -0.8725469E-02 Eh
   gradient norm :     0.0215583 Eh/α   predicted    -0.7517370E-02 ( -13.85%)
   displ. norm   :     0.6801640 α      lambda       -0.8015714E-02
   maximum displ.:     0.3390320 α      in ANC's #21, #11, #17, ...

........................................................................
.............................. CYCLE    5 ..............................
........................................................................

 iter      E             dE          RMSdq      gap      omega  full diag
   1   -112.7441134 -0.112744E+03  0.130E-01    1.44       0.0  T
   2   -112.7441285 -0.150848E-04  0.771E-02    1.45       1.0  T
   3   -112.7441024  0.260592E-04  0.229E-02    1.44       1.0  T
   4   -112.7441341 -0.316437E-04  0.346E-03    1.45       3.3  T
   5   -112.7441344 -0.315193E-06  0.206E-03    1.45       5.5  T
   6   -112.7441345 -0.129444E-06  0.116E-03    1.45       9.7  T
   7   -112.7441346 -0.836285E-07  0.397E-04    1.45      28.5  T
   8   -112.7441346 -0.975780E-08  0.143E-04    1.45      79.0  T
     SCC iter.                  ...        0 min,  0.170 sec
     gradient                   ...        0 min,  0.015 sec
 * total energy  :  -111.0994420 Eh     change       -0.6269287E-02 Eh
   gradient norm :     0.0149592 Eh/α   predicted    -0.5861992E-02 (  -6.50%)
   displ. norm   :     0.6589333 α      lambda       -0.4851002E-02
   maximum displ.:     0.3064286 α      in ANC's #11, #21, #9, ...

........................................................................
.............................. CYCLE    6 ..............................
........................................................................

 iter      E             dE          RMSdq      gap      omega  full diag
   1   -112.7584656 -0.112758E+03  0.994E-02    1.44       0.0  T
   2   -112.7584781 -0.124749E-04  0.592E-02    1.44       1.0  T
   3   -112.7584566  0.214672E-04  0.197E-02    1.44       1.0  T
   4   -112.7584823 -0.256542E-04  0.319E-03    1.44       3.5  T
   5   -112.7584827 -0.442139E-06  0.171E-03    1.44       6.6  T
   6   -112.7584828 -0.106936E-06  0.984E-04    1.44      11.5  T
   7   -112.7584829 -0.468049E-07  0.371E-04    1.44      30.5  T
     SCC iter.                  ...        0 min,  0.167 sec
     gradient                   ...        0 min,  0.017 sec
 * total energy  :  -111.1031958 Eh     change       -0.3753831E-02 Eh
   gradient norm :     0.0134152 Eh/α   predicted    -0.3478642E-02 (  -7.33%)
   displ. norm   :     0.6034225 α      lambda       -0.2963047E-02
   maximum displ.:     0.3121837 α      in ANC's #11, #9, #21, ...

........................................................................
.............................. CYCLE    7 ..............................
........................................................................

 iter      E             dE          RMSdq      gap      omega  full diag
   1   -112.7689852 -0.112769E+03  0.746E-02    1.43       0.0  T
   2   -112.7689944 -0.922003E-05  0.445E-02    1.44       1.0  T
   3   -112.7689708  0.236180E-04  0.175E-02    1.43       1.0  T
   4   -112.7689979 -0.271419E-04  0.334E-03    1.44       3.4  T
   5   -112.7689987 -0.730191E-06  0.176E-03    1.44       6.4  T
   6   -112.7689989 -0.180617E-06  0.879E-04    1.44      12.9  T
   7   -112.7689989 -0.199450E-07  0.379E-04    1.44      29.8  T
     SCC iter.                  ...        0 min,  0.155 sec
     gradient                   ...        0 min,  0.018 sec
 * total energy  :  -111.1054952 Eh     change       -0.2299425E-02 Eh
   gradient norm :     0.0124093 Eh/α   predicted    -0.2020978E-02 ( -12.11%)
   displ. norm   :     0.5694204 α      lambda       -0.2070441E-02
   maximum displ.:     0.3002272 α      in ANC's #11, #9, #20, ...

........................................................................
.............................. CYCLE    8 ..............................
........................................................................

 iter      E             dE          RMSdq      gap      omega  full diag
   1   -112.7748034 -0.112775E+03  0.680E-02    1.43       0.0  T
   2   -112.7748096 -0.616361E-05  0.406E-02    1.43       1.0  T
   3   -112.7747888  0.207524E-04  0.154E-02    1.43       1.0  T
   4   -112.7748126 -0.237663E-04  0.283E-03    1.43       4.0  T
   5   -112.7748130 -0.432622E-06  0.164E-03    1.43       6.9  T
   6   -112.7748132 -0.149400E-06  0.791E-04    1.43      14.3  T
   7   -112.7748132 -0.146270E-07  0.334E-04    1.43      33.9  T
     SCC iter.                  ...        0 min,  0.154 sec
     gradient                   ...        0 min,  0.017 sec
 * total energy  :  -111.1071322 Eh     change       -0.1636938E-02 Eh
   gradient norm :     0.0104092 Eh/α   predicted    -0.1370882E-02 ( -16.25%)
   displ. norm   :     0.5769453 α      lambda       -0.1713639E-02
   maximum displ.:     0.2793426 α      in ANC's #11, #9, #2, ...

........................................................................
.............................. CYCLE    9 ..............................
........................................................................

 iter      E             dE          RMSdq      gap      omega  full diag
   1   -112.7777651 -0.112778E+03  0.771E-02    1.43       0.0  T
   2   -112.7777704 -0.533941E-05  0.459E-02    1.43       1.0  T
   3   -112.7777486  0.217668E-04  0.158E-02    1.43       1.0  T
   4   -112.7777735 -0.248458E-04  0.297E-03    1.43       3.8  T
   5   -112.7777739 -0.436592E-06  0.180E-03    1.43       6.3  T
   6   -112.7777741 -0.203521E-06  0.734E-04    1.43      15.4  T
   7   -112.7777741 -0.730060E-08  0.318E-04    1.43      35.6  T
     SCC iter.                  ...        0 min,  0.120 sec
     gradient                   ...        0 min,  0.015 sec
 * total energy  :  -111.1085191 Eh     change       -0.1386887E-02 Eh
   gradient norm :     0.0089748 Eh/α   predicted    -0.1142027E-02 ( -17.66%)
   displ. norm   :     0.6170477 α      lambda       -0.1573577E-02
   maximum displ.:     0.2407855 α      in ANC's #11, #2, #4, ...

........................................................................
.............................. CYCLE   10 ..............................
........................................................................

 iter      E             dE          RMSdq      gap      omega  full diag
   1   -112.7767933 -0.112777E+03  0.917E-02    1.43       0.0  T
   2   -112.7768062 -0.129072E-04  0.547E-02    1.43       1.0  T
   3   -112.7767810  0.252113E-04  0.217E-02    1.43       1.0  T
   4   -112.7768123 -0.312893E-04  0.292E-03    1.43       3.9  T
   5   -112.7768124 -0.162839E-06  0.173E-03    1.43       6.5  T
   6   -112.7768125 -0.112168E-06  0.897E-04    1.43      12.6  T
   7   -112.7768126 -0.201156E-07  0.317E-04    1.43      35.7  T
     SCC iter.                  ...        0 min,  0.145 sec
     gradient                   ...        0 min,  0.016 sec
 * total energy  :  -111.1098177 Eh     change       -0.1298606E-02 Eh
   gradient norm :     0.0098126 Eh/α   predicted    -0.1086359E-02 ( -16.34%)
   displ. norm   :     0.6628718 α      lambda       -0.1645983E-02
   maximum displ.:     0.2982851 α      in ANC's #2, #4, #6, ...

........................................................................
.............................. CYCLE   11 ..............................
........................................................................

 iter      E             dE          RMSdq      gap      omega  full diag
   1   -112.7781089 -0.112778E+03  0.102E-01    1.43       0.0  T
   2   -112.7781491 -0.401752E-04  0.614E-02    1.42       1.0  T
   3   -112.7781120  0.370852E-04  0.327E-02    1.43       1.0  T
   4   -112.7781680 -0.559481E-04  0.481E-03    1.42       2.4  T
   5   -112.7781687 -0.749640E-06  0.283E-03    1.43       4.0  T
   6   -112.7781693 -0.599029E-06  0.132E-03    1.42       8.6  T
   7   -112.7781694 -0.306004E-07  0.647E-04    1.42      17.5  T
   8   -112.7781694 -0.238911E-07  0.242E-04    1.42      46.9  T
     SCC iter.                  ...        0 min,  0.152 sec
     gradient                   ...        0 min,  0.014 sec
 * total energy  :  -111.1110574 Eh     change       -0.1239673E-02 Eh
   gradient norm :     0.0120174 Eh/α   predicted    -0.1184630E-02 (  -4.44%)
   displ. norm   :     0.6952155 α      lambda       -0.1795989E-02
   maximum displ.:     0.3208234 α      in ANC's #2, #4, #6, ...

........................................................................
.............................. CYCLE   12 ..............................
........................................................................

 iter      E             dE          RMSdq      gap      omega  full diag
   1   -112.7708820 -0.112771E+03  0.114E-01    1.43       0.0  T
   2   -112.7709586 -0.765884E-04  0.710E-02    1.42       1.0  T
   3   -112.7709175  0.410992E-04  0.420E-02    1.43       1.0  T
   4   -112.7710026 -0.851124E-04  0.716E-03    1.42       1.6  T
   5   -112.7710050 -0.245823E-05  0.389E-03    1.42       2.9  T
   6   -112.7710064 -0.134289E-05  0.159E-03    1.42       7.1  T
   7   -112.7710064 -0.163078E-07  0.879E-04    1.42      12.9  T
   8   -112.7710064 -0.543750E-07  0.282E-04    1.42      40.2  T
     SCC iter.                  ...        0 min,  0.154 sec
     gradient                   ...        0 min,  0.018 sec
 * total energy  :  -111.1122121 Eh     change       -0.1154763E-02 Eh
   gradient norm :     0.0143706 Eh/α   predicted    -0.1332028E-02 (  15.35%)
   displ. norm   :     0.4930924 α      lambda       -0.1458212E-02
   maximum displ.:     0.2592991 α      in ANC's #2, #4, #6, ...

........................................................................
.............................. CYCLE   13 ..............................
........................................................................

 iter      E             dE          RMSdq      gap      omega  full diag
   1   -112.7765995 -0.112777E+03  0.754E-02    1.43       0.0  T
   2   -112.7766369 -0.374917E-04  0.470E-02    1.42       1.0  T
   3   -112.7766226  0.143359E-04  0.282E-02    1.42       1.0  T
   4   -112.7766567 -0.340454E-04  0.571E-03    1.42       2.0  T
   5   -112.7766585 -0.179607E-05  0.321E-03    1.42       3.5  T
   6   -112.7766595 -0.108736E-05  0.112E-03    1.42      10.1  T
   7   -112.7766596 -0.189703E-07  0.616E-04    1.42      18.4  T
   8   -112.7766596 -0.152008E-07  0.229E-04    1.42      49.5  T
     SCC iter.                  ...        0 min,  0.172 sec
     gradient                   ...        0 min,  0.014 sec
 * total energy  :  -111.1134115 Eh     change       -0.1199423E-02 Eh
   gradient norm :     0.0138614 Eh/α   predicted    -0.9063836E-03 ( -24.43%)
   displ. norm   :     0.5795855 α      lambda       -0.1898084E-02
   maximum displ.:     0.2915026 α      in ANC's #2, #4, #6, ...

........................................................................
.............................. CYCLE   14 ..............................
........................................................................

 iter      E             dE          RMSdq      gap      omega  full diag
   1   -112.7825053 -0.112783E+03  0.880E-02    1.42       0.0  T
   2   -112.7825216 -0.163095E-04  0.520E-02    1.42       1.0  T
   3   -112.7824879  0.336836E-04  0.239E-02    1.42       1.0  T
   4   -112.7825283 -0.404284E-04  0.432E-03    1.42       2.6  T
   5   -112.7825293 -0.103700E-05  0.254E-03    1.42       4.5  T
   6   -112.7825298 -0.505488E-06  0.112E-03    1.42      10.1  T
   7   -112.7825299 -0.244831E-07  0.475E-04    1.42      23.8  T
   8   -112.7825299 -0.770609E-08  0.186E-04    1.42      60.8  T
     SCC iter.                  ...        0 min,  0.216 sec
     gradient                   ...        0 min,  0.014 sec
 * total energy  :  -111.1148104 Eh     change       -0.1398836E-02 Eh
   gradient norm :     0.0143689 Eh/α   predicted    -0.1267844E-02 (  -9.36%)
   displ. norm   :     0.6431744 α      lambda       -0.1602946E-02
   maximum displ.:     0.3268071 α      in ANC's #2, #4, #6, ...

........................................................................
.............................. CYCLE   15 ..............................
........................................................................

 iter      E             dE          RMSdq      gap      omega  full diag
   1   -112.7886823 -0.112789E+03  0.935E-02    1.42       0.0  T
   2   -112.7886975 -0.151732E-04  0.554E-02    1.41       1.0  T
   3   -112.7886684  0.290609E-04  0.224E-02    1.42       1.0  T
   4   -112.7887029 -0.344410E-04  0.371E-03    1.41       3.1  T
   5   -112.7887034 -0.582442E-06  0.230E-03    1.41       4.9  T
   6   -112.7887038 -0.404184E-06  0.107E-03    1.41      10.6  T
   7   -112.7887039 -0.285765E-07  0.442E-04    1.41      25.6  T
   8   -112.7887039 -0.784981E-08  0.174E-04    1.41      65.2  T
     SCC iter.                  ...        0 min,  0.216 sec
     gradient                   ...        0 min,  0.015 sec
 * total energy  :  -111.1160505 Eh     change       -0.1240144E-02 Eh
   gradient norm :     0.0161813 Eh/α   predicted    -0.1133028E-02 (  -8.64%)
   displ. norm   :     0.6294918 α      lambda       -0.1488182E-02
   maximum displ.:     0.3335551 α      in ANC's #2, #4, #6, ...

........................................................................
.............................. CYCLE   16 ..............................
........................................................................

 iter      E             dE          RMSdq      gap      omega  full diag
   1   -112.7857959 -0.112786E+03  0.886E-02    1.41       0.0  T
   2   -112.7858009 -0.498180E-05  0.520E-02    1.41       1.0  T
   3   -112.7857975  0.343659E-05  0.827E-03    1.41       1.4  T
   4   -112.7858022 -0.471269E-05  0.216E-03    1.41       5.2  T
   5   -112.7858023 -0.140872E-06  0.121E-03    1.41       9.3  T
   6   -112.7858023  0.935600E-09  0.674E-04    1.41      16.8  T
   7   -112.7858024 -0.264909E-07  0.229E-04    1.41      49.5  T
     SCC iter.                  ...        0 min,  0.149 sec
     gradient                   ...        0 min,  0.015 sec
 * total energy  :  -111.1172456 Eh     change       -0.1195109E-02 Eh
   gradient norm :     0.0121284 Eh/α   predicted    -0.1038947E-02 ( -13.07%)
   displ. norm   :     0.6400499 α      lambda       -0.1518534E-02
   maximum displ.:     0.3435893 α      in ANC's #2, #4, #9, ...

........................................................................
.............................. CYCLE   17 ..............................
........................................................................

 iter      E             dE          RMSdq      gap      omega  full diag
   1   -112.7901160 -0.112790E+03  0.889E-02    1.41       0.0  T
   2   -112.7901232 -0.715780E-05  0.530E-02    1.42       1.0  T
   3   -112.7900938  0.293828E-04  0.195E-02    1.41       1.0  T
   4   -112.7901275 -0.337131E-04  0.309E-03    1.42       3.7  T
   5   -112.7901281 -0.648143E-06  0.162E-03    1.41       7.0  T
   6   -112.7901283 -0.145294E-06  0.760E-04    1.41      14.9  T
   7   -112.7901283 -0.120461E-07  0.356E-04    1.41      31.8  T
     SCC iter.                  ...        0 min,  0.129 sec
     gradient                   ...        0 min,  0.018 sec
 * total energy  :  -111.1184041 Eh     change       -0.1158489E-02 Eh
   gradient norm :     0.0119167 Eh/α   predicted    -0.1070311E-02 (  -7.61%)
   displ. norm   :     0.6856321 α      lambda       -0.1375366E-02
   maximum displ.:     0.4053482 α      in ANC's #2, #4, #6, ...

........................................................................
.............................. CYCLE   18 ..............................
........................................................................

 iter      E             dE          RMSdq      gap      omega  full diag
   1   -112.7858585 -0.112786E+03  0.940E-02    1.42       0.0  T
   2   -112.7858744 -0.159508E-04  0.559E-02    1.42       1.0  T
   3   -112.7858344  0.400527E-04  0.244E-02    1.42       1.0  T
   4   -112.7858823 -0.478859E-04  0.304E-03    1.42       3.7  T
   5   -112.7858828 -0.576013E-06  0.157E-03    1.42       7.2  T
   6   -112.7858829 -0.107966E-06  0.903E-04    1.42      12.5  T
   7   -112.7858829 -0.101500E-07  0.303E-04    1.42      37.3  T
     SCC iter.                  ...        0 min,  0.118 sec
     gradient                   ...        0 min,  0.014 sec
 * total energy  :  -111.1195691 Eh     change       -0.1165011E-02 Eh
   gradient norm :     0.0113081 Eh/α   predicted    -0.1010960E-02 ( -13.22%)
   displ. norm   :     0.6808204 α      lambda       -0.1528222E-02
   maximum displ.:     0.3945879 α      in ANC's #2, #4, #7, ...

........................................................................
.............................. CYCLE   19 ..............................
........................................................................

 iter      E             dE          RMSdq      gap      omega  full diag
   1   -112.7907982 -0.112791E+03  0.994E-02    1.42       0.0  T
   2   -112.7908104 -0.121519E-04  0.591E-02    1.42       1.0  T
   3   -112.7907849  0.254938E-04  0.195E-02    1.42       1.0  T
   4   -112.7908140 -0.291299E-04  0.370E-03    1.42       3.1  T
   5   -112.7908149 -0.862433E-06  0.187E-03    1.42       6.1  T
   6   -112.7908151 -0.217997E-06  0.927E-04    1.42      12.2  T
   7   -112.7908151 -0.302652E-07  0.402E-04    1.42      28.1  T
     SCC iter.                  ...        0 min,  0.193 sec
     gradient                   ...        0 min,  0.014 sec
 * total energy  :  -111.1208199 Eh     change       -0.1250814E-02 Eh
   gradient norm :     0.0140747 Eh/α   predicted    -0.1118296E-02 ( -10.59%)
   displ. norm   :     0.7647981 α      lambda       -0.1692196E-02
   maximum displ.:     0.4902715 α      in ANC's #2, #4, #7, ...

........................................................................
.............................. CYCLE   20 ..............................
........................................................................

 iter      E             dE          RMSdq      gap      omega  full diag
   1   -112.7878157 -0.112788E+03  0.106E-01    1.42       0.0  T
   2   -112.7878408 -0.250153E-04  0.638E-02    1.42       1.0  T
   3   -112.7877837  0.570744E-04  0.292E-02    1.42       1.0  T
   4   -112.7878525 -0.687959E-04  0.389E-03    1.42       2.9  T
   5   -112.7878535 -0.100708E-05  0.192E-03    1.42       5.9  T
   6   -112.7878537 -0.189515E-06  0.104E-03    1.42      10.9  T
   7   -112.7878537 -0.625691E-08  0.471E-04    1.42      24.0  T
   8   -112.7878537 -0.150682E-07  0.190E-04    1.42      59.7  T
     SCC iter.                  ...        0 min,  0.193 sec
     gradient                   ...        0 min,  0.014 sec
 * total energy  :  -111.1222507 Eh     change       -0.1430761E-02 Eh
   gradient norm :     0.0146175 Eh/α   predicted    -0.1340991E-02 (  -6.27%)
   displ. norm   :     0.6826318 α      lambda       -0.1620772E-02
   maximum displ.:     0.4359011 α      in ANC's #2, #4, #7, ...
 * RMSD in coord.:     0.9528865 α      energy gain  -0.1064367E+00 Eh

generating ANC from exact Hessian ...
Using Lindh-Hessian (1995)
 Shifting diagonal of input Hessian by    9.8890391348183219E-003
 Lowest  eigenvalues of input Hessian
    0.000000    0.000000    0.000000    0.000000    0.000000    0.000000
    0.010000    0.010115    0.010246    0.010269    0.010447    0.010522
    0.010827    0.011125    0.011472    0.011786    0.012710    0.012770
 Highest eigenvalues
    2.006079    2.034195    2.067863    2.076164    2.223290    2.244177


........................................................................
.............................. CYCLE   21 ..............................
........................................................................

 iter      E             dE          RMSdq      gap      omega  full diag
   1   -112.7916150 -0.112792E+03  0.997E-02    1.42       0.0  T
   2   -112.7916255 -0.105256E-04  0.597E-02    1.42       1.0  T
   3   -112.7915951  0.304303E-04  0.192E-02    1.42       1.0  T
   4   -112.7916290 -0.339210E-04  0.378E-03    1.42       3.0  T
   5   -112.7916301 -0.111147E-05  0.173E-03    1.42       6.5  T
   6   -112.7916302 -0.143002E-06  0.873E-04    1.42      13.0  T
   7   -112.7916302 -0.221109E-07  0.385E-04    1.42      29.4  T
     SCC iter.                  ...        0 min,  0.284 sec
     gradient                   ...        0 min,  0.025 sec
 * total energy  :  -111.1235923 Eh     change       -0.1341586E-02 Eh
   gradient norm :     0.0141161 Eh/α   predicted     0.0000000E+00 (-100.00%)
   displ. norm   :     0.1961549 α      lambda       -0.7510069E-03
   maximum displ.:     0.0935115 α      in ANC's #3, #1, #7, ...

........................................................................
.............................. CYCLE   22 ..............................
........................................................................

 iter      E             dE          RMSdq      gap      omega  full diag
   1   -112.7952532 -0.112795E+03  0.335E-02    1.41       0.0  T
   2   -112.7952576 -0.440120E-05  0.205E-02    1.42       1.0  T
   3   -112.7952514  0.620030E-05  0.106E-02    1.42       1.1  T
   4   -112.7952595 -0.810612E-05  0.193E-03    1.42       5.9  T
   5   -112.7952598 -0.291766E-06  0.877E-04    1.42      12.9  T
   6   -112.7952599 -0.384727E-07  0.486E-04    1.42      23.3  T
     SCC iter.                  ...        0 min,  0.109 sec
     gradient                   ...        0 min,  0.014 sec
 * total energy  :  -111.1242255 Eh     change       -0.6332424E-03 Eh
   gradient norm :     0.0063219 Eh/α   predicted    -0.3899579E-03 ( -38.42%)
   displ. norm   :     0.5129342 α      lambda       -0.1287351E-02
   maximum displ.:     0.2433399 α      in ANC's #3, #1, #7, ...

........................................................................
.............................. CYCLE   23 ..............................
........................................................................

 iter      E             dE          RMSdq      gap      omega  full diag
   1   -112.7991110 -0.112799E+03  0.730E-02    1.41       0.0  T
   2   -112.7991239 -0.129132E-04  0.440E-02    1.41       1.0  T
   3   -112.7990962  0.277070E-04  0.209E-02    1.41       1.0  T
   4   -112.7991294 -0.332474E-04  0.360E-03    1.41       3.1  T
   5   -112.7991305 -0.104168E-05  0.176E-03    1.41       6.4  T
   6   -112.7991307 -0.201752E-06  0.911E-04    1.41      12.4  T
   7   -112.7991307 -0.147089E-07  0.444E-04    1.41      25.5  T
     SCC iter.                  ...        0 min,  0.175 sec
     gradient                   ...        0 min,  0.020 sec
 * total energy  :  -111.1252664 Eh     change       -0.1040899E-02 Eh
   gradient norm :     0.0080411 Eh/α   predicted    -0.8130859E-03 ( -21.89%)
   displ. norm   :     0.6488051 α      lambda       -0.1217482E-02
   maximum displ.:     0.3127408 α      in ANC's #3, #1, #7, ...

........................................................................
.............................. CYCLE   24 ..............................
........................................................................

 iter      E             dE          RMSdq      gap      omega  full diag
   1   -112.7994862 -0.112799E+03  0.848E-02    1.41       0.0  T
   2   -112.7994931 -0.690221E-05  0.505E-02    1.41       1.0  T
   3   -112.7994719  0.211444E-04  0.174E-02    1.40       1.0  T
   4   -112.7994960 -0.240293E-04  0.298E-03    1.41       3.8  T
   5   -112.7994965 -0.584658E-06  0.161E-03    1.41       7.0  T
   6   -112.7994967 -0.151165E-06  0.826E-04    1.41      13.7  T
   7   -112.7994967 -0.189569E-07  0.343E-04    1.41      33.0  T
     SCC iter.                  ...        0 min,  0.125 sec
     gradient                   ...        0 min,  0.015 sec
 * total energy  :  -111.1263720 Eh     change       -0.1105604E-02 Eh
   gradient norm :     0.0142879 Eh/α   predicted    -0.8650173E-03 ( -21.76%)
   displ. norm   :     0.7544382 α      lambda       -0.1429328E-02
   maximum displ.:     0.3686397 α      in ANC's #3, #1, #7, ...

........................................................................
.............................. CYCLE   25 ..............................
........................................................................

 iter      E             dE          RMSdq      gap      omega  full diag
   1   -112.7977320 -0.112798E+03  0.937E-02    1.41       0.0  T
   2   -112.7977368 -0.479082E-05  0.556E-02    1.41       1.0  T
   3   -112.7977256  0.112306E-04  0.131E-02    1.40       1.0  T
   4   -112.7977385 -0.129147E-04  0.268E-03    1.41       4.2  T
   5   -112.7977388 -0.295395E-06  0.160E-03    1.41       7.1  T
   6   -112.7977389 -0.161997E-06  0.754E-04    1.41      15.0  T
   7   -112.7977390 -0.164424E-07  0.282E-04    1.41      40.1  T
     SCC iter.                  ...        0 min,  0.118 sec
     gradient                   ...        0 min,  0.015 sec
 * total energy  :  -111.1276654 Eh     change       -0.1293401E-02 Eh
   gradient norm :     0.0157461 Eh/α   predicted    -0.1121436E-02 ( -13.30%)
   displ. norm   :     0.7434149 α      lambda       -0.1544670E-02
   maximum displ.:     0.3725275 α      in ANC's #3, #1, #7, ...

........................................................................
.............................. CYCLE   26 ..............................
........................................................................

 iter      E             dE          RMSdq      gap      omega  full diag
   1   -112.7969917 -0.112797E+03  0.881E-02    1.41       0.0  T
   2   -112.7970005 -0.879437E-05  0.525E-02    1.41       1.0  T
   3   -112.7969777  0.227866E-04  0.163E-02    1.41       1.0  T
   4   -112.7970038 -0.260148E-04  0.277E-03    1.41       4.1  T
   5   -112.7970042 -0.435153E-06  0.143E-03    1.41       7.9  T
   6   -112.7970043 -0.713853E-07  0.781E-04    1.41      14.5  T
   7   -112.7970043 -0.946279E-08  0.323E-04    1.41      35.1  T
     SCC iter.                  ...        0 min,  0.118 sec
     gradient                   ...        0 min,  0.014 sec
 * total energy  :  -111.1290221 Eh     change       -0.1356659E-02 Eh
   gradient norm :     0.0125328 Eh/α   predicted    -0.1199183E-02 ( -11.61%)
   displ. norm   :     0.6988971 α      lambda       -0.1631171E-02
   maximum displ.:     0.3605568 α      in ANC's #1, #3, #2, ...

........................................................................
.............................. CYCLE   27 ..............................
........................................................................

 iter      E             dE          RMSdq      gap      omega  full diag
   1   -112.8001423 -0.112800E+03  0.855E-02    1.42       0.0  T
   2   -112.8001572 -0.149576E-04  0.509E-02    1.41       1.0  T
   3   -112.8001243  0.329729E-04  0.202E-02    1.42       1.0  T
   4   -112.8001628 -0.385558E-04  0.329E-03    1.41       3.4  T
   5   -112.8001635 -0.718165E-06  0.156E-03    1.41       7.3  T
   6   -112.8001636 -0.777270E-07  0.883E-04    1.41      12.8  T
   7   -112.8001636 -0.104032E-07  0.384E-04    1.41      29.5  T
     SCC iter.                  ...        0 min,  0.119 sec
     gradient                   ...        0 min,  0.015 sec
 * total energy  :  -111.1303782 Eh     change       -0.1356120E-02 Eh
   gradient norm :     0.0100772 Eh/α   predicted    -0.1213965E-02 ( -10.48%)
   displ. norm   :     0.7743169 α      lambda       -0.1471616E-02
   maximum displ.:     0.4113576 α      in ANC's #1, #3, #2, ...

........................................................................
.............................. CYCLE   28 ..............................
........................................................................

 iter      E             dE          RMSdq      gap      omega  full diag
   1   -112.8002631 -0.112800E+03  0.932E-02    1.42       0.0  T
   2   -112.8002722 -0.910322E-05  0.551E-02    1.42       1.0  T
   3   -112.8002505  0.217137E-04  0.153E-02    1.42       1.0  T
   4   -112.8002749 -0.244187E-04  0.283E-03    1.42       4.0  T
   5   -112.8002755 -0.587572E-06  0.131E-03    1.42       8.6  T
   6   -112.8002756 -0.546183E-07  0.823E-04    1.42      13.8  T
   7   -112.8002756 -0.188705E-07  0.343E-04    1.42      33.0  T
     SCC iter.                  ...        0 min,  0.228 sec
     gradient                   ...        0 min,  0.022 sec
 * total energy  :  -111.1316698 Eh     change       -0.1291562E-02 Eh
   gradient norm :     0.0141991 Eh/α   predicted    -0.1176977E-02 (  -8.87%)
   displ. norm   :     0.7252405 α      lambda       -0.1755349E-02
   maximum displ.:     0.4120961 α      in ANC's #1, #3, #2, ...

........................................................................
.............................. CYCLE   29 ..............................
........................................................................

 iter      E             dE          RMSdq      gap      omega  full diag
   1   -112.8084852 -0.112808E+03  0.972E-02    1.42       0.0  T
   2   -112.8084909 -0.573681E-05  0.574E-02    1.42       1.0  T
   3   -112.8084812  0.974910E-05  0.102E-02    1.42       1.1  T
   4   -112.8084918 -0.106020E-04  0.347E-03    1.42       3.3  T
   5   -112.8084928 -0.100569E-05  0.159E-03    1.42       7.1  T
   6   -112.8084929 -0.108333E-06  0.831E-04    1.42      13.6  T
   7   -112.8084929 -0.162120E-07  0.325E-04    1.42      34.8  T
     SCC iter.                  ...        0 min,  0.178 sec
     gradient                   ...        0 min,  0.015 sec
 * total energy  :  -111.1330162 Eh     change       -0.1346442E-02 Eh
   gradient norm :     0.0159787 Eh/α   predicted    -0.1339314E-02 (  -0.53%)
   displ. norm   :     0.8094867 α      lambda       -0.1617853E-02
   maximum displ.:     0.4603639 α      in ANC's #1, #3, #2, ...

........................................................................
.............................. CYCLE   30 ..............................
........................................................................

 iter      E             dE          RMSdq      gap      omega  full diag
   1   -112.8068130 -0.112807E+03  0.924E-02    1.42       0.0  T
   2   -112.8068167 -0.362088E-05  0.548E-02    1.42       1.0  T
   3   -112.8068021  0.145538E-04  0.112E-02    1.41       1.0  T
   4   -112.8068176 -0.155371E-04  0.289E-03    1.42       3.9  T
   5   -112.8068185 -0.818186E-06  0.119E-03    1.42       9.5  T
   6   -112.8068185 -0.367606E-07  0.639E-04    1.42      17.7  T
   7   -112.8068185 -0.912729E-08  0.175E-04    1.42      64.8  T
     SCC iter.                  ...        0 min,  0.215 sec
     gradient                   ...        0 min,  0.015 sec
 * total energy  :  -111.1344248 Eh     change       -0.1408542E-02 Eh
   gradient norm :     0.0145885 Eh/α   predicted    -0.1338992E-02 (  -4.94%)
   displ. norm   :     0.7348410 α      lambda       -0.1653030E-02
   maximum displ.:     0.4461513 α      in ANC's #1, #3, #2, ...

........................................................................
.............................. CYCLE   31 ..............................
........................................................................

 iter      E             dE          RMSdq      gap      omega  full diag
   1   -112.8089634 -0.112809E+03  0.805E-02    1.41       0.0  T
   2   -112.8089718 -0.838528E-05  0.478E-02    1.41       1.0  T
   3   -112.8089440  0.277812E-04  0.198E-02    1.41       1.0  T
   4   -112.8089761 -0.320901E-04  0.295E-03    1.41       3.8  T
   5   -112.8089769 -0.767133E-06  0.141E-03    1.41       8.0  T
   6   -112.8089770 -0.153374E-06  0.653E-04    1.41      17.3  T
   7   -112.8089771 -0.693272E-08  0.314E-04    1.41      36.0  T
     SCC iter.                  ...        0 min,  0.148 sec
     gradient                   ...        0 min,  0.016 sec
 * total energy  :  -111.1358110 Eh     change       -0.1386205E-02 Eh
   gradient norm :     0.0110531 Eh/α   predicted    -0.1272840E-02 (  -8.18%)
   displ. norm   :     0.7599694 α      lambda       -0.1462958E-02
   maximum displ.:     0.4764628 α      in ANC's #1, #3, #2, ...

........................................................................
.............................. CYCLE   32 ..............................
........................................................................

 iter      E             dE          RMSdq      gap      omega  full diag
   1   -112.8104325 -0.112810E+03  0.772E-02    1.41       0.0  T
   2   -112.8104345 -0.201676E-05  0.456E-02    1.41       1.0  T
   3   -112.8104309  0.353139E-05  0.649E-03    1.41       1.7  T
   4   -112.8104351 -0.412890E-05  0.210E-03    1.41       5.4  T
   5   -112.8104354 -0.290182E-06  0.115E-03    1.41       9.9  T
   6   -112.8104354 -0.317663E-07  0.585E-04    1.41      19.3  T
   7   -112.8104354 -0.129278E-07  0.195E-04    1.41      58.2  T
     SCC iter.                  ...        0 min,  0.231 sec
     gradient                   ...        0 min,  0.016 sec
 * total energy  :  -111.1371050 Eh     change       -0.1294025E-02 Eh
   gradient norm :     0.0102228 Eh/α   predicted    -0.1153949E-02 ( -10.82%)
   displ. norm   :     0.8078230 α      lambda       -0.1435795E-02
   maximum displ.:     0.5220477 α      in ANC's #1, #2, #3, ...

........................................................................
.............................. CYCLE   33 ..............................
........................................................................

 iter      E             dE          RMSdq      gap      omega  full diag
   1   -112.8133044 -0.112813E+03  0.750E-02    1.41       0.0  T
   2   -112.8133061 -0.169128E-05  0.444E-02    1.41       1.0  T
   3   -112.8133006  0.551017E-05  0.743E-03    1.41       1.5  T
   4   -112.8133070 -0.644678E-05  0.181E-03    1.41       6.2  T
   5   -112.8133072 -0.122169E-06  0.113E-03    1.41      10.0  T
   6   -112.8133072 -0.243452E-07  0.618E-04    1.41      18.3  T
   7   -112.8133072 -0.206056E-07  0.202E-04    1.41      56.0  T
     SCC iter.                  ...        0 min,  0.155 sec
     gradient                   ...        0 min,  0.014 sec
 * total energy  :  -111.1383945 Eh     change       -0.1289501E-02 Eh
   gradient norm :     0.0094891 Eh/α   predicted    -0.1186382E-02 (  -8.00%)
   displ. norm   :     0.8456358 α      lambda       -0.1457744E-02
   maximum displ.:     0.5624266 α      in ANC's #1, #2, #3, ...

........................................................................
.............................. CYCLE   34 ..............................
........................................................................

 iter      E             dE          RMSdq      gap      omega  full diag
   1   -112.8170563 -0.112817E+03  0.822E-02    1.42       0.0  T
   2   -112.8170592 -0.288614E-05  0.488E-02    1.42       1.0  T
   3   -112.8170454  0.137886E-04  0.114E-02    1.41       1.0  T
   4   -112.8170603 -0.148836E-04  0.237E-03    1.42       4.8  T
   5   -112.8170608 -0.520341E-06  0.108E-03    1.42      10.5  T
   6   -112.8170609 -0.493200E-07  0.535E-04    1.42      21.1  T
   7   -112.8170609 -0.540525E-08  0.164E-04    1.42      69.0  T
     SCC iter.                  ...        0 min,  0.129 sec
     gradient                   ...        0 min,  0.014 sec
 * total energy  :  -111.1396532 Eh     change       -0.1258762E-02 Eh
   gradient norm :     0.0097842 Eh/α   predicted    -0.1250089E-02 (  -0.69%)
   displ. norm   :     0.8435493 α      lambda       -0.1424014E-02
   maximum displ.:     0.5697026 α      in ANC's #1, #2, #9, ...

........................................................................
.............................. CYCLE   35 ..............................
........................................................................

 iter      E             dE          RMSdq      gap      omega  full diag
   1   -112.8175332 -0.112818E+03  0.761E-02    1.42       0.0  T
   2   -112.8175373 -0.413413E-05  0.450E-02    1.42       1.0  T
   3   -112.8175285  0.880121E-05  0.948E-03    1.42       1.2  T
   4   -112.8175380 -0.944478E-05  0.269E-03    1.42       4.2  T
   5   -112.8175387 -0.718672E-06  0.117E-03    1.42       9.7  T
   6   -112.8175387 -0.507746E-07  0.708E-04    1.42      16.0  T
   7   -112.8175388 -0.135225E-07  0.252E-04    1.42      44.9  T
     SCC iter.                  ...        0 min,  0.142 sec
     gradient                   ...        0 min,  0.015 sec
 * total energy  :  -111.1408904 Eh     change       -0.1237200E-02 Eh
   gradient norm :     0.0091092 Eh/α   predicted    -0.1218655E-02 (  -1.50%)
   displ. norm   :     0.8193793 α      lambda       -0.1417306E-02
   maximum displ.:     0.5547671 α      in ANC's #1, #9, #2, ...

........................................................................
.............................. CYCLE   36 ..............................
........................................................................

 iter      E             dE          RMSdq      gap      omega  full diag
   1   -112.8253043 -0.112825E+03  0.817E-02    1.43       0.0  T
   2   -112.8253157 -0.113295E-04  0.487E-02    1.43       1.0  T
   3   -112.8252878  0.278968E-04  0.212E-02    1.42       1.0  T
   4   -112.8253203 -0.325414E-04  0.368E-03    1.43       3.1  T
   5   -112.8253215 -0.118940E-05  0.176E-03    1.43       6.4  T
   6   -112.8253218 -0.285105E-06  0.657E-04    1.43      17.2  T
   7   -112.8253218 -0.751184E-08  0.312E-04    1.43      36.3  T
     SCC iter.                  ...        0 min,  0.243 sec
     gradient                   ...        0 min,  0.017 sec
 * total energy  :  -111.1418829 Eh     change       -0.9924282E-03 Eh
   gradient norm :     0.0147720 Eh/α   predicted    -0.1184432E-02 (  19.35%)
   displ. norm   :     0.8102559 α      lambda       -0.1512910E-02
   maximum displ.:     0.5583329 α      in ANC's #1, #2, #4, ...

........................................................................
.............................. CYCLE   37 ..............................
........................................................................

 iter      E             dE          RMSdq      gap      omega  full diag
   1   -112.8183140 -0.112818E+03  0.775E-02    1.43       0.0  T
   2   -112.8183359 -0.218903E-04  0.476E-02    1.43       1.0  T
   3   -112.8183075  0.283399E-04  0.217E-02    1.43       1.0  T
   4   -112.8183429 -0.353271E-04  0.411E-03    1.43       2.8  T
   5   -112.8183441 -0.119536E-05  0.146E-03    1.43       7.8  T
   6   -112.8183442 -0.138445E-06  0.625E-04    1.43      18.1  T
   7   -112.8183442 -0.244312E-08  0.320E-04    1.43      35.4  T
     SCC iter.                  ...        0 min,  0.142 sec
     gradient                   ...        0 min,  0.015 sec
 * total energy  :  -111.1429954 Eh     change       -0.1112533E-02 Eh
   gradient norm :     0.0121173 Eh/α   predicted    -0.1253084E-02 (  12.63%)
   displ. norm   :     0.6963527 α      lambda       -0.1370676E-02
   maximum displ.:     0.4812082 α      in ANC's #1, #7, #9, ...

........................................................................
.............................. CYCLE   38 ..............................
........................................................................

 iter      E             dE          RMSdq      gap      omega  full diag
   1   -112.8176211 -0.112818E+03  0.814E-02    1.43       0.0  T
   2   -112.8176262 -0.507224E-05  0.483E-02    1.43       1.0  T
   3   -112.8176194  0.685860E-05  0.844E-03    1.43       1.3  T
   4   -112.8176269 -0.753311E-05  0.295E-03    1.43       3.8  T
   5   -112.8176277 -0.797724E-06  0.123E-03    1.43       9.2  T
   6   -112.8176277 -0.147053E-07  0.717E-04    1.43      15.8  T
   7   -112.8176277 -0.239901E-07  0.289E-04    1.43      39.2  T
     SCC iter.                  ...        0 min,  0.178 sec
     gradient                   ...        0 min,  0.015 sec
 * total energy  :  -111.1437607 Eh     change       -0.7653261E-03 Eh
   gradient norm :     0.0187321 Eh/α   predicted    -0.1017665E-02 (  32.97%)
   displ. norm   :     0.6826024 α      lambda       -0.1270269E-02
   maximum displ.:     0.4764010 α      in ANC's #1, #2, #9, ...

........................................................................
.............................. CYCLE   39 ..............................
........................................................................

 iter      E             dE          RMSdq      gap      omega  full diag
   1   -112.8168232 -0.112817E+03  0.645E-02    1.43       0.0  T
   2   -112.8168255 -0.238713E-05  0.384E-02    1.43       1.0  T
   3   -112.8168174  0.812075E-05  0.838E-03    1.43       1.4  T
   4   -112.8168261 -0.867027E-05  0.212E-03    1.43       5.4  T
   5   -112.8168265 -0.440594E-06  0.845E-04    1.43      13.4  T
   6   -112.8168266 -0.371163E-07  0.425E-04    1.43      26.7  T
     SCC iter.                  ...        0 min,  0.122 sec
     gradient                   ...        0 min,  0.016 sec
 * total energy  :  -111.1448241 Eh     change       -0.1063374E-02 Eh
   gradient norm :     0.0102330 Eh/α   predicted    -0.9310738E-03 ( -12.44%)
   displ. norm   :     0.6659974 α      lambda       -0.1349523E-02
   maximum displ.:     0.4353410 α      in ANC's #1, #7, #9, ...

........................................................................
.............................. CYCLE   40 ..............................
........................................................................

 iter      E             dE          RMSdq      gap      omega  full diag
   1   -112.8259831 -0.112826E+03  0.846E-02    1.43       0.0  T
   2   -112.8259972 -0.140687E-04  0.504E-02    1.43       1.0  T
   3   -112.8259716  0.256614E-04  0.183E-02    1.43       1.0  T
   4   -112.8260009 -0.293906E-04  0.363E-03    1.43       3.1  T
   5   -112.8260021 -0.118900E-05  0.128E-03    1.43       8.8  T
   6   -112.8260022 -0.788801E-07  0.717E-04    1.43      15.8  T
   7   -112.8260022 -0.804323E-08  0.309E-04    1.43      36.6  T
     SCC iter.                  ...        0 min,  0.128 sec
     gradient                   ...        0 min,  0.015 sec
 * total energy  :  -111.1457600 Eh     change       -0.9359055E-03 Eh
   gradient norm :     0.0123895 Eh/α   predicted    -0.9740553E-03 (   4.08%)
   displ. norm   :     0.8480353 α      lambda       -0.1200753E-02
   maximum displ.:     0.5979214 α      in ANC's #1, #7, #2, ...

........................................................................
.............................. CYCLE   41 ..............................
........................................................................

 iter      E             dE          RMSdq      gap      omega  full diag
   1   -112.8209720 -0.112821E+03  0.867E-02    1.43       0.0  T
   2   -112.8209789 -0.692511E-05  0.514E-02    1.43       1.0  T
   3   -112.8209650  0.139207E-04  0.136E-02    1.43       1.0  T
   4   -112.8209810 -0.160747E-04  0.225E-03    1.43       5.0  T
   5   -112.8209814 -0.324530E-06  0.102E-03    1.43      11.1  T
   6   -112.8209814 -0.388992E-07  0.579E-04    1.43      19.6  T
   7   -112.8209814 -0.823609E-08  0.258E-04    1.43      43.9  T
     SCC iter.                  ...        0 min,  0.178 sec
     gradient                   ...        0 min,  0.014 sec
 * total energy  :  -111.1468318 Eh     change       -0.1071772E-02 Eh
   gradient norm :     0.0089918 Eh/α   predicted    -0.1032147E-02 (  -3.70%)
   displ. norm   :     0.7875019 α      lambda       -0.1197242E-02
   maximum displ.:     0.5409691 α      in ANC's #1, #7, #2, ...

........................................................................
.............................. CYCLE   42 ..............................
........................................................................

 iter      E             dE          RMSdq      gap      omega  full diag
   1   -112.8185670 -0.112819E+03  0.916E-02    1.43       0.0  T
   2   -112.8185754 -0.840374E-05  0.541E-02    1.43       1.0  T
   3   -112.8185671  0.827855E-05  0.967E-03    1.43       1.2  T
   4   -112.8185764 -0.926018E-05  0.291E-03    1.43       3.9  T
   5   -112.8185772 -0.806272E-06  0.111E-03    1.43      10.2  T
   6   -112.8185772 -0.289052E-07  0.650E-04    1.43      17.4  T
   7   -112.8185772 -0.120607E-07  0.222E-04    1.43      50.9  T
     SCC iter.                  ...        0 min,  0.160 sec
     gradient                   ...        0 min,  0.016 sec
 * total energy  :  -111.1477992 Eh     change       -0.9674307E-03 Eh
   gradient norm :     0.0115319 Eh/α   predicted    -0.9698648E-03 (   0.25%)
   displ. norm   :     0.8341886 α      lambda       -0.1110450E-02
   maximum displ.:     0.5771952 α      in ANC's #1, #7, #9, ...
 * RMSD in coord.:     1.5835678 α      energy gain  -0.2554852E-01 Eh

generating ANC from exact Hessian ...
Using Lindh-Hessian (1995)
 Shifting diagonal of input Hessian by    9.8690881532432426E-003
 Lowest  eigenvalues of input Hessian
    0.000000    0.000000    0.000000    0.000000    0.000000    0.000000
    0.010000    0.010092    0.010181    0.010330    0.010421    0.010498
    0.010841    0.011121    0.011305    0.011623    0.012557    0.012657
 Highest eigenvalues
    2.015980    2.057462    2.082505    2.097988    2.220216    2.247044


........................................................................
.............................. CYCLE   43 ..............................
........................................................................

 iter      E             dE          RMSdq      gap      omega  full diag
   1   -112.8188013 -0.112819E+03  0.863E-02    1.44       0.0  T
   2   -112.8188162 -0.149435E-04  0.518E-02    1.44       1.0  T
   3   -112.8187826  0.336144E-04  0.171E-02    1.44       1.0  T
   4   -112.8188190 -0.363608E-04  0.441E-03    1.44       2.6  T
   5   -112.8188212 -0.221816E-05  0.106E-03    1.44      10.7  T
   6   -112.8188212 -0.372696E-07  0.626E-04    1.44      18.1  T
   7   -112.8188212 -0.913680E-08  0.302E-04    1.44      37.5  T
     SCC iter.                  ...        0 min,  0.126 sec
     gradient                   ...        0 min,  0.015 sec
 * total energy  :  -111.1486935 Eh     change       -0.8943111E-03 Eh
   gradient norm :     0.0118111 Eh/α   predicted     0.0000000E+00 (-100.00%)
   displ. norm   :     0.1286051 α      lambda       -0.4939112E-03
   maximum displ.:     0.0920501 α      in ANC's #1, #17, #2, ...

........................................................................
.............................. CYCLE   44 ..............................
........................................................................

 iter      E             dE          RMSdq      gap      omega  full diag
   1   -112.8252770 -0.112825E+03  0.248E-02    1.44       0.0  T
   2   -112.8252808 -0.386728E-05  0.152E-02    1.44       1.0  T
   3   -112.8252775  0.332296E-05  0.814E-03    1.44       1.4  T
   4   -112.8252823 -0.482221E-05  0.188E-03    1.44       6.0  T
   5   -112.8252826 -0.251102E-06  0.626E-04    1.44      18.1  T
   6   -112.8252826 -0.173190E-07  0.325E-04    1.44      34.8  T
     SCC iter.                  ...        0 min,  0.132 sec
     gradient                   ...        0 min,  0.014 sec
 * total energy  :  -111.1490630 Eh     change       -0.3694405E-03 Eh
   gradient norm :     0.0036132 Eh/α   predicted    -0.2510408E-03 ( -32.05%)
   displ. norm   :     0.2306048 α      lambda       -0.3881993E-03
   maximum displ.:     0.1696633 α      in ANC's #1, #2, #17, ...

........................................................................
.............................. CYCLE   45 ..............................
........................................................................

 iter      E             dE          RMSdq      gap      omega  full diag
   1   -112.8300417 -0.112830E+03  0.307E-02    1.44       0.0  T
   2   -112.8300451 -0.340402E-05  0.186E-02    1.44       1.0  T
   3   -112.8300394  0.571243E-05  0.933E-03    1.44       1.2  T
   4   -112.8300466 -0.725242E-05  0.157E-03    1.44       7.2  T
   5   -112.8300468 -0.174894E-06  0.614E-04    1.44      18.4  T
   6   -112.8300468 -0.171788E-07  0.313E-04    1.44      36.2  T
     SCC iter.                  ...        0 min,  0.169 sec
     gradient                   ...        0 min,  0.014 sec
 * total energy  :  -111.1493616 Eh     change       -0.2986660E-03 Eh
   gradient norm :     0.0041129 Eh/α   predicted    -0.2044606E-03 ( -31.54%)
   displ. norm   :     0.2962060 α      lambda       -0.3428553E-03
   maximum displ.:     0.2137838 α      in ANC's #1, #2, #17, ...

........................................................................
.............................. CYCLE   46 ..............................
........................................................................

 iter      E             dE          RMSdq      gap      omega  full diag
   1   -112.8314130 -0.112831E+03  0.344E-02    1.44       0.0  T
   2   -112.8314147 -0.168601E-05  0.206E-02    1.44       1.0  T
   3   -112.8314093  0.542363E-05  0.802E-03    1.44       1.4  T
   4   -112.8314156 -0.626470E-05  0.114E-03    1.44       9.9  T
   5   -112.8314156 -0.846128E-07  0.561E-04    1.44      20.2  T
   6   -112.8314156 -0.132213E-07  0.306E-04    1.44      37.0  T
     SCC iter.                  ...        0 min,  0.128 sec
     gradient                   ...        0 min,  0.016 sec
 * total energy  :  -111.1496669 Eh     change       -0.3052662E-03 Eh
   gradient norm :     0.0061325 Eh/α   predicted    -0.1864685E-03 ( -38.92%)
   displ. norm   :     0.3920274 α      lambda       -0.4350104E-03
   maximum displ.:     0.2769105 α      in ANC's #1, #2, #17, ...

........................................................................
.............................. CYCLE   47 ..............................
........................................................................

 iter      E             dE          RMSdq      gap      omega  full diag
   1   -112.8298159 -0.112830E+03  0.438E-02    1.43       0.0  T
   2   -112.8298169 -0.963220E-06  0.261E-02    1.44       1.0  T
   3   -112.8298136  0.329905E-05  0.607E-03    1.44       1.9  T
   4   -112.8298173 -0.368437E-05  0.120E-03    1.44       9.4  T
   5   -112.8298174 -0.947124E-07  0.651E-04    1.44      17.4  T
   6   -112.8298174 -0.168572E-07  0.341E-04    1.44      33.2  T
     SCC iter.                  ...        0 min,  0.103 sec
     gradient                   ...        0 min,  0.015 sec
 * total energy  :  -111.1500523 Eh     change       -0.3854334E-03 Eh
   gradient norm :     0.0052901 Eh/α   predicted    -0.2509346E-03 ( -34.90%)
   displ. norm   :     0.4238249 α      lambda       -0.4313065E-03
   maximum displ.:     0.3064590 α      in ANC's #1, #2, #6, ...

........................................................................
.............................. CYCLE   48 ..............................
........................................................................

 iter      E             dE          RMSdq      gap      omega  full diag
   1   -112.8272612 -0.112827E+03  0.468E-02    1.44       0.0  T
   2   -112.8272618 -0.614731E-06  0.279E-02    1.43       1.0  T
   3   -112.8272595  0.224328E-05  0.476E-03    1.44       2.4  T
   4   -112.8272620 -0.249821E-05  0.109E-03    1.43      10.4  T
   5   -112.8272621 -0.725094E-07  0.590E-04    1.44      19.2  T
   6   -112.8272621 -0.117034E-07  0.288E-04    1.44      39.3  T
     SCC iter.                  ...        0 min,  0.163 sec
     gradient                   ...        0 min,  0.025 sec
 * total energy  :  -111.1504216 Eh     change       -0.3692191E-03 Eh
   gradient norm :     0.0045104 Eh/α   predicted    -0.2543909E-03 ( -31.10%)
   displ. norm   :     0.3700978 α      lambda       -0.3518520E-03
   maximum displ.:     0.2768973 α      in ANC's #1, #2, #6, ...

........................................................................
.............................. CYCLE   49 ..............................
........................................................................

 iter      E             dE          RMSdq      gap      omega  full diag
   1   -112.8261108 -0.112826E+03  0.410E-02    1.44       0.0  T
   2   -112.8261116 -0.881125E-06  0.245E-02    1.43       1.0  T
   3   -112.8261076  0.402617E-05  0.631E-03    1.44       1.8  T
   4   -112.8261121 -0.449129E-05  0.930E-04    1.44      12.2  T
   5   -112.8261122 -0.479421E-07  0.506E-04    1.44      22.4  T
   6   -112.8261122 -0.116830E-07  0.267E-04    1.44      42.4  T
     SCC iter.                  ...        0 min,  0.126 sec
     gradient                   ...        0 min,  0.029 sec
 * total energy  :  -111.1507321 Eh     change       -0.3104986E-03 Eh
   gradient norm :     0.0044155 Eh/α   predicted    -0.2000243E-03 ( -35.58%)
   displ. norm   :     0.3579988 α      lambda       -0.3376343E-03
   maximum displ.:     0.2711027 α      in ANC's #1, #2, #6, ...

........................................................................
.............................. CYCLE   50 ..............................
........................................................................

 iter      E             dE          RMSdq      gap      omega  full diag
   1   -112.8263767 -0.112826E+03  0.401E-02    1.44       0.0  T
   2   -112.8263778 -0.102686E-05  0.239E-02    1.44       1.0  T
   3   -112.8263732  0.452960E-05  0.697E-03    1.44       1.6  T
   4   -112.8263784 -0.512256E-05  0.867E-04    1.44      13.1  T
   5   -112.8263784 -0.362534E-07  0.465E-04    1.44      24.4  T
   6   -112.8263784 -0.768787E-08  0.255E-04    1.44      44.4  T
     SCC iter.                  ...        0 min,  0.212 sec
     gradient                   ...        0 min,  0.016 sec
 * total energy  :  -111.1510398 Eh     change       -0.3077547E-03 Eh
   gradient norm :     0.0044096 Eh/α   predicted    -0.1904576E-03 ( -38.11%)
   displ. norm   :     0.4005863 α      lambda       -0.3699708E-03
   maximum displ.:     0.3028517 α      in ANC's #1, #2, #6, ...

........................................................................
.............................. CYCLE   51 ..............................
........................................................................

 iter      E             dE          RMSdq      gap      omega  full diag
   1   -112.8274010 -0.112827E+03  0.446E-02    1.44       0.0  T
   2   -112.8274019 -0.832286E-06  0.265E-02    1.44       1.0  T
   3   -112.8273986  0.326480E-05  0.601E-03    1.44       1.9  T
   4   -112.8274023 -0.371960E-05  0.821E-04    1.44      13.8  T
   5   -112.8274023 -0.247633E-07  0.446E-04    1.44      25.4  T
   6   -112.8274023 -0.434454E-08  0.228E-04    1.44      49.6  T
     SCC iter.                  ...        0 min,  0.109 sec
     gradient                   ...        0 min,  0.015 sec
 * total energy  :  -111.1513806 Eh     change       -0.3407445E-03 Eh
   gradient norm :     0.0042518 Eh/α   predicted    -0.2146708E-03 ( -37.00%)
   displ. norm   :     0.4576199 α      lambda       -0.4014322E-03
   maximum displ.:     0.3448140 α      in ANC's #1, #2, #6, ...

........................................................................
.............................. CYCLE   52 ..............................
........................................................................

 iter      E             dE          RMSdq      gap      omega  full diag
   1   -112.8285277 -0.112829E+03  0.500E-02    1.44       0.0  T
   2   -112.8285282 -0.517883E-06  0.297E-02    1.44       1.0  T
   3   -112.8285265  0.174878E-05  0.427E-03    1.44       2.6  T
   4   -112.8285285 -0.199941E-05  0.858E-04    1.44      13.2  T
   5   -112.8285285 -0.281752E-07  0.512E-04    1.44      22.1  T
   6   -112.8285285 -0.105638E-07  0.251E-04    1.44      45.2  T
     SCC iter.                  ...        0 min,  0.126 sec
     gradient                   ...        0 min,  0.014 sec
 * total energy  :  -111.1517537 Eh     change       -0.3731378E-03 Eh
   gradient norm :     0.0039755 Eh/α   predicted    -0.2427505E-03 ( -34.94%)
   displ. norm   :     0.5000993 α      lambda       -0.4171515E-03
   maximum displ.:     0.3761745 α      in ANC's #1, #2, #4, ...

........................................................................
.............................. CYCLE   53 ..............................
........................................................................

 iter      E             dE          RMSdq      gap      omega  full diag
   1   -112.8295212 -0.112830E+03  0.538E-02    1.44       0.0  T
   2   -112.8295215 -0.333026E-06  0.319E-02    1.44       1.0  T
   3   -112.8295202  0.136523E-05  0.355E-03    1.44       3.2  T
   4   -112.8295217 -0.155739E-05  0.848E-04    1.44      13.4  T
   5   -112.8295217 -0.294422E-07  0.491E-04    1.44      23.1  T
   6   -112.8295217 -0.858256E-08  0.197E-04    1.44      57.5  T
     SCC iter.                  ...        0 min,  0.154 sec
     gradient                   ...        0 min,  0.014 sec
 * total energy  :  -111.1521453 Eh     change       -0.3916328E-03 Eh
   gradient norm :     0.0036577 Eh/α   predicted    -0.2607415E-03 ( -33.42%)
   displ. norm   :     0.5296147 α      lambda       -0.4234611E-03
   maximum displ.:     0.3980756 α      in ANC's #1, #2, #4, ...

........................................................................
.............................. CYCLE   54 ..............................
........................................................................

 iter      E             dE          RMSdq      gap      omega  full diag
   1   -112.8301968 -0.112830E+03  0.567E-02    1.44       0.0  T
   2   -112.8301972 -0.360032E-06  0.336E-02    1.44       1.0  T
   3   -112.8301955  0.164290E-05  0.402E-03    1.44       2.8  T
   4   -112.8301974 -0.187720E-05  0.840E-04    1.44      13.5  T
   5   -112.8301974 -0.228632E-07  0.517E-04    1.44      21.9  T
   6   -112.8301975 -0.106135E-07  0.205E-04    1.44      55.1  T
     SCC iter.                  ...        0 min,  0.127 sec
     gradient                   ...        0 min,  0.015 sec
 * total energy  :  -111.1525451 Eh     change       -0.3998225E-03 Eh
   gradient norm :     0.0030906 Eh/α   predicted    -0.2711199E-03 ( -32.19%)
   displ. norm   :     0.5496679 α      lambda       -0.4217210E-03
   maximum displ.:     0.4139494 α      in ANC's #1, #2, #4, ...

........................................................................
.............................. CYCLE   55 ..............................
........................................................................

 iter      E             dE          RMSdq      gap      omega  full diag
   1   -112.8308226 -0.112831E+03  0.591E-02    1.44       0.0  T
   2   -112.8308231 -0.419568E-06  0.350E-02    1.44       1.0  T
   3   -112.8308213  0.172113E-05  0.426E-03    1.44       2.7  T
   4   -112.8308233 -0.198647E-05  0.850E-04    1.44      13.3  T
   5   -112.8308234 -0.216098E-07  0.529E-04    1.44      21.4  T
   6   -112.8308234 -0.110150E-07  0.215E-04    1.44      52.6  T
     SCC iter.                  ...        0 min,  0.107 sec
     gradient                   ...        0 min,  0.015 sec
 * total energy  :  -111.1529427 Eh     change       -0.3975217E-03 Eh
   gradient norm :     0.0027485 Eh/α   predicted    -0.2745692E-03 ( -30.93%)
   displ. norm   :     0.5604471 α      lambda       -0.4059605E-03
   maximum displ.:     0.4239473 α      in ANC's #1, #2, #4, ...

........................................................................
.............................. CYCLE   56 ..............................
........................................................................

 iter      E             dE          RMSdq      gap      omega  full diag
   1   -112.8309094 -0.112831E+03  0.602E-02    1.44       0.0  T
   2   -112.8309099 -0.490477E-06  0.356E-02    1.44       1.0  T
   3   -112.8309088  0.108751E-05  0.347E-03    1.44       3.3  T
   4   -112.8309101 -0.130255E-05  0.881E-04    1.44      12.9  T
   5   -112.8309101 -0.326105E-07  0.496E-04    1.44      22.8  T
   6   -112.8309101 -0.580411E-08  0.247E-04    1.44      45.8  T
     SCC iter.                  ...        0 min,  0.107 sec
     gradient                   ...        0 min,  0.015 sec
 * total energy  :  -111.1533231 Eh     change       -0.3804510E-03 Eh
   gradient norm :     0.0020459 Eh/α   predicted    -0.2667414E-03 ( -29.89%)
   displ. norm   :     0.5557966 α      lambda       -0.3807811E-03
   maximum displ.:     0.4242703 α      in ANC's #1, #2, #4, ...

........................................................................
.............................. CYCLE   57 ..............................
[...]
   109   6 C      110   6 C                                       1.5378178
   109   6 C      111   6 C                                       1.5337045
   109   6 C      112   6 C                                       1.5321972
   113   6 C      114   6 C                                       1.5308521
   113   6 C      115   6 C                                       1.5327984
   113   6 C      116   6 C                                       1.5380331
   115   6 C      117   1 H                                       1.0858510
   115   6 C      118   1 H                                       1.0862397
   115   6 C      119   1 H                                       1.0881214
   114   6 C      120   1 H                                       1.0883277
   114   6 C      121   1 H                                       1.0870348
   114   6 C      122   1 H                                       1.0863457
   116   6 C      123   1 H                                       1.0878938
   116   6 C      124   1 H                                       1.0877381
   116   6 C      125   1 H                                       1.0881550
    93   6 C      126   1 H                                       1.0789775
    95   6 C      127   1 H                                       1.0784906
    99   6 C      128   1 H                                       1.0777103
    97   6 C      129   1 H                                       1.0779602
   107   6 C      130   1 H                                       1.0880607
   107   6 C      131   1 H                                       1.0866518
   107   6 C      132   1 H                                       1.0870318
   108   6 C      133   1 H                                       1.0866339
   108   6 C      134   1 H                                       1.0878019
   108   6 C      135   1 H                                       1.0884901
   104   6 C      136   1 H                                       1.0895434
   104   6 C      137   1 H                                       1.0950195
   104   6 C      138   1 H                                       1.0960981
   105   6 C      139   1 H                                       1.0909932
   105   6 C      140   1 H                                       1.0949970
   105   6 C      141   1 H                                       1.0943505
    79   6 C      142   1 H                                       1.0767217 (min)
    83   6 C      143   1 H                                       1.0781435
   112   6 C      144   1 H                                       1.0880319
   112   6 C      145   1 H                                       1.0880368
   112   6 C      146   1 H                                       1.0875852
   111   6 C      147   1 H                                       1.0850144
   111   6 C      148   1 H                                       1.0881676
   111   6 C      149   1 H                                       1.0866873
   110   6 C      150   1 H                                       1.0879747
   110   6 C      151   1 H                                       1.0862946
   110   6 C      152   1 H                                       1.0885192
   106   6 C      153   6 C                                       1.5354460
   153   6 C      154   1 H                                       1.0878090
   153   6 C      155   1 H                                       1.0867465
   153   6 C      156   1 H                                       1.0877704

 * 3 distinct bonds (by element types)

   Z      Z             #   av. dist./Å        max./Å        min./Å
   1 H    6 C          78     1.0868649     1.0960981     1.0767217
   6 C    6 C          59     1.4414396     1.5382308     1.3816910
Note: The following floating-point exceptions are signalling: IEEE_UNDERFLOW_FLAG
normal termination of xtb
   6 C    8 O          12     1.3291187     1.4054949     1.2208942


optimized geometry written to: xtbopt.mol


           -------------------------------------------------
          | TOTAL ENERGY             -222.342472606093 Eh   |
          | GRADIENT NORM               0.000386832932 Eh/α |
          | HOMO-LUMO GAP               1.386896779268 eV   |
           -------------------------------------------------
########################################################################
[WARNING] Runtime exception occurred
-3- restart_readRestart: Dimension missmatch in restart file.
-2- restart_readRestart: Multiplicity missmatch in restart file.
-1- restart_readRestart: Number of electron missmatch in restart file.
########################################################################

------------------------------------------------------------------------
 * finished run on 2024/12/02 at 12:18:25.204     
------------------------------------------------------------------------
 total:
 * wall-time:     0 d,  0 h,  0 min, 57.129 sec
 *  cpu-time:     0 d,  0 h,  2 min, 56.447 sec
 * ratio c/w:     3.089 speedup
 SCF:
 * wall-time:     0 d,  0 h,  0 min,  1.150 sec
 *  cpu-time:     0 d,  0 h,  0 min,  3.841 sec
 * ratio c/w:     3.340 speedup
 ANC optimizer:
 * wall-time:     0 d,  0 h,  0 min, 55.945 sec
 *  cpu-time:     0 d,  0 h,  2 min, 52.557 sec
 * ratio c/w:     3.084 speedup

Running optimization for loose_opt_dimer.mol
      -----------------------------------------------------------      
     |                   =====================                   |     
     |                           x T B                           |     
     |                   =====================                   |     
     |                         S. Grimme                         |     
     |          Mulliken Center for Theoretical Chemistry        |     
     |                    University of Bonn                     |     
      -----------------------------------------------------------      

   * xtb version 6.7.1 (edcfbbe) compiled by 'runner@Mac-1732539442253.local' on 2024-11-25

   xtb is free software: you can redistribute it and/or modify it under
   the terms of the GNU Lesser General Public License as published by
   the Free Software Foundation, either version 3 of the License, or
   (at your option) any later version.
   
   xtb is distributed in the hope that it will be useful,
   but WITHOUT ANY WARRANTY; without even the implied warranty of
   MERCHANTABILITY or FITNESS FOR A PARTICULAR PURPOSE.  See the
   GNU Lesser General Public License for more details.
   
   Cite this work as:
   * C. Bannwarth, E. Caldeweyher, S. Ehlert, A. Hansen, P. Pracht,
     J. Seibert, S. Spicher, S. Grimme, WIREs Comput. Mol. Sci., 2020, 11,
     e01493. DOI: 10.1002/wcms.1493
   
   for GFN2-xTB:
   * C. Bannwarth, S. Ehlert and S. Grimme., J. Chem. Theory Comput., 2019,
     15, 1652-1671. DOI: 10.1021/acs.jctc.8b01176
   for GFN1-xTB:
   * S. Grimme, C. Bannwarth, P. Shushkov, J. Chem. Theory Comput., 2017,
     13, 1989-2009. DOI: 10.1021/acs.jctc.7b00118
   for GFN0-xTB:
   * P. Pracht, E. Caldeweyher, S. Ehlert, S. Grimme, ChemRxiv, 2019, preprint.
     DOI: 10.26434/chemrxiv.8326202.v1
   for GFN-FF:
   * S. Spicher and S. Grimme, Angew. Chem. Int. Ed., 2020, 59, 15665-15673.
     DOI: 10.1002/anie.202004239
   
   for ALPB and GBSA implicit solvation:
   * S. Ehlert, M. Stahn, S. Spicher, S. Grimme, J. Chem. Theory Comput.,
     2021, 17, 4250-4261. DOI: 10.1021/acs.jctc.1c00471
   
   for ddCOSMO and CPCM-X implicit solvation:
   * M. Stahn, S. Ehlert, S. Grimme, J. Phys. Chem. A,
     2023, XX, XXXX-XXXX. DOI: 10.1021/acs.jpca.3c04382
   
   for DFT-D4:
   * E. Caldeweyher, C. Bannwarth and S. Grimme, J. Chem. Phys., 2017,
     147, 034112. DOI: 10.1063/1.4993215
   * E. Caldeweyher, S. Ehlert, A. Hansen, H. Neugebauer, S. Spicher,
     C. Bannwarth and S. Grimme, J. Chem. Phys., 2019, 150, 154122.
     DOI: 10.1063/1.5090222
   * E. Caldeweyher, J.-M. Mewes, S. Ehlert and S. Grimme, Phys. Chem. Chem. Phys.
     2020, 22, 8499-8512. DOI: 10.1039/D0CP00502A
   
   for sTDA-xTB:
   * S. Grimme and C. Bannwarth, J. Chem. Phys., 2016, 145, 054103.
     DOI: 10.1063/1.4959605
   
   in the mass-spec context:
   * V. Asgeirsson, C. Bauer and S. Grimme, Chem. Sci., 2017, 8, 4879.
     DOI: 10.1039/c7sc00601b
   * J. Koopman and S. Grimme, ACS Omega 2019, 4, 12, 15120-15133.
     DOI: 10.1021/acsomega.9b02011
   
   for metadynamics refer to:
   * S. Grimme, J. Chem. Theory Comput., 2019, 155, 2847-2862
     DOI: 10.1021/acs.jctc.9b00143
   
   for SPH calculations refer to:
   * S. Spicher and S. Grimme, J. Chem. Theory Comput., 2021, 17, 1701-1714
     DOI: 10.1021/acs.jctc.0c01306
   
   for ONIOM refer to:
   * C. Plett, A. Katbashev, S. Ehlert, S. Grimme, M. Bursch,
     Phys. Chem. Chem. Phys., 2023, 25, 17860-17868. DOI: 10.1039/D3CP02178E
   
   for DIPRO refer to:
   * J. Kohn, N. Gildemeister, S. Grimme, D. Fazzi, A. Hansen,
     J. Chem. Phys., 2023, just accepted.
   
   for PTB refer to:
   * S. Grimme, M. Mueller, A. Hansen, J. Chem. Phys., 2023, 158, 124111.
     DOI: 10.1063/5.0137838
   
   with help from (in alphabetical order)
   P. Atkinson, C. Bannwarth, F. Bohle, G. Brandenburg, E. Caldeweyher
   M. Checinski, S. Dohm, S. Ehlert, S. Ehrlich, I. Gerasimov, C. Hölzer
   A. Katbashev, J. Kohn, J. Koopman, C. Lavigne, S. Lehtola, F. März, M. Müller,
   F. Musil, H. Neugebauer, J. Pisarek, C. Plett, P. Pracht, F. Pultar,
   J. Seibert, P. Shushkov, S. Spicher, M. Stahn, M. Steiner, T. Strunk,
   J. Stückrath, T. Rose, and J. Unsleber
   
 * started run on 2024/12/02 at 12:18:25.245     
   ID    Z sym.   atoms
    1    6 C      1-21, 26-38, 75, 79-99, 104-116, 153
    2    8 O      22-25, 100-103
    3    1 H      39-74, 76-78, 117-152, 154-156

           -------------------------------------------------
          |                Calculation Setup                |
           -------------------------------------------------

          program call               : xtb opt_dimer.mol --dipro 0.3 --gfn 2 --chrg 0 --uhf 2
          coordinate file            : opt_dimer.mol
          omp threads                :                     8


molecular fragmentation (1/2 indicates fragments):
111111111111111111111111111111111111111111111111111111111111111111111111
111111222222222222222222222222222222222222222222222222222222222222222222
222222222222
# atoms in fragment 1/2:    78    78
 fragment masses (1/2) :      523.68      523.68
CMA distance (Bohr)    :   8.518
constraining FC (au)   :  0.0500

           -------------------------------------------------
          |                 G F N 2 - x T B                 |
           -------------------------------------------------

        Reference                      10.1021/acs.jctc.8b01176
      * Hamiltonian:
        H0-scaling (s, p, d)           1.850000    2.230000    2.230000
        zeta-weighting                 0.500000
      * Dispersion:
        s8                             2.700000
        a1                             0.520000
        a2                             5.000000
        s9                             5.000000
      * Repulsion:
        kExp                           1.500000    1.000000
        rExp                           1.000000
      * Coulomb:
        alpha                          2.000000
        third order                    shell-resolved
        anisotropic                    true
        a3                             3.000000
        a5                             4.000000
        cn-shift                       1.200000
        cn-exp                         4.000000
        max-rad                        5.000000

q/qsh data taken from xtbrestart
CAMM data taken from xtbrestart
           -------------------------------------------------
          |                    D I P R O                    |
           -------------------------------------------------
Calculation for dimer 
--------------------- 
  
charge of dimer :   0.
unpaired e- of dimer :  2
repulsion energy          3.3563558800902E+00 Eh
dispersion energy         1.7859239001386E-02 Eh
number of electrons       4.0600000000000E+02 e
integral cutoff           1.7347787504999E+01 bohr

------------------------------------------------------------
  cycle        total energy    energy error   density error
------------------------------------------------------------
      1     -221.6159891263  -2.2499020E+02   1.4024408E-01
      2     -222.2271086687  -6.1111954E-01   6.5770800E-02
      3     -222.1589465384   6.8162130E-02   3.8272335E-02
      4     -222.2431522847  -8.4205746E-02   2.0464337E-02
      5     -222.3353982567  -9.2245972E-02   7.0210086E-03
      6     -222.3417644294  -6.3661727E-03   2.5184272E-03
      7     -222.3423487492  -5.8431986E-04   1.0814324E-03
      8     -222.3424174944  -6.8745138E-05   4.8707580E-04
      9     -222.3424247912  -7.2968000E-06   2.8573570E-04
     10     -222.3424408668  -1.6075648E-05   1.0862778E-04
     11     -222.3424423465  -1.4796377E-06   4.6191110E-05
     12     -222.3424425236  -1.7710107E-07   2.6778726E-05
     13     -222.3424425780  -5.4462788E-08   9.5208388E-06
------------------------------------------------------------

electronic energy        -2.2571665769712E+02 Eh
total energy             -2.2234244257803E+02 Eh

 total:                                   0.892 sec
 - repulsion                              0.000 sec (  0%)
 - dispersion                             0.008 sec (  0%)
 - coulomb                                0.003 sec (  0%)
 - hamiltonian                            0.008 sec (  0%)
 - scc                                    0.873 sec ( 97%)

Found 2 fragments!
Fragment 1:  1-78
Fragment 2:  79-156

[Info] Fragment spin read from .UHFfrag
Calculation for fragment 1
 ------------------------------
   
charge of fragment :   0.
unpaired e- of fragment :  1
------------------------------------------------------------
  cycle        total energy    energy error   density error
------------------------------------------------------------
      1     -110.7924711137  -1.1247238E+02   1.3989232E-01
      2     -111.1063808205  -3.1390971E-01   6.5000529E-02
      3     -111.0970798443   9.3009763E-03   3.5335147E-02
      4     -111.1255200790  -2.8440235E-02   1.7085633E-02
      5     -111.1498230253  -2.4302946E-02   6.0804426E-03
      6     -111.1520285549  -2.2055296E-03   2.3919697E-03
      7     -111.1522686935  -2.4013859E-04   9.8984222E-04
      8     -111.1522961396  -2.7446160E-05   3.9640853E-04
      9     -111.1522977839  -1.6442775E-06   1.7178877E-04
     10     -111.1522987221  -9.3815089E-07   6.1477429E-05
     11     -111.1522988666  -1.4456890E-07   3.4039351E-05
     12     -111.1522988993  -3.2664857E-08   1.5411892E-05
------------------------------------------------------------

 total:                                   0.305 sec
Calculation for fragment 2
 ------------------------------
   
charge of fragment :   0.
unpaired e- of fragment :  1
------------------------------------------------------------
  cycle        total energy    energy error   density error
------------------------------------------------------------
      1     -110.7939977921  -1.1247221E+02   1.4080513E-01
      2     -111.1070466764  -3.1304888E-01   6.5533070E-02
      3     -111.0971801737   9.8665027E-03   3.5500512E-02
      4     -111.1266245985  -2.9444425E-02   1.7158157E-02
      5     -111.1501902322  -2.3565634E-02   6.0472850E-03
      6     -111.1524726462  -2.2824140E-03   2.4153721E-03
      7     -111.1527352627  -2.6261651E-04   9.9120712E-04
      8     -111.1527638168  -2.8554097E-05   3.9857878E-04
      9     -111.1527654292  -1.6124031E-06   1.7530529E-04
     10     -111.1527664686  -1.0393822E-06   6.4164210E-05
     11     -111.1527666394  -1.7084214E-07   3.4114714E-05
     12     -111.1527666711  -3.1721484E-08   1.5707757E-05
------------------------------------------------------------

 total:                                   0.242 sec
   
   ::::::::::::::::::::::::::::::::::::::::::::::
   ::     D I P R O      C O U P L I N G S     ::
   ::::::::::::::::::::::::::::::::::::::::::::::
   
energy threshhold for near-degenerate orbitals near HOMO and LUMO considered for DIPRO:  0.300 eV
no. of orbitals within energy window of frag 1         3
no. of orbitals within energy window of frag 2         4
   
  Fragment 1 SOMO-1  Fragment 2 SOMO-2
--------------------------------------
E_mon(orb) frag1 frag2             -10.008   -10.285 eV
J(AB):                0.001 eV
S(AB):             0.00000851 Eh
|J(AB,eff)|:            0.002 eV
   
  Fragment 1 SOMO-1  Fragment 2 SOMO-1
--------------------------------------
E_mon(orb) frag1 frag2             -10.008   -10.045 eV
J(AB):                0.001 eV
S(AB):            -0.00003695 Eh
|J(AB,eff)|:            0.001 eV
   
  Fragment 1 SOMO-1  Fragment 2 SOMO 
--------------------------------------
E_mon(orb) frag1 frag2             -10.008    -9.970 eV
J(AB):               -0.002 eV
S(AB):             0.00004816 Eh
|J(AB,eff)|:            0.002 eV
   
  Fragment 1 SOMO-1  Fragment 2 LUMO 
--------------------------------------
E_mon(orb) frag1 frag2             -10.008    -9.035 eV
J(AB):               -0.027 eV
S(AB):             0.00119522 Eh
|J(AB,eff)|:            0.016 eV
   
  Fragment 1 SOMO   Fragment 2 SOMO-2
--------------------------------------
E_mon(orb) frag1 frag2              -9.905   -10.285 eV
J(AB):                0.022 eV
S(AB):            -0.00091462 Eh
|J(AB,eff)|:            0.013 eV
   
  Fragment 1 SOMO   Fragment 2 SOMO-1
--------------------------------------
E_mon(orb) frag1 frag2              -9.905   -10.045 eV
J(AB):               -0.003 eV
S(AB):             0.00007730 Eh
|J(AB,eff)|:            0.002 eV
   
  Fragment 1 SOMO   Fragment 2 SOMO 
--------------------------------------
E_mon(orb) frag1 frag2              -9.905    -9.970 eV
J(AB):               -0.004 eV
S(AB):             0.00014897 Eh
|J(AB,eff)|:            0.003 eV
   
  Fragment 1 SOMO   Fragment 2 LUMO 
--------------------------------------
E_mon(orb) frag1 frag2              -9.905    -9.035 eV
J(AB):               -0.001 eV
S(AB):            -0.00001217 Eh
|J(AB,eff)|:            0.001 eV
   
  Fragment 1 LUMO   Fragment 2 SOMO-2
--------------------------------------
E_mon(orb) frag1 frag2              -8.962   -10.285 eV
J(AB):               -0.030 eV
S(AB):             0.00130001 Eh
|J(AB,eff)|:            0.017 eV
   
  Fragment 1 LUMO   Fragment 2 SOMO-1
--------------------------------------
E_mon(orb) frag1 frag2              -8.962   -10.045 eV
J(AB):                0.011 eV
S(AB):            -0.00043312 Eh
|J(AB,eff)|:            0.007 eV
   
  Fragment 1 LUMO   Fragment 2 SOMO 
--------------------------------------
E_mon(orb) frag1 frag2              -8.962    -9.970 eV
J(AB):                0.008 eV
S(AB):            -0.00038767 Eh
|J(AB,eff)|:            0.005 eV
   
  Fragment 1 LUMO   Fragment 2 LUMO 
--------------------------------------
E_mon(orb) frag1 frag2              -8.962    -9.035 eV
J(AB):               -0.045 eV
S(AB):             0.00210652 Eh
|J(AB,eff)|:            0.026 eV
   
..............................................................................
:  total |J(AB,eff)| for hole transport (occ. MOs) :               0.014 eV  :
:  total |J(AB,eff)| for charge transport (unocc. MOs) :           0.026 eV  :
:  total |J(AB,eff)| for charge transfer (CT) :                    0.025 eV  :
..............................................................................
  
 Please remember, DIPRO is not available for restart!
   
normal termination of dipro
----------------------------------------------------------
 * finished run on 2024/12/02 at 12:18:26.713     
----------------------------------------------------------
 dipro:
 * wall-time:     0 d,  0 h,  0 min,  1.462 sec
 *  cpu-time:     0 d,  0 h,  0 min,  4.279 sec
 * ratio c/w:     2.927 speedup
