      -----------------------------------------------------------      
     |                   =====================                   |     
     |                           x T B                           |     
     |                   =====================                   |     
     |                         S. Grimme                         |     
     |          Mulliken Center for Theoretical Chemistry        |     
     |                    University of Bonn                     |     
      -----------------------------------------------------------      

   * xtb version 6.6.1 (8d0f1dd) compiled by 'runner@Mac-1690902418499.local' on 2023-08-01

   xtb is free software: you can redistribute it and/or modify it under
   the terms of the GNU Lesser General Public License as published by
   the Free Software Foundation, either version 3 of the License, or
   (at your option) any later version.
   
   xtb is distributed in the hope that it will be useful,
   but WITHOUT ANY WARRANTY; without even the implied warranty of
   MERCHANTABILITY or FITNESS FOR A PARTICULAR PURPOSE.  See the
   GNU Lesser General Public License for more details.
   
   Cite this work as:
   * C. Bannwarth, E. Caldeweyher, S. Ehlert, A. Hansen, P. Pracht,
     J. Seibert, S. Spicher, S. Grimme, WIREs Comput. Mol. Sci., 2020, 11,
     e01493. DOI: 10.1002/wcms.1493
   
   for GFN2-xTB:
   * C. Bannwarth, S. Ehlert and S. Grimme., J. Chem. Theory Comput., 2019,
     15, 1652-1671. DOI: 10.1021/acs.jctc.8b01176
   for GFN1-xTB:
   * S. Grimme, C. Bannwarth, P. Shushkov, J. Chem. Theory Comput., 2017,
     13, 1989-2009. DOI: 10.1021/acs.jctc.7b00118
   for GFN0-xTB:
   * P. Pracht, E. Caldeweyher, S. Ehlert, S. Grimme, ChemRxiv, 2019, preprint.
     DOI: 10.26434/chemrxiv.8326202.v1
   for GFN-FF:
   * S. Spicher and S. Grimme, Angew. Chem. Int. Ed., 2020, 59, 15665-15673.
     DOI: 10.1002/anie.202004239
   
   for ALPB and GBSA implicit solvation:
   * S. Ehlert, M. Stahn, S. Spicher, S. Grimme, J. Chem. Theory Comput.,
     2021, 17, 4250-4261. DOI: 10.1021/acs.jctc.1c00471
   
   for DFT-D4:
   * E. Caldeweyher, C. Bannwarth and S. Grimme, J. Chem. Phys., 2017,
     147, 034112. DOI: 10.1063/1.4993215
   * E. Caldeweyher, S. Ehlert, A. Hansen, H. Neugebauer, S. Spicher,
     C. Bannwarth and S. Grimme, J. Chem. Phys., 2019, 150, 154122.
     DOI: 10.1063/1.5090222
   * E. Caldeweyher, J.-M. Mewes, S. Ehlert and S. Grimme, Phys. Chem. Chem. Phys.
     2020, 22, 8499-8512. DOI: 10.1039/D0CP00502A
   
   for sTDA-xTB:
   * S. Grimme and C. Bannwarth, J. Chem. Phys., 2016, 145, 054103.
     DOI: 10.1063/1.4959605
   
   in the mass-spec context:
   * V. Asgeirsson, C. Bauer and S. Grimme, Chem. Sci., 2017, 8, 4879.
     DOI: 10.1039/c7sc00601b
   * J. Koopman and S. Grimme, ACS Omega 2019, 4, 12, 15120-15133.
     DOI: 10.1021/acsomega.9b02011
   
   for metadynamics refer to:
   * S. Grimme, J. Chem. Theory Comput., 2019, 155, 2847-2862
     DOI: 10.1021/acs.jctc.9b00143
   
   for SPH calculations refer to:
   * S. Spicher and S. Grimme, J. Chem. Theory Comput., 2021, 17, 1701-1714
     DOI: 10.1021/acs.jctc.0c01306
   
   with help from (in alphabetical order)
   P. Atkinson, C. Bannwarth, F. Bohle, G. Brandenburg, E. Caldeweyher
   M. Checinski, S. Dohm, S. Ehlert, S. Ehrlich, I. Gerasimov, C. Hölzer
   A. Katbashev, J. Koopman, C. Lavigne, S. Lehtola, F. März, M. Müller,
   F. Musil, H. Neugebauer, J. Pisarek, C. Plett, P. Pracht, F. Pultar,
   J. Seibert, P. Shushkov, S. Spicher, M. Stahn, M. Steiner, T. Strunk,
   J. Stückrath, T. Rose, and J. Unsleber
   
 * started run on 2024/11/11 at 15:23:27.883     

           -------------------------------------------------
          |                Calculation Setup                |
           -------------------------------------------------

          program call               : xtb stacked_dimer_Katherine3.mol --opt --gfn2 --chrg 0 --uhf 2 --tight
          coordinate file            : stacked_dimer_Katherine3.mol
          omp threads                :                     8

   ID    Z sym.   atoms
    1    6 C      1-21, 26-38, 75, 79-99, 104-116, 153
    2    8 O      22-25, 100-103
    3    1 H      39-74, 76-78, 117-152, 154-156

molecular fragmentation (1/2 indicates fragments):
111111111111111111111111111111111111111111111111111111111111111111111111
111111222222222222222222222222222222222222222222222222222222222222222222
222222222222
# atoms in fragment 1/2:    78    78
 fragment masses (1/2) :      523.68      523.68
CMA distance (Bohr)    :  11.338
constraining FC (au)   :  0.0500
########################################################################
[WARNING] Please study the warnings concerning your input carefully
-1- prog_main_parseArguments: Unknown option '--tight' provided
########################################################################

           -------------------------------------------------
          |                 G F N 2 - x T B                 |
           -------------------------------------------------

        Reference                      10.1021/acs.jctc.8b01176
      * Hamiltonian:
        H0-scaling (s, p, d)           1.850000    2.230000    2.230000
        zeta-weighting                 0.500000
      * Dispersion:
        s8                             2.700000
        a1                             0.520000
        a2                             5.000000
        s9                             5.000000
      * Repulsion:
        kExp                           1.500000    1.000000
        rExp                           1.000000
      * Coulomb:
        alpha                          2.000000
        third order                    shell-resolved
        anisotropic                    true
        a3                             3.000000
        a5                             4.000000
        cn-shift                       1.200000
        cn-exp                         4.000000
        max-rad                        5.000000


          ...................................................
          :                      SETUP                      :
          :.................................................:
          :  # basis functions                 390          :
          :  # atomic orbitals                 390          :
          :  # shells                          234          :
          :  # electrons                       406          :
          :  max. iterations                   250          :
          :  Hamiltonian                  GFN2-xTB          :
          :  restarted?                      false          :
          :  GBSA solvation                  false          :
          :  PC potential                    false          :
          :  electronic temp.          300.0000000     K    :
          :  accuracy                    1.0000000          :
          :  -> integral cutoff          0.2500000E+02      :
          :  -> integral neglect         0.1000000E-07      :
          :  -> SCF convergence          0.1000000E-05 Eh   :
          :  -> wf. convergence          0.1000000E-03 e    :
          :  Broyden damping             0.4000000          :
          ...................................................

 iter      E             dE          RMSdq      gap      omega  full diag
   1   -225.2742142 -0.225274E+03  0.385E+00    1.38       0.0  T
   2   -225.5432398 -0.269026E+00  0.218E+00    1.44       1.0  T
   3   -225.5128814  0.303585E-01  0.105E+00    1.35       1.0  T
   4   -225.5685673 -0.556860E-01  0.353E-01    1.33       1.0  T
   5   -225.5845158 -0.159485E-01  0.125E-01    1.36       1.0  T
   6   -225.5865990 -0.208315E-02  0.616E-02    1.34       1.0  T
   7   -225.5867722 -0.173270E-03  0.342E-02    1.36       1.0  T
   8   -225.5869557 -0.183498E-03  0.110E-02    1.35       1.0  T
   9   -225.5869616 -0.582431E-05  0.487E-03    1.35       1.6  T
  10   -225.5869642 -0.262317E-05  0.180E-03    1.35       4.5  T
  11   -225.5869643 -0.844017E-07  0.937E-04    1.35       8.5  T
  12   -225.5869643 -0.290430E-07  0.495E-04    1.35      16.2  T

   *** convergence criteria satisfied after 12 iterations ***

         #    Occupation            Energy/Eh            Energy/eV
      -------------------------------------------------------------
         1        2.0000           -0.7337840             -19.9673
       ...           ...                  ...                  ...
       198        2.0000           -0.3772083             -10.2644
       199        2.0000           -0.3748921             -10.2013
       200        2.0000           -0.3709518             -10.0941
       201        2.0000           -0.3706296             -10.0853
       202        2.0000           -0.3670753              -9.9886
       203        1.0000           -0.3376444              -9.1878
       204        1.0000           -0.3330295              -9.0622 (HOMO)
       205                         -0.2833534              -7.7104 (LUMO)
       206                         -0.2793891              -7.6026
       207                         -0.2501360              -6.8065
       208                         -0.2453229              -6.6756
       209                         -0.2327568              -6.3336
       ...                                ...                  ...
       390                          0.7449850              20.2721
      -------------------------------------------------------------
                  HL-Gap            0.0496760 Eh            1.3518 eV
             Fermi-level           -0.3302695 Eh           -8.9871 eV

 transition dipole moment (au) for excitation:         203         204
     X       Y       Z   
   0.0073   0.0001  -0.0616  total (au/Debye):    0.062   0.158
 dE (eV)             :    0.126
 oscillator strength :  0.16762E-04

 SCC (total)                   0 d,  0 h,  0 min,  1.122 sec
 SCC setup                      ...        0 min,  0.001 sec (  0.089%)
 Dispersion                     ...        0 min,  0.003 sec (  0.240%)
 classical contributions        ...        0 min,  0.001 sec (  0.056%)
 integral evaluation            ...        0 min,  0.011 sec (  0.992%)
 iterations                     ...        0 min,  0.977 sec ( 87.112%)
 molecular gradient             ...        0 min,  0.077 sec (  6.883%)
 printout                       ...        0 min,  0.052 sec (  4.627%)

         :::::::::::::::::::::::::::::::::::::::::::::::::::::
         ::                     SUMMARY                     ::
         :::::::::::::::::::::::::::::::::::::::::::::::::::::
         :: total energy            -222.211403242004 Eh    ::
         :: gradient norm              0.149266359751 Eh/a0 ::
         :: HOMO-LUMO gap              1.351753930047 eV    ::
         ::.................................................::
         :: SCC energy              -225.586964289102 Eh    ::
         :: -> isotropic ES            0.189759370808 Eh    ::
         :: -> anisotropic ES          0.034594474018 Eh    ::
         :: -> anisotropic XC          0.082759126325 Eh    ::
         :: -> dispersion             -0.205761159141 Eh    ::
         :: repulsion energy           3.363284979057 Eh    ::
         :: add. restraining           0.000000000000 Eh    ::
         :: total charge               0.000000000000 e     ::
         :::::::::::::::::::::::::::::::::::::::::::::::::::::

      ----------------------------------------------------------- 
     |                   =====================                   |
     |                        A N C O P T                        |
     |                   =====================                   |
     |               Approximate Normal Coordinate               |
     |                Rational Function Optimizer                |
      ----------------------------------------------------------- 

          ...................................................
          :                      SETUP                      :
          :.................................................:
          :   optimization level            normal          :
          :   max. optcycles                   468          :
          :   ANC micro-cycles                  20          :
          :   degrees of freedom               462          :
          :.................................................:
          :   RF solver                   davidson          :
          :   write xtbopt.log                true          :
          :   linear?                        false          :
          :   energy convergence         0.5000000E-05 Eh   :
          :   grad. convergence          0.1000000E-02 Eh/α :
          :   maxmium RF displ.          1.0000000          :
          :   Hlow (freq-cutoff)         0.1000000E-01      :
          :   Hmax (freq-cutoff)         5.0000000          :
          :   S6 in model hess.         20.0000000          :
          ...................................................

generating ANC from model Hessian ...
Using Lindh-Hessian (1995)
 Shifting diagonal of input Hessian by    1.0019514362823350E-002
 Lowest  eigenvalues of input Hessian
    0.010000    0.000000    0.000000    0.000000    0.000000    0.000000
    0.000000    0.010057    0.010127    0.010184    0.010235    0.010279
    0.010346    0.010357    0.010379    0.010446    0.010455    0.010502
 Highest eigenvalues
    2.106268    2.106308    2.221183    2.221184    2.244957    2.244958


........................................................................
.............................. CYCLE    1 ..............................
........................................................................

 iter      E             dE          RMSdq      gap      omega  full diag
   1   -225.5869643 -0.225587E+03  0.201E-04    1.35       0.0  T
   2   -225.5869643 -0.714635E-09  0.154E-04    1.35      52.0  T
   3   -225.5869643 -0.377918E-08  0.815E-05    1.35      98.3  T
     SCC iter.                  ...        0 min,  0.229 sec
     gradient                   ...        0 min,  0.084 sec
 * total energy  :  -222.2114033 Eh     change       -0.2837430E-07 Eh
   gradient norm :     0.1492648 Eh/α   predicted     0.0000000E+00 (-100.00%)
   displ. norm   :     0.7520468 α      lambda       -0.1005512E+00
   maximum displ.:     0.2962359 α      in ANC's #106, #114, #182, ...

........................................................................
.............................. CYCLE    2 ..............................
........................................................................

 iter      E             dE          RMSdq      gap      omega  full diag
   1   -225.6584978 -0.225658E+03  0.239E-01    1.34       0.0  T
   2   -225.6593684 -0.870584E-03  0.143E-01    1.36       1.0  T
   3   -225.6591389  0.229542E-03  0.614E-02    1.36       1.0  T
   4   -225.6594120 -0.273104E-03  0.266E-02    1.38       1.0  T
   5   -225.6595146 -0.102572E-03  0.914E-03    1.37       1.0  T
   6   -225.6595239 -0.935785E-05  0.439E-03    1.37       1.8  T
   7   -225.6595271 -0.323017E-05  0.113E-03    1.37       7.1  T
   8   -225.6595273 -0.146107E-06  0.557E-04    1.37      14.4  T
   9   -225.6595273 -0.334833E-07  0.247E-04    1.37      32.4  T
     SCC iter.                  ...        0 min,  0.784 sec
     gradient                   ...        0 min,  0.081 sec
 * total energy  :  -222.2736947 Eh     change       -0.6229140E-01 Eh
   gradient norm :     0.0449818 Eh/α   predicted    -0.7871039E-01 (  26.36%)
   displ. norm   :     0.5062116 α      lambda       -0.2003843E-01
   maximum displ.:     0.2279409 α      in ANC's #106, #93, #105, ...

........................................................................
.............................. CYCLE    3 ..............................
........................................................................

 iter      E             dE          RMSdq      gap      omega  full diag
   1   -225.6699498 -0.225670E+03  0.995E-02    1.37       0.0  T
   2   -225.6700188 -0.689703E-04  0.580E-02    1.37       1.0  T
   3   -225.6699831  0.356922E-04  0.178E-02    1.37       1.0  T
   4   -225.6700130 -0.298644E-04  0.903E-03    1.37       1.0  T
   5   -225.6700304 -0.174719E-04  0.270E-03    1.37       3.0  T
   6   -225.6700309 -0.512088E-06  0.135E-03    1.37       5.9  T
   7   -225.6700312 -0.256418E-06  0.317E-04    1.37      25.2  T
   8   -225.6700312 -0.512162E-08  0.202E-04    1.37      39.7  T
     SCC iter.                  ...        0 min,  0.681 sec
     gradient                   ...        0 min,  0.078 sec
 * total energy  :  -222.2896862 Eh     change       -0.1599157E-01 Eh
   gradient norm :     0.0276025 Eh/α   predicted    -0.1258665E-01 ( -21.29%)
   displ. norm   :     0.5958797 α      lambda       -0.1430081E-01
   maximum displ.:     0.2487402 α      in ANC's #106, #93, #105, ...

........................................................................
.............................. CYCLE    4 ..............................
........................................................................

 iter      E             dE          RMSdq      gap      omega  full diag
   1   -225.6757084 -0.225676E+03  0.917E-02    1.37       0.0  T
   2   -225.6757502 -0.418630E-04  0.537E-02    1.37       1.0  T
   3   -225.6757065  0.437576E-04  0.175E-02    1.37       1.0  T
   4   -225.6757506 -0.441218E-04  0.681E-03    1.37       1.2  T
   5   -225.6757598 -0.914991E-05  0.240E-03    1.37       3.3  T
   6   -225.6757604 -0.649721E-06  0.109E-03    1.37       7.3  T
   7   -225.6757605 -0.125463E-06  0.291E-04    1.37      27.5  T
   8   -225.6757605 -0.603654E-08  0.176E-04    1.37      45.5  T
     SCC iter.                  ...        0 min,  0.584 sec
     gradient                   ...        0 min,  0.079 sec
 * total energy  :  -222.3006516 Eh     change       -0.1096535E-01 Eh
   gradient norm :     0.0171120 Eh/α   predicted    -0.9689320E-02 ( -11.64%)
   displ. norm   :     0.5845492 α      lambda       -0.7822299E-02
   maximum displ.:     0.2060996 α      in ANC's #106, #93, #46, ...

........................................................................
.............................. CYCLE    5 ..............................
........................................................................

 iter      E             dE          RMSdq      gap      omega  full diag
   1   -225.6780281 -0.225678E+03  0.682E-02    1.37       0.0  T
   2   -225.6780441 -0.160636E-04  0.402E-02    1.37       1.0  T
   3   -225.6780106  0.335480E-04  0.139E-02    1.37       1.0  T
   4   -225.6780463 -0.357477E-04  0.412E-03    1.37       1.9  T
   5   -225.6780495 -0.313095E-05  0.170E-03    1.37       4.7  T
   6   -225.6780499 -0.407042E-06  0.691E-04    1.37      11.6  T
   7   -225.6780499 -0.384450E-07  0.223E-04    1.37      35.8  T
     SCC iter.                  ...        0 min,  0.466 sec
     gradient                   ...        0 min,  0.078 sec
 * total energy  :  -222.3067229 Eh     change       -0.6071259E-02 Eh
   gradient norm :     0.0117346 Eh/α   predicted    -0.5247587E-02 ( -13.57%)
   displ. norm   :     0.5898988 α      lambda       -0.4614512E-02
   maximum displ.:     0.1726061 α      in ANC's #106, #46, #93, ...

........................................................................
.............................. CYCLE    6 ..............................
........................................................................

 iter      E             dE          RMSdq      gap      omega  full diag
   1   -225.6790814 -0.225679E+03  0.562E-02    1.36       0.0  T
   2   -225.6790892 -0.781486E-05  0.334E-02    1.36       1.0  T
   3   -225.6790639  0.252544E-04  0.115E-02    1.37       1.0  T
   4   -225.6790914 -0.275072E-04  0.271E-03    1.36       2.9  T
   5   -225.6790926 -0.119290E-05  0.130E-03    1.36       6.2  T
   6   -225.6790929 -0.261328E-06  0.508E-04    1.36      15.8  T
   7   -225.6790929 -0.185133E-07  0.187E-04    1.36      42.8  T
     SCC iter.                  ...        0 min,  0.432 sec
     gradient                   ...        0 min,  0.084 sec
 * total energy  :  -222.3103129 Eh     change       -0.3590003E-02 Eh
   gradient norm :     0.0075943 Eh/α   predicted    -0.3110139E-02 ( -13.37%)
   displ. norm   :     0.5967303 α      lambda       -0.2775897E-02
   maximum displ.:     0.1653810 α      in ANC's #25, #15, #46, ...

........................................................................
.............................. CYCLE    7 ..............................
........................................................................

 iter      E             dE          RMSdq      gap      omega  full diag
   1   -225.6795352 -0.225680E+03  0.493E-02    1.36       0.0  T
   2   -225.6795397 -0.447176E-05  0.294E-02    1.36       1.0  T
   3   -225.6795221  0.176276E-04  0.953E-03    1.36       1.0  T
   4   -225.6795415 -0.193801E-04  0.193E-03    1.36       4.2  T
   5   -225.6795420 -0.538084E-06  0.999E-04    1.36       8.0  T
   6   -225.6795422 -0.155936E-06  0.405E-04    1.36      19.7  T
     SCC iter.                  ...        0 min,  0.458 sec
     gradient                   ...        0 min,  0.083 sec
 * total energy  :  -222.3124921 Eh     change       -0.2179221E-02 Eh
   gradient norm :     0.0052292 Eh/α   predicted    -0.1882186E-02 ( -13.63%)
   displ. norm   :     0.6111553 α      lambda       -0.1792039E-02
   maximum displ.:     0.1941689 α      in ANC's #15, #25, #18, ...

........................................................................
.............................. CYCLE    8 ..............................
........................................................................

 iter      E             dE          RMSdq      gap      omega  full diag
   1   -225.6801192 -0.225680E+03  0.452E-02    1.36       0.0  T
   2   -225.6801219 -0.267099E-05  0.269E-02    1.36       1.0  T
   3   -225.6801117  0.101187E-04  0.729E-03    1.36       1.1  T
   4   -225.6801229 -0.111799E-04  0.144E-03    1.36       5.6  T
   5   -225.6801232 -0.278118E-06  0.768E-04    1.36      10.4  T
   6   -225.6801233 -0.817408E-07  0.338E-04    1.36      23.7  T
     SCC iter.                  ...        0 min,  0.466 sec
     gradient                   ...        0 min,  0.079 sec
 * total energy  :  -222.3139226 Eh     change       -0.1430488E-02 Eh
   gradient norm :     0.0037571 Eh/α   predicted    -0.1230693E-02 ( -13.97%)
   displ. norm   :     0.6325787 α      lambda       -0.1264774E-02
   maximum displ.:     0.2224084 α      in ANC's #15, #18, #11, ...

........................................................................
.............................. CYCLE    9 ..............................
........................................................................

 iter      E             dE          RMSdq      gap      omega  full diag
   1   -225.6805476 -0.225681E+03  0.458E-02    1.35       0.0  T
   2   -225.6805495 -0.189509E-05  0.272E-02    1.35       1.0  T
   3   -225.6805443  0.525027E-05  0.550E-03    1.35       1.5  T
   4   -225.6805503 -0.599520E-05  0.112E-03    1.35       7.1  T
   5   -225.6805504 -0.121512E-06  0.608E-04    1.35      13.2  T
   6   -225.6805504 -0.278253E-07  0.309E-04    1.35      25.9  T
     SCC iter.                  ...        0 min,  0.403 sec
     gradient                   ...        0 min,  0.096 sec
 * total energy  :  -222.3149481 Eh     change       -0.1025539E-02 Eh
   gradient norm :     0.0033922 Eh/α   predicted    -0.8854412E-03 ( -13.66%)
   displ. norm   :     0.6380832 α      lambda       -0.9404302E-03
   maximum displ.:     0.2375206 α      in ANC's #15, #18, #11, ...

........................................................................
.............................. CYCLE   10 ..............................
........................................................................

 iter      E             dE          RMSdq      gap      omega  full diag
   1   -225.6813411 -0.225681E+03  0.476E-02    1.34       0.0  T
   2   -225.6813425 -0.145003E-05  0.282E-02    1.34       1.0  T
   3   -225.6813386  0.395946E-05  0.476E-03    1.34       1.7  T
   4   -225.6813432 -0.460743E-05  0.105E-03    1.35       7.6  T
   5   -225.6813433 -0.853055E-07  0.602E-04    1.35      13.3  T
   6   -225.6813433 -0.231550E-07  0.286E-04    1.35      28.0  T
     SCC iter.                  ...        0 min,  0.648 sec
     gradient                   ...        0 min,  0.082 sec
 * total energy  :  -222.3157139 Eh     change       -0.7657711E-03 Eh
   gradient norm :     0.0036300 Eh/α   predicted    -0.6616638E-03 ( -13.60%)
   displ. norm   :     0.6126879 α      lambda       -0.6897011E-03
   maximum displ.:     0.2411098 α      in ANC's #11, #18, #15, ...

........................................................................
.............................. CYCLE   11 ..............................
........................................................................

 iter      E             dE          RMSdq      gap      omega  full diag
   1   -225.6814755 -0.225681E+03  0.494E-02    1.34       0.0  T
   2   -225.6814771 -0.156936E-05  0.293E-02    1.34       1.0  T
   3   -225.6814696  0.740905E-05  0.598E-03    1.34       1.3  T
   4   -225.6814779 -0.825467E-05  0.124E-03    1.34       6.4  T
   5   -225.6814781 -0.174401E-06  0.722E-04    1.34      11.1  T
   6   -225.6814781 -0.429065E-07  0.335E-04    1.34      23.9  T
     SCC iter.                  ...        0 min,  0.452 sec
     gradient                   ...        0 min,  0.085 sec
 * total energy  :  -222.3162710 Eh     change       -0.5571577E-03 Eh
   gradient norm :     0.0039316 Eh/α   predicted    -0.4743050E-03 ( -14.87%)
   displ. norm   :     0.5689648 α      lambda       -0.5447929E-03
   maximum displ.:     0.2437266 α      in ANC's #11, #18, #15, ...

........................................................................
.............................. CYCLE   12 ..............................
........................................................................

 iter      E             dE          RMSdq      gap      omega  full diag
   1   -225.6834977 -0.225683E+03  0.492E-02    1.33       0.0  T
   2   -225.6834989 -0.119175E-05  0.292E-02    1.33       1.0  T
   3   -225.6834918  0.710998E-05  0.558E-03    1.33       1.4  T
   4   -225.6834997 -0.797709E-05  0.122E-03    1.33       6.6  T
   5   -225.6834999 -0.111832E-06  0.738E-04    1.33      10.9  T
   6   -225.6834999 -0.365099E-07  0.322E-04    1.33      24.9  T
     SCC iter.                  ...        0 min,  0.413 sec
     gradient                   ...        0 min,  0.083 sec
 * total energy  :  -222.3166818 Eh     change       -0.4108049E-03 Eh
   gradient norm :     0.0058863 Eh/α   predicted    -0.3606005E-03 ( -12.22%)
   displ. norm   :     0.5609859 α      lambda       -0.4600003E-03
   maximum displ.:     0.2474550 α      in ANC's #11, #18, #15, ...

........................................................................
.............................. CYCLE   13 ..............................
........................................................................

 iter      E             dE          RMSdq      gap      omega  full diag
   1   -225.6825799 -0.225683E+03  0.510E-02    1.33       0.0  T
   2   -225.6825824 -0.253033E-05  0.303E-02    1.33       1.0  T
   3   -225.6825687  0.137432E-04  0.784E-03    1.32       1.0  T
   4   -225.6825836 -0.149914E-04  0.157E-03    1.33       5.1  T
   5   -225.6825840 -0.397322E-06  0.816E-04    1.33       9.8  T
   6   -225.6825841 -0.610670E-07  0.404E-04    1.33      19.8  T
     SCC iter.                  ...        0 min,  0.448 sec
     gradient                   ...        0 min,  0.082 sec
 * total energy  :  -222.3170113 Eh     change       -0.3294760E-03 Eh
   gradient norm :     0.0040877 Eh/α   predicted    -0.3023908E-03 (  -8.22%)
   displ. norm   :     0.4674505 α      lambda       -0.3349281E-03
   maximum displ.:     0.2170371 α      in ANC's #11, #2, #18, ...

........................................................................
.............................. CYCLE   14 ..............................
........................................................................

 iter      E             dE          RMSdq      gap      omega  full diag
   1   -225.6840576 -0.225684E+03  0.442E-02    1.32       0.0  T
   2   -225.6840586 -0.954532E-06  0.262E-02    1.32       1.0  T
   3   -225.6840500  0.859198E-05  0.581E-03    1.32       1.4  T
   4   -225.6840594 -0.941588E-05  0.109E-03    1.32       7.3  T
   5   -225.6840596 -0.137206E-06  0.598E-04    1.32      13.4  T
   6   -225.6840596 -0.107396E-07  0.281E-04    1.32      28.5  T
     SCC iter.                  ...        0 min,  0.365 sec
     gradient                   ...        0 min,  0.084 sec
 * total energy  :  -222.3172838 Eh     change       -0.2725324E-03 Eh
   gradient norm :     0.0030368 Eh/α   predicted    -0.2040569E-03 ( -25.13%)
   displ. norm   :     0.4702981 α      lambda       -0.3261470E-03
   maximum displ.:     0.2159166 α      in ANC's #11, #2, #18, ...

........................................................................
.............................. CYCLE   15 ..............................
........................................................................

 iter      E             dE          RMSdq      gap      omega  full diag
   1   -225.6852463 -0.225685E+03  0.460E-02    1.32       0.0  T
   2   -225.6852473 -0.106255E-05  0.273E-02    1.32       1.0  T
   3   -225.6852377  0.958190E-05  0.609E-03    1.32       1.3  T
   4   -225.6852482 -0.104684E-04  0.114E-03    1.32       7.0  T
   5   -225.6852484 -0.166262E-06  0.604E-04    1.32      13.2  T
   6   -225.6852484 -0.959253E-08  0.290E-04    1.32      27.6  T
     SCC iter.                  ...        0 min,  0.362 sec
     gradient                   ...        0 min,  0.090 sec
 * total energy  :  -222.3175525 Eh     change       -0.2686699E-03 Eh
   gradient norm :     0.0031360 Eh/α   predicted    -0.1991466E-03 ( -25.88%)
   displ. norm   :     0.5106965 α      lambda       -0.3214806E-03
   maximum displ.:     0.2459760 α      in ANC's #2, #11, #10, ...

........................................................................
.............................. CYCLE   16 ..............................
........................................................................

 iter      E             dE          RMSdq      gap      omega  full diag
   1   -225.6853388 -0.225685E+03  0.498E-02    1.32       0.0  T
   2   -225.6853400 -0.128608E-05  0.296E-02    1.32       1.0  T
   3   -225.6853285  0.115539E-04  0.688E-03    1.32       1.2  T
   4   -225.6853411 -0.126328E-04  0.126E-03    1.32       6.4  T
   5   -225.6853413 -0.212429E-06  0.662E-04    1.32      12.1  T
   6   -225.6853413 -0.169777E-07  0.302E-04    1.32      26.5  T
     SCC iter.                  ...        0 min,  0.474 sec
     gradient                   ...        0 min,  0.082 sec
 * total energy  :  -222.3178139 Eh     change       -0.2613379E-03 Eh
   gradient norm :     0.0039115 Eh/α   predicted    -0.2026640E-03 ( -22.45%)
   displ. norm   :     0.5046227 α      lambda       -0.2813695E-03
   maximum displ.:     0.2576877 α      in ANC's #2, #11, #10, ...

........................................................................
.............................. CYCLE   17 ..............................
........................................................................

 iter      E             dE          RMSdq      gap      omega  full diag
   1   -225.6851587 -0.225685E+03  0.475E-02    1.32       0.0  T
   2   -225.6851600 -0.131322E-05  0.282E-02    1.32       1.0  T
   3   -225.6851491  0.109256E-04  0.691E-03    1.31       1.2  T
   4   -225.6851611 -0.119886E-04  0.122E-03    1.31       6.5  T
   5   -225.6851613 -0.206728E-06  0.647E-04    1.31      12.4  T
   6   -225.6851613 -0.216568E-07  0.297E-04    1.31      27.0  T
     SCC iter.                  ...        0 min,  0.373 sec
     gradient                   ...        0 min,  0.086 sec
 * total energy  :  -222.3180424 Eh     change       -0.2284950E-03 Eh
   gradient norm :     0.0041293 Eh/α   predicted    -0.1765110E-03 ( -22.75%)
   displ. norm   :     0.4765669 α      lambda       -0.2498880E-03
   maximum displ.:     0.2592057 α      in ANC's #2, #11, #22, ...

........................................................................
.............................. CYCLE   18 ..............................
........................................................................

 iter      E             dE          RMSdq      gap      omega  full diag
   1   -225.6852527 -0.225685E+03  0.423E-02    1.31       0.0  T
   2   -225.6852539 -0.122082E-05  0.250E-02    1.31       1.0  T
   3   -225.6852453  0.855271E-05  0.629E-03    1.31       1.3  T
   4   -225.6852548 -0.942969E-05  0.111E-03    1.31       7.2  T
   5   -225.6852549 -0.167480E-06  0.591E-04    1.31      13.5  T
   6   -225.6852550 -0.238215E-07  0.279E-04    1.31      28.7  T
     SCC iter.                  ...        0 min,  0.346 sec
     gradient                   ...        0 min,  0.084 sec
 * total energy  :  -222.3182511 Eh     change       -0.2087495E-03 Eh
   gradient norm :     0.0036685 Eh/α   predicted    -0.1533249E-03 ( -26.55%)
   displ. norm   :     0.4685603 α      lambda       -0.2592378E-03
   maximum displ.:     0.2716134 α      in ANC's #2, #11, #10, ...

........................................................................
.............................. CYCLE   19 ..............................
........................................................................

 iter      E             dE          RMSdq      gap      omega  full diag
   1   -225.6861986 -0.225686E+03  0.375E-02    1.31       0.0  T
   2   -225.6861999 -0.126820E-05  0.222E-02    1.31       1.0  T
   3   -225.6861936  0.626412E-05  0.557E-03    1.31       1.4  T
   4   -225.6862006 -0.696690E-05  0.998E-04    1.31       8.0  T
   5   -225.6862007 -0.142981E-06  0.529E-04    1.31      15.1  T
   6   -225.6862007 -0.204372E-07  0.271E-04    1.31      29.6  T
     SCC iter.                  ...        0 min,  0.792 sec
     gradient                   ...        0 min,  0.081 sec
 * total energy  :  -222.3184710 Eh     change       -0.2199219E-03 Eh
   gradient norm :     0.0027737 Eh/α   predicted    -0.1580775E-03 ( -28.12%)
   displ. norm   :     0.4958992 α      lambda       -0.2812015E-03
   maximum displ.:     0.2996691 α      in ANC's #2, #11, #10, ...

........................................................................
.............................. CYCLE   20 ..............................
........................................................................

 iter      E             dE          RMSdq      gap      omega  full diag
   1   -225.6868545 -0.225687E+03  0.354E-02    1.31       0.0  T
   2   -225.6868559 -0.138812E-05  0.210E-02    1.31       1.0  T
   3   -225.6868503  0.564328E-05  0.530E-03    1.31       1.5  T
   4   -225.6868566 -0.633933E-05  0.911E-04    1.31       8.8  T
   5   -225.6868567 -0.118241E-06  0.482E-04    1.31      16.6  T
   6   -225.6868567 -0.148804E-07  0.261E-04    1.31      30.7  T
     SCC iter.                  ...        0 min,  0.484 sec
     gradient                   ...        0 min,  0.079 sec
 * total energy  :  -222.3187112 Eh     change       -0.2401461E-03 Eh
   gradient norm :     0.0030519 Eh/α   predicted    -0.1751787E-03 ( -27.05%)
   displ. norm   :     0.5145037 α      lambda       -0.3029580E-03
   maximum displ.:     0.3208550 α      in ANC's #2, #10, #7, ...
 * RMSD in coord.:     0.6690612 α      energy gain  -0.1073079E+00 Eh

generating ANC from model Hessian ...
Using Lindh-Hessian (1995)
 Shifting diagonal of input Hessian by    1.0013908533614536E-002
 Lowest  eigenvalues of input Hessian
    0.010000    0.000000    0.000000    0.000000    0.000000    0.000000
    0.000000    0.010017    0.010030    0.010170    0.010184    0.010234
    0.010260    0.010288    0.010298    0.010306    0.010331    0.010384
 Highest eigenvalues
    2.105885    2.110324    2.219841    2.224215    2.244844    2.247679


........................................................................
.............................. CYCLE   21 ..............................
........................................................................

 iter      E             dE          RMSdq      gap      omega  full diag
   1   -225.6887385 -0.225689E+03  0.321E-02    1.31       0.0  T
   2   -225.6887399 -0.141722E-05  0.191E-02    1.31       1.0  T
   3   -225.6887364  0.349313E-05  0.449E-03    1.31       1.8  T
   4   -225.6887404 -0.405133E-05  0.753E-04    1.31      10.6  T
   5   -225.6887405 -0.613657E-07  0.410E-04    1.31      19.5  T
   6   -225.6887405 -0.938780E-08  0.213E-04    1.31      37.6  T
     SCC iter.                  ...        0 min,  0.394 sec
     gradient                   ...        0 min,  0.080 sec
 * total energy  :  -222.3189671 Eh     change       -0.2559059E-03 Eh
   gradient norm :     0.0049233 Eh/α   predicted     0.0000000E+00 (-100.00%)
   displ. norm   :     0.0867924 α      lambda       -0.1268900E-03
   maximum displ.:     0.0512519 α      in ANC's #3, #46, #24, ...

........................................................................
.............................. CYCLE   22 ..............................
........................................................................

 iter      E             dE          RMSdq      gap      omega  full diag
   1   -225.6884767 -0.225688E+03  0.100E-02    1.30       0.0  T
   2   -225.6884770 -0.383933E-06  0.598E-03    1.31       1.3  T
   3   -225.6884762  0.796015E-06  0.211E-03    1.30       3.8  T
   4   -225.6884771 -0.885239E-06  0.498E-04    1.31      16.1  T
   5   -225.6884772 -0.522144E-07  0.183E-04    1.31      43.9  T
     SCC iter.                  ...        0 min,  0.315 sec
     gradient                   ...        0 min,  0.083 sec
 * total energy  :  -222.3190779 Eh     change       -0.1108594E-03 Eh
   gradient norm :     0.0021887 Eh/α   predicted    -0.6446406E-04 ( -41.85%)
   displ. norm   :     0.2845077 α      lambda       -0.2969580E-03
   maximum displ.:     0.1609730 α      in ANC's #3, #6, #46, ...

........................................................................
.............................. CYCLE   23 ..............................
........................................................................

 iter      E             dE          RMSdq      gap      omega  full diag
   1   -225.6874811 -0.225687E+03  0.292E-02    1.30       0.0  T
   2   -225.6874829 -0.179181E-05  0.173E-02    1.30       1.0  T
   3   -225.6874758  0.709772E-05  0.597E-03    1.30       1.3  T
   4   -225.6874837 -0.783805E-05  0.115E-03    1.30       6.9  T
   5   -225.6874839 -0.270572E-06  0.480E-04    1.30      16.7  T
   6   -225.6874839 -0.190287E-07  0.268E-04    1.30      29.9  T
     SCC iter.                  ...        0 min,  0.526 sec
     gradient                   ...        0 min,  0.085 sec
 * total energy  :  -222.3192936 Eh     change       -0.2157031E-03 Eh
   gradient norm :     0.0040811 Eh/α   predicted    -0.1605015E-03 ( -25.59%)
   displ. norm   :     0.2852004 α      lambda       -0.1837250E-03
   maximum displ.:     0.1701434 α      in ANC's #3, #6, #22, ...

........................................................................
.............................. CYCLE   24 ..............................
........................................................................

 iter      E             dE          RMSdq      gap      omega  full diag
   1   -225.6867187 -0.225687E+03  0.251E-02    1.29       0.0  T
   2   -225.6867194 -0.668498E-06  0.149E-02    1.29       1.0  T
   3   -225.6867139  0.549594E-05  0.493E-03    1.29       1.6  T
   4   -225.6867199 -0.602403E-05  0.791E-04    1.29      10.1  T
   5   -225.6867200 -0.109102E-06  0.373E-04    1.29      21.5  T
   6   -225.6867200 -0.863662E-08  0.199E-04    1.29      40.2  T
     SCC iter.                  ...        0 min,  0.526 sec
     gradient                   ...        0 min,  0.084 sec
 * total energy  :  -222.3194416 Eh     change       -0.1479324E-03 Eh
   gradient norm :     0.0058515 Eh/α   predicted    -0.9941742E-04 ( -32.80%)
   displ. norm   :     0.3057902 α      lambda       -0.1882995E-03
   maximum displ.:     0.1881774 α      in ANC's #3, #6, #11, ...

........................................................................
.............................. CYCLE   25 ..............................
........................................................................

 iter      E             dE          RMSdq      gap      omega  full diag
   1   -225.6866632 -0.225687E+03  0.234E-02    1.29       0.0  T
   2   -225.6866635 -0.315275E-06  0.139E-02    1.29       1.0  T
   3   -225.6866585  0.501407E-05  0.443E-03    1.29       1.8  T
   4   -225.6866640 -0.546482E-05  0.607E-04    1.29      13.2  T
   5   -225.6866640 -0.444795E-07  0.323E-04    1.29      24.8  T
   6   -225.6866640 -0.549852E-08  0.155E-04    1.29      51.6  T
     SCC iter.                  ...        0 min,  0.458 sec
     gradient                   ...        0 min,  0.083 sec
 * total energy  :  -222.3196045 Eh     change       -0.1629273E-03 Eh
   gradient norm :     0.0048831 Eh/α   predicted    -0.1029540E-03 ( -36.81%)
   displ. norm   :     0.3593059 α      lambda       -0.2285018E-03
   maximum displ.:     0.2281465 α      in ANC's #3, #6, #11, ...

........................................................................
.............................. CYCLE   26 ..............................
........................................................................

 iter      E             dE          RMSdq      gap      omega  full diag
   1   -225.6873482 -0.225687E+03  0.246E-02    1.29       0.0  T
   2   -225.6873488 -0.684044E-06  0.146E-02    1.29       1.0  T
   3   -225.6873429  0.591181E-05  0.483E-03    1.29       1.7  T
   4   -225.6873493 -0.637058E-05  0.851E-04    1.29       9.4  T
   5   -225.6873495 -0.146730E-06  0.351E-04    1.29      22.8  T
   6   -225.6873495 -0.821311E-08  0.187E-04    1.29      42.8  T
     SCC iter.                  ...        0 min,  0.509 sec
     gradient                   ...        0 min,  0.077 sec
 * total energy  :  -222.3198009 Eh     change       -0.1963699E-03 Eh
   gradient norm :     0.0025130 Eh/α   predicted    -0.1290013E-03 ( -34.31%)
   displ. norm   :     0.3990383 α      lambda       -0.2303601E-03
   maximum displ.:     0.2595680 α      in ANC's #3, #6, #7, ...

........................................................................
.............................. CYCLE   27 ..............................
........................................................................

 iter      E             dE          RMSdq      gap      omega  full diag
   1   -225.6881788 -0.225688E+03  0.251E-02    1.29       0.0  T
   2   -225.6881798 -0.959132E-06  0.150E-02    1.29       1.0  T
   3   -225.6881738  0.592241E-05  0.505E-03    1.29       1.6  T
   4   -225.6881802 -0.637568E-05  0.982E-04    1.29       8.2  T
   5   -225.6881804 -0.214647E-06  0.394E-04    1.29      20.3  T
   6   -225.6881804 -0.161765E-07  0.199E-04    1.29      40.3  T
     SCC iter.                  ...        0 min,  0.360 sec
     gradient                   ...        0 min,  0.084 sec
 * total energy  :  -222.3200014 Eh     change       -0.2005659E-03 Eh
   gradient norm :     0.0027006 Eh/α   predicted    -0.1335271E-03 ( -33.42%)
   displ. norm   :     0.4078722 α      lambda       -0.2223180E-03
   maximum displ.:     0.2685291 α      in ANC's #3, #6, #7, ...

........................................................................
.............................. CYCLE   28 ..............................
........................................................................

 iter      E             dE          RMSdq      gap      omega  full diag
   1   -225.6889332 -0.225689E+03  0.237E-02    1.29       0.0  T
   2   -225.6889340 -0.872295E-06  0.141E-02    1.29       1.0  T
   3   -225.6889292  0.478965E-05  0.474E-03    1.29       1.7  T
   4   -225.6889345 -0.522134E-05  0.875E-04    1.29       9.2  T
   5   -225.6889346 -0.156339E-06  0.395E-04    1.29      20.3  T
   6   -225.6889346 -0.188109E-07  0.194E-04    1.29      41.3  T
     SCC iter.                  ...        0 min,  0.539 sec
     gradient                   ...        0 min,  0.083 sec
 * total energy  :  -222.3202042 Eh     change       -0.2027946E-03 Eh
   gradient norm :     0.0040340 Eh/α   predicted    -0.1296799E-03 ( -36.05%)
   displ. norm   :     0.4348557 α      lambda       -0.2497773E-03
   maximum displ.:     0.2863799 α      in ANC's #3, #6, #7, ...

........................................................................
.............................. CYCLE   29 ..............................
........................................................................

 iter      E             dE          RMSdq      gap      omega  full diag
   1   -225.6896455 -0.225690E+03  0.234E-02    1.29       0.0  T
   2   -225.6896464 -0.840415E-06  0.139E-02    1.29       1.0  T
   3   -225.6896424  0.395731E-05  0.448E-03    1.29       1.8  T
   4   -225.6896468 -0.439267E-05  0.779E-04    1.29      10.3  T
   5   -225.6896469 -0.100948E-06  0.400E-04    1.29      20.0  T
   6   -225.6896469 -0.175785E-07  0.203E-04    1.29      39.4  T
     SCC iter.                  ...        0 min,  0.343 sec
     gradient                   ...        0 min,  0.076 sec
 * total energy  :  -222.3204394 Eh     change       -0.2351820E-03 Eh
   gradient norm :     0.0046007 Eh/α   predicted    -0.1485072E-03 ( -36.85%)
   displ. norm   :     0.5110440 α      lambda       -0.3171889E-03
   maximum displ.:     0.3345081 α      in ANC's #3, #6, #5, ...

........................................................................
.............................. CYCLE   30 ..............................
........................................................................

 iter      E             dE          RMSdq      gap      omega  full diag
   1   -225.6901734 -0.225690E+03  0.261E-02    1.29       0.0  T
   2   -225.6901744 -0.984783E-06  0.155E-02    1.29       1.0  T
   3   -225.6901707  0.365092E-05  0.445E-03    1.29       1.8  T
   4   -225.6901749 -0.414975E-05  0.753E-04    1.29      10.6  T
   5   -225.6901750 -0.641199E-07  0.423E-04    1.29      18.9  T
   6   -225.6901750 -0.123887E-07  0.225E-04    1.29      35.6  T
     SCC iter.                  ...        0 min,  0.340 sec
     gradient                   ...        0 min,  0.083 sec
 * total energy  :  -222.3207414 Eh     change       -0.3019798E-03 Eh
   gradient norm :     0.0043161 Eh/α   predicted    -0.2000178E-03 ( -33.76%)
   displ. norm   :     0.6077027 α      lambda       -0.3972524E-03
   maximum displ.:     0.3956958 α      in ANC's #3, #6, #5, ...

........................................................................
.............................. CYCLE   31 ..............................
........................................................................

 iter      E             dE          RMSdq      gap      omega  full diag
   1   -225.6903559 -0.225690E+03  0.305E-02    1.29       0.0  T
   2   -225.6903572 -0.128881E-05  0.181E-02    1.29       1.0  T
   3   -225.6903534  0.388125E-05  0.458E-03    1.29       1.7  T
   4   -225.6903578 -0.448719E-05  0.810E-04    1.29       9.9  T
   5   -225.6903579 -0.606507E-07  0.448E-04    1.29      17.9  T
   6   -225.6903579 -0.788313E-08  0.206E-04    1.29      39.0  T
     SCC iter.                  ...        0 min,  0.409 sec
     gradient                   ...        0 min,  0.083 sec
 * total energy  :  -222.3211209 Eh     change       -0.3795413E-03 Eh
   gradient norm :     0.0035520 Eh/α   predicted    -0.2719802E-03 ( -28.34%)
   displ. norm   :     0.6807516 α      lambda       -0.4592106E-03
   maximum displ.:     0.4424516 α      in ANC's #3, #6, #5, ...

........................................................................
.............................. CYCLE   32 ..............................
........................................................................

 iter      E             dE          RMSdq      gap      omega  full diag
   1   -225.6902350 -0.225690E+03  0.346E-02    1.28       0.0  T
   2   -225.6902366 -0.161421E-05  0.205E-02    1.28       1.0  T
   3   -225.6902314  0.524407E-05  0.507E-03    1.28       1.6  T
   4   -225.6902373 -0.596539E-05  0.968E-04    1.28       8.3  T
   5   -225.6902375 -0.116772E-06  0.519E-04    1.28      15.4  T
   6   -225.6902375 -0.948458E-08  0.284E-04    1.28      28.2  T
     SCC iter.                  ...        0 min,  0.329 sec
     gradient                   ...        0 min,  0.078 sec
 * total energy  :  -222.3215618 Eh     change       -0.4408337E-03 Eh
   gradient norm :     0.0030837 Eh/α   predicted    -0.3360109E-03 ( -23.78%)
   displ. norm   :     0.7190243 α      lambda       -0.5010894E-03
   maximum displ.:     0.4678388 α      in ANC's #3, #6, #5, ...

........................................................................
.............................. CYCLE   33 ..............................
........................................................................

 iter      E             dE          RMSdq      gap      omega  full diag
   1   -225.6900720 -0.225690E+03  0.381E-02    1.28       0.0  T
   2   -225.6900738 -0.186741E-05  0.224E-02    1.28       1.0  T
   3   -225.6900660  0.782774E-05  0.587E-03    1.28       1.4  T
   4   -225.6900747 -0.868025E-05  0.114E-03    1.28       7.0  T
   5   -225.6900749 -0.231820E-06  0.532E-04    1.28      15.0  T
   6   -225.6900749 -0.130233E-07  0.301E-04    1.28      26.6  T
     SCC iter.                  ...        0 min,  0.354 sec
     gradient                   ...        0 min,  0.082 sec
 * total energy  :  -222.3220455 Eh     change       -0.4837624E-03 Eh
   gradient norm :     0.0034772 Eh/α   predicted    -0.3800784E-03 ( -21.43%)
   displ. norm   :     0.7391525 α      lambda       -0.5375202E-03
   maximum displ.:     0.4827393 α      in ANC's #3, #6, #5, ...

........................................................................
.............................. CYCLE   34 ..............................
........................................................................

 iter      E             dE          RMSdq      gap      omega  full diag
   1   -225.6901222 -0.225690E+03  0.412E-02    1.27       0.0  T
   2   -225.6901243 -0.209824E-05  0.242E-02    1.27       1.0  T
   3   -225.6901134  0.109368E-04  0.669E-03    1.27       1.2  T
   4   -225.6901254 -0.119778E-04  0.125E-03    1.27       6.4  T
   5   -225.6901257 -0.328850E-06  0.505E-04    1.27      15.9  T
   6   -225.6901257 -0.116981E-07  0.295E-04    1.27      27.2  T
     SCC iter.                  ...        0 min,  0.335 sec
     gradient                   ...        0 min,  0.076 sec
 * total energy  :  -222.3225664 Eh     change       -0.5208425E-03 Eh
   gradient norm :     0.0042257 Eh/α   predicted    -0.4156032E-03 ( -20.21%)
   displ. norm   :     0.7528492 α      lambda       -0.5735051E-03
   maximum displ.:     0.4948442 α      in ANC's #3, #6, #5, ...

........................................................................
.............................. CYCLE   35 ..............................
........................................................................

 iter      E             dE          RMSdq      gap      omega  full diag
   1   -225.6905455 -0.225691E+03  0.440E-02    1.26       0.0  T
   2   -225.6905479 -0.238420E-05  0.259E-02    1.26       1.0  T
   3   -225.6905334  0.144657E-04  0.752E-03    1.26       1.1  T
   4   -225.6905492 -0.157401E-04  0.136E-03    1.26       5.9  T
   5   -225.6905496 -0.424104E-06  0.489E-04    1.26      16.4  T
   6   -225.6905496 -0.107332E-07  0.292E-04    1.26      27.4  T
     SCC iter.                  ...        0 min,  0.328 sec
     gradient                   ...        0 min,  0.079 sec
 * total energy  :  -222.3231216 Eh     change       -0.5552120E-03 Eh
   gradient norm :     0.0046907 Eh/α   predicted    -0.4492824E-03 ( -19.08%)
   displ. norm   :     0.7617111 α      lambda       -0.6027204E-03
   maximum displ.:     0.5048195 α      in ANC's #3, #6, #5, ...

........................................................................
.............................. CYCLE   36 ..............................
........................................................................

 iter      E             dE          RMSdq      gap      omega  full diag
   1   -225.6913641 -0.225691E+03  0.459E-02    1.26       0.0  T
   2   -225.6913669 -0.276871E-05  0.270E-02    1.26       1.0  T
   3   -225.6913491  0.178148E-04  0.826E-03    1.25       1.0  T
   4   -225.6913684 -0.193107E-04  0.150E-03    1.26       5.3  T
   5   -225.6913689 -0.541618E-06  0.503E-04    1.26      15.9  T
   6   -225.6913689 -0.105857E-07  0.304E-04    1.26      26.4  T
     SCC iter.                  ...        0 min,  0.341 sec
     gradient                   ...        0 min,  0.083 sec
 * total energy  :  -222.3237032 Eh     change       -0.5816194E-03 Eh
   gradient norm :     0.0046362 Eh/α   predicted    -0.4762112E-03 ( -18.12%)
   displ. norm   :     0.7633030 α      lambda       -0.6207801E-03
   maximum displ.:     0.5102853 α      in ANC's #3, #6, #5, ...

........................................................................
.............................. CYCLE   37 ..............................
........................................................................

 iter      E             dE          RMSdq      gap      omega  full diag
   1   -225.6925457 -0.225693E+03  0.464E-02    1.25       0.0  T
   2   -225.6925489 -0.322432E-05  0.273E-02    1.25       1.0  T
   3   -225.6925283  0.205593E-04  0.885E-03    1.25       1.0  T
   4   -225.6925506 -0.222370E-04  0.167E-03    1.25       4.8  T
   5   -225.6925513 -0.686297E-06  0.538E-04    1.25      14.9  T
   6   -225.6925513 -0.112817E-07  0.325E-04    1.25      24.6  T
     SCC iter.                  ...        0 min,  0.345 sec
     gradient                   ...        0 min,  0.077 sec
 * total energy  :  -222.3242998 Eh     change       -0.5966190E-03 Eh
   gradient norm :     0.0040946 Eh/α   predicted    -0.4912332E-03 ( -17.66%)
   displ. norm   :     0.7608309 α      lambda       -0.6320812E-03
   maximum displ.:     0.5122956 α      in ANC's #3, #6, #5, ...

........................................................................
.............................. CYCLE   38 ..............................
........................................................................

 iter      E             dE          RMSdq      gap      omega  full diag
   1   -225.6940267 -0.225694E+03  0.459E-02    1.25       0.0  T
   2   -225.6940304 -0.371551E-05  0.271E-02    1.25       1.0  T
   3   -225.6940075  0.228984E-04  0.939E-03    1.24       1.0  T
   4   -225.6940323 -0.247625E-04  0.185E-03    1.24       4.3  T
   5   -225.6940331 -0.846032E-06  0.587E-04    1.24      13.6  T
   6   -225.6940331 -0.126628E-07  0.354E-04    1.24      22.6  T
     SCC iter.                  ...        0 min,  0.351 sec
     gradient                   ...        0 min,  0.076 sec
 * total energy  :  -222.3249058 Eh     change       -0.6059535E-03 Eh
   gradient norm :     0.0033276 Eh/α   predicted    -0.4989851E-03 ( -17.65%)
   displ. norm   :     0.7615030 α      lambda       -0.6469626E-03
   maximum displ.:     0.5148402 α      in ANC's #3, #6, #5, ...

........................................................................
.............................. CYCLE   39 ..............................
........................................................................

 iter      E             dE          RMSdq      gap      omega  full diag
   1   -225.6957053 -0.225696E+03  0.455E-02    1.24       0.0  T
   2   -225.6957095 -0.422383E-05  0.269E-02    1.24       1.0  T
   3   -225.6956842  0.253301E-04  0.998E-03    1.24       1.0  T
   4   -225.6957116 -0.274405E-04  0.202E-03    1.24       4.0  T
   5   -225.6957126 -0.100473E-05  0.646E-04    1.24      12.4  T
   6   -225.6957126 -0.148488E-07  0.389E-04    1.24      20.6  T
   7   -225.6957127 -0.748466E-08  0.127E-04    1.24      62.9  T
     SCC iter.                  ...        0 min,  0.384 sec
     gradient                   ...        0 min,  0.084 sec
 * total energy  :  -222.3255244 Eh     change       -0.6186399E-03 Eh
   gradient norm :     0.0028194 Eh/α   predicted    -0.5110642E-03 ( -17.39%)
   displ. norm   :     0.7698058 α      lambda       -0.6682692E-03
   maximum displ.:     0.5197679 α      in ANC's #3, #6, #5, ...

........................................................................
.............................. CYCLE   40 ..............................
........................................................................

 iter      E             dE          RMSdq      gap      omega  full diag
   1   -225.6973758 -0.225697E+03  0.462E-02    1.24       0.0  T
   2   -225.6973806 -0.480995E-05  0.274E-02    1.24       1.0  T
   3   -225.6973523  0.283127E-04  0.106E-02    1.24       1.0  T
   4   -225.6973831 -0.307975E-04  0.216E-03    1.24       3.7  T
   5   -225.6973842 -0.114058E-05  0.715E-04    1.24      11.2  T
   6   -225.6973842 -0.176768E-07  0.431E-04    1.24      18.6  T
   7   -225.6973842 -0.108745E-07  0.135E-04    1.24      59.1  T
     SCC iter.                  ...        0 min,  0.520 sec
     gradient                   ...        0 min,  0.081 sec
 * total energy  :  -222.3261600 Eh     change       -0.6355520E-03 Eh
   gradient norm :     0.0030342 Eh/α   predicted    -0.5321467E-03 ( -16.27%)
   displ. norm   :     0.7852130 α      lambda       -0.6871394E-03
   maximum displ.:     0.5267447 α      in ANC's #3, #6, #2, ...

........................................................................
.............................. CYCLE   41 ..............................
........................................................................

 iter      E             dE          RMSdq      gap      omega  full diag
   1   -225.6987130 -0.225699E+03  0.482E-02    1.24       0.0  T
   2   -225.6987183 -0.538372E-05  0.287E-02    1.24       1.0  T
   3   -225.6986868  0.315323E-04  0.113E-02    1.24       1.0  T
   4   -225.6987212 -0.343826E-04  0.230E-03    1.24       3.5  T
   5   -225.6987225 -0.127318E-05  0.783E-04    1.24      10.2  T
   6   -225.6987225 -0.213105E-07  0.469E-04    1.24      17.1  T
   7   -225.6987225 -0.145077E-07  0.144E-04    1.24      55.7  T
     SCC iter.                  ...        0 min,  0.605 sec
     gradient                   ...        0 min,  0.083 sec
 * total energy  :  -222.3268062 Eh     change       -0.6462321E-03 Eh
   gradient norm :     0.0037258 Eh/α   predicted    -0.5554096E-03 ( -14.05%)
   displ. norm   :     0.7955403 α      lambda       -0.6816892E-03
   maximum displ.:     0.5288891 α      in ANC's #3, #2, #6, ...

........................................................................
.............................. CYCLE   42 ..............................
........................................................................

 iter      E             dE          RMSdq      gap      omega  full diag
   1   -225.6995828 -0.225700E+03  0.497E-02    1.24       0.0  T
   2   -225.6995886 -0.583039E-05  0.297E-02    1.24       1.0  T
   3   -225.6995553  0.333425E-04  0.117E-02    1.24       1.0  T
   4   -225.6995918 -0.364955E-04  0.236E-03    1.24       3.4  T
   5   -225.6995931 -0.131168E-05  0.829E-04    1.24       9.7  T
   6   -225.6995931 -0.239971E-07  0.493E-04    1.24      16.2  T
   7   -225.6995932 -0.191536E-07  0.149E-04    1.24      53.7  T
     SCC iter.                  ...        0 min,  0.661 sec
     gradient                   ...        0 min,  0.080 sec
 * total energy  :  -222.3274361 Eh     change       -0.6299154E-03 Eh
   gradient norm :     0.0044875 Eh/α   predicted    -0.5565596E-03 ( -11.65%)
   displ. norm   :     0.7878283 α      lambda       -0.6389357E-03
   maximum displ.:     0.5199178 α      in ANC's #3, #2, #5, ...
 * RMSD in coord.:     0.9539376 α      energy gain  -0.8724944E-02 Eh

generating ANC from model Hessian ...
Using Lindh-Hessian (1995)
 Shifting diagonal of input Hessian by    1.0014646734884839E-002
 Lowest  eigenvalues of input Hessian
    0.010000    0.000000    0.000000    0.000000    0.000000    0.000000
    0.000000    0.010040    0.010081    0.010170    0.010199    0.010231
    0.010300    0.010325    0.010345    0.010378    0.010470    0.010508
 Highest eigenvalues
    2.106348    2.111836    2.219348    2.227461    2.243732    2.250804


........................................................................
.............................. CYCLE   43 ..............................
........................................................................

 iter      E             dE          RMSdq      gap      omega  full diag
   1   -225.6998875 -0.225700E+03  0.491E-02    1.24       0.0  T
   2   -225.6998933 -0.575215E-05  0.293E-02    1.24       1.0  T
   3   -225.6998627  0.305284E-04  0.113E-02    1.24       1.0  T
   4   -225.6998962 -0.335008E-04  0.229E-03    1.24       3.5  T
   5   -225.6998975 -0.121733E-05  0.828E-04    1.24       9.7  T
   6   -225.6998975 -0.311118E-07  0.482E-04    1.24      16.6  T
   7   -225.6998975 -0.182644E-07  0.156E-04    1.24      51.3  T
     SCC iter.                  ...        0 min,  0.472 sec
     gradient                   ...        0 min,  0.082 sec
 * total energy  :  -222.3280153 Eh     change       -0.5791545E-03 Eh
   gradient norm :     0.0046050 Eh/α   predicted     0.0000000E+00 (-100.00%)
   displ. norm   :     0.0911282 α      lambda       -0.1224071E-03
   maximum displ.:     0.0523980 α      in ANC's #3, #10, #4, ...

........................................................................
.............................. CYCLE   44 ..............................
........................................................................

 iter      E             dE          RMSdq      gap      omega  full diag
   1   -225.6996221 -0.225700E+03  0.971E-03    1.24       0.0  T
   2   -225.6996224 -0.370184E-06  0.581E-03    1.24       1.4  T
   3   -225.6996215  0.908298E-06  0.202E-03    1.24       4.0  T
   4   -225.6996225 -0.946934E-06  0.620E-04    1.24      12.9  T
   5   -225.6996226 -0.969392E-07  0.202E-04    1.24      39.6  T
     SCC iter.                  ...        0 min,  0.324 sec
     gradient                   ...        0 min,  0.076 sec
 * total energy  :  -222.3281275 Eh     change       -0.1122281E-03 Eh
   gradient norm :     0.0021720 Eh/α   predicted    -0.6301038E-04 ( -43.86%)
   displ. norm   :     0.3599050 α      lambda       -0.3819808E-03
   maximum displ.:     0.1902110 α      in ANC's #3, #10, #4, ...

........................................................................
.............................. CYCLE   45 ..............................
........................................................................

 iter      E             dE          RMSdq      gap      omega  full diag
   1   -225.6986849 -0.225699E+03  0.360E-02    1.24       0.0  T
   2   -225.6986877 -0.271894E-05  0.214E-02    1.24       1.0  T
   3   -225.6986784  0.922964E-05  0.615E-03    1.25       1.3  T
   4   -225.6986881 -0.969244E-05  0.173E-03    1.24       4.6  T
   5   -225.6986889 -0.728614E-06  0.616E-04    1.25      13.0  T
   6   -225.6986889 -0.276724E-07  0.353E-04    1.25      22.7  T
     SCC iter.                  ...        0 min,  0.507 sec
     gradient                   ...        0 min,  0.087 sec
 * total energy  :  -222.3284156 Eh     change       -0.2881054E-03 Eh
   gradient norm :     0.0045570 Eh/α   predicted    -0.2157347E-03 ( -25.12%)
   displ. norm   :     0.3927645 α      lambda       -0.2684781E-03
   maximum displ.:     0.2128156 α      in ANC's #3, #10, #4, ...

........................................................................
.............................. CYCLE   46 ..............................
........................................................................

 iter      E             dE          RMSdq      gap      omega  full diag
   1   -225.6977513 -0.225698E+03  0.350E-02    1.25       0.0  T
   2   -225.6977526 -0.126390E-05  0.207E-02    1.25       1.0  T
   3   -225.6977463  0.622952E-05  0.494E-03    1.25       1.6  T
   4   -225.6977530 -0.663681E-05  0.125E-03    1.25       6.4  T
   5   -225.6977533 -0.333175E-06  0.520E-04    1.25      15.4  T
   6   -225.6977533 -0.130047E-07  0.289E-04    1.25      27.7  T
     SCC iter.                  ...        0 min,  0.535 sec
     gradient                   ...        0 min,  0.083 sec
 * total energy  :  -222.3286330 Eh     change       -0.2173762E-03 Eh
   gradient norm :     0.0067962 Eh/α   predicted    -0.1549516E-03 ( -28.72%)
   displ. norm   :     0.4296043 α      lambda       -0.2702037E-03
   maximum displ.:     0.2352938 α      in ANC's #3, #10, #4, ...

........................................................................
.............................. CYCLE   47 ..............................
........................................................................

 iter      E             dE          RMSdq      gap      omega  full diag
   1   -225.6975321 -0.225698E+03  0.339E-02    1.25       0.0  T
   2   -225.6975329 -0.749685E-06  0.201E-02    1.25       1.0  T
   3   -225.6975299  0.296852E-05  0.371E-03    1.26       2.2  T
   4   -225.6975333 -0.335458E-05  0.851E-04    1.26       9.4  T
   5   -225.6975333 -0.771125E-07  0.494E-04    1.26      16.2  T
   6   -225.6975334 -0.146882E-07  0.240E-04    1.26      33.3  T
     SCC iter.                  ...        0 min,  0.426 sec
     gradient                   ...        0 min,  0.084 sec
 * total energy  :  -222.3288709 Eh     change       -0.2378978E-03 Eh
   gradient norm :     0.0058986 Eh/α   predicted    -0.1600366E-03 ( -32.73%)
   displ. norm   :     0.5299827 α      lambda       -0.3580465E-03
   maximum displ.:     0.2918738 α      in ANC's #3, #4, #10, ...

........................................................................
.............................. CYCLE   48 ..............................
........................................................................

 iter      E             dE          RMSdq      gap      omega  full diag
   1   -225.6981795 -0.225698E+03  0.374E-02    1.26       0.0  T
   2   -225.6981812 -0.172192E-05  0.222E-02    1.26       1.0  T
   3   -225.6981764  0.478216E-05  0.484E-03    1.26       1.7  T
   4   -225.6981819 -0.552335E-05  0.964E-04    1.26       8.3  T
   5   -225.6981820 -0.943671E-07  0.524E-04    1.26      15.3  T
   6   -225.6981820 -0.794699E-08  0.237E-04    1.26      33.8  T
     SCC iter.                  ...        0 min,  0.561 sec
     gradient                   ...        0 min,  0.077 sec
 * total energy  :  -222.3291904 Eh     change       -0.3195460E-03 Eh
   gradient norm :     0.0033872 Eh/α   predicted    -0.2293094E-03 ( -28.24%)
   displ. norm   :     0.6276286 α      lambda       -0.4347637E-03
   maximum displ.:     0.3473043 α      in ANC's #3, #4, #9, ...

........................................................................
.............................. CYCLE   49 ..............................
........................................................................

 iter      E             dE          RMSdq      gap      omega  full diag
   1   -225.6993473 -0.225699E+03  0.401E-02    1.27       0.0  T
   2   -225.6993503 -0.304916E-05  0.238E-02    1.27       1.0  T
   3   -225.6993409  0.936855E-05  0.661E-03    1.27       1.2  T
   4   -225.6993515 -0.105131E-04  0.138E-03    1.27       5.8  T
   5   -225.6993518 -0.324890E-06  0.659E-04    1.27      12.2  T
   6   -225.6993518 -0.254641E-07  0.372E-04    1.27      21.5  T
     SCC iter.                  ...        0 min,  0.478 sec
     gradient                   ...        0 min,  0.076 sec
 * total energy  :  -222.3295795 Eh     change       -0.3891261E-03 Eh
   gradient norm :     0.0046696 Eh/α   predicted    -0.3030261E-03 ( -22.13%)
   displ. norm   :     0.6877999 α      lambda       -0.4834656E-03
   maximum displ.:     0.3809303 α      in ANC's #3, #4, #9, ...

........................................................................
.............................. CYCLE   50 ..............................
........................................................................

 iter      E             dE          RMSdq      gap      omega  full diag
   1   -225.7005494 -0.225701E+03  0.401E-02    1.27       0.0  T
   2   -225.7005529 -0.358178E-05  0.238E-02    1.27       1.0  T
   3   -225.7005393  0.136751E-04  0.788E-03    1.27       1.0  T
   4   -225.7005544 -0.151034E-04  0.166E-03    1.27       4.8  T
   5   -225.7005550 -0.586557E-06  0.695E-04    1.27      11.5  T
   6   -225.7005550 -0.375117E-07  0.386E-04    1.27      20.7  T
     SCC iter.                  ...        0 min,  0.450 sec
     gradient                   ...        0 min,  0.078 sec
 * total energy  :  -222.3300185 Eh     change       -0.4389752E-03 Eh
   gradient norm :     0.0073772 Eh/α   predicted    -0.3560891E-03 ( -18.88%)
   displ. norm   :     0.7314621 α      lambda       -0.5329547E-03
   maximum displ.:     0.4042443 α      in ANC's #3, #4, #2, ...

........................................................................
.............................. CYCLE   51 ..............................
........................................................................

 iter      E             dE          RMSdq      gap      omega  full diag
   1   -225.7013779 -0.225701E+03  0.397E-02    1.27       0.0  T
   2   -225.7013816 -0.371337E-05  0.235E-02    1.27       1.0  T
   3   -225.7013637  0.179136E-04  0.896E-03    1.27       1.0  T
   4   -225.7013834 -0.197437E-04  0.179E-03    1.27       4.5  T
   5   -225.7013842 -0.733404E-06  0.686E-04    1.27      11.7  T
   6   -225.7013842 -0.371308E-07  0.378E-04    1.27      21.2  T
     SCC iter.                  ...        0 min,  0.402 sec
     gradient                   ...        0 min,  0.079 sec
 * total energy  :  -222.3305048 Eh     change       -0.4862630E-03 Eh
   gradient norm :     0.0080590 Eh/α   predicted    -0.4091350E-03 ( -15.86%)
   displ. norm   :     0.7660026 α      lambda       -0.5603074E-03
   maximum displ.:     0.4235137 α      in ANC's #3, #4, #2, ...

........................................................................
.............................. CYCLE   52 ..............................
........................................................................

 iter      E             dE          RMSdq      gap      omega  full diag
   1   -225.7013660 -0.225701E+03  0.391E-02    1.27       0.0  T
   2   -225.7013698 -0.377934E-05  0.231E-02    1.27       1.0  T
   3   -225.7013495  0.202836E-04  0.960E-03    1.27       1.0  T
   4   -225.7013719 -0.224022E-04  0.183E-03    1.27       4.4  T
   5   -225.7013727 -0.793533E-06  0.685E-04    1.27      11.7  T
   6   -225.7013728 -0.424688E-07  0.366E-04    1.27      21.9  T
     SCC iter.                  ...        0 min,  0.343 sec
     gradient                   ...        0 min,  0.081 sec
 * total energy  :  -222.3310113 Eh     change       -0.5065261E-03 Eh
   gradient norm :     0.0063769 Eh/α   predicted    -0.4445368E-03 ( -12.24%)
   displ. norm   :     0.7846150 α      lambda       -0.5375081E-03
   maximum displ.:     0.4363433 α      in ANC's #3, #4, #2, ...

........................................................................
.............................. CYCLE   53 ..............................
........................................................................

 iter      E             dE          RMSdq      gap      omega  full diag
   1   -225.7006929 -0.225701E+03  0.382E-02    1.27       0.0  T
   2   -225.7006965 -0.359150E-05  0.225E-02    1.27       1.0  T
   3   -225.7006776  0.189514E-04  0.938E-03    1.27       1.0  T
   4   -225.7006985 -0.209704E-04  0.175E-03    1.27       4.6  T
   5   -225.7006992 -0.722606E-06  0.685E-04    1.27      11.7  T
   6   -225.7006993 -0.507906E-07  0.352E-04    1.27      22.8  T
     SCC iter.                  ...        0 min,  0.508 sec
     gradient                   ...        0 min,  0.084 sec
 * total energy  :  -222.3314966 Eh     change       -0.4852968E-03 Eh
   gradient norm :     0.0040279 Eh/α   predicted    -0.4342051E-03 ( -10.53%)
   displ. norm   :     0.7855928 α      lambda       -0.4979245E-03
   maximum displ.:     0.4392113 α      in ANC's #3, #4, #2, ...

........................................................................
.............................. CYCLE   54 ..............................
........................................................................

 iter      E             dE          RMSdq      gap      omega  full diag
   1   -225.7001681 -0.225700E+03  0.383E-02    1.27       0.0  T
   2   -225.7001711 -0.301242E-05  0.225E-02    1.27       1.0  T
   3   -225.7001560  0.150969E-04  0.846E-03    1.27       1.0  T
   4   -225.7001728 -0.167401E-04  0.153E-03    1.27       5.2  T
   5   -225.7001733 -0.508568E-06  0.671E-04    1.27      11.9  T
   6   -225.7001733 -0.503314E-07  0.341E-04    1.27      23.5  T
     SCC iter.                  ...        0 min,  0.513 sec
     gradient                   ...        0 min,  0.083 sec
 * total energy  :  -222.3319531 Eh     change       -0.4564750E-03 Eh
   gradient norm :     0.0036152 Eh/α   predicted    -0.4026178E-03 ( -11.80%)
   displ. norm   :     0.7820379 α      lambda       -0.4807883E-03
   maximum displ.:     0.4374409 α      in ANC's #3, #4, #2, ...

........................................................................
.............................. CYCLE   55 ..............................
........................................................................

 iter      E             dE          RMSdq      gap      omega  full diag
   1   -225.7003756 -0.225700E+03  0.398E-02    1.28       0.0  T
   2   -225.7003781 -0.247245E-05  0.234E-02    1.28       1.0  T
   3   -225.7003664  0.116996E-04  0.752E-03    1.28       1.1  T
   4   -225.7003795 -0.130912E-04  0.128E-03    1.28       6.2  T
   5   -225.7003797 -0.293317E-06  0.634E-04    1.28      12.6  T
   6   -225.7003798 -0.372154E-07  0.332E-04    1.28      24.1  T
     SCC iter.                  ...        0 min,  0.615 sec
     gradient                   ...        0 min,  0.084 sec
 * total energy  :  -222.3324021 Eh     change       -0.4490445E-03 Eh
   gradient norm :     0.0049124 Eh/α   predicted    -0.3874165E-03 ( -13.72%)
   displ. norm   :     0.7855223 α      lambda       -0.4931752E-03
   maximum displ.:     0.4371783 α      in ANC's #3, #4, #2, ...

........................................................................
.............................. CYCLE   56 ..............................
........................................................................

 iter      E             dE          RMSdq      gap      omega  full diag
   1   -225.7013250 -0.225701E+03  0.418E-02    1.28       0.0  T
   2   -225.7013272 -0.218550E-05  0.246E-02    1.28       1.0  T
   3   -225.7013160  0.112835E-04  0.728E-03    1.29       1.1  T
   4   -225.7013286 -0.126715E-04  0.118E-03    1.29       6.8  T
   5   -225.7013288 -0.220502E-06  0.590E-04    1.29      13.6  T
   6   -225.7013289 -0.213981E-07  0.309E-04    1.29      25.9  T
     SCC iter.                  ...        0 min,  0.475 sec
     gradient                   ...        0 min,  0.084 sec
 * total energy  :  -222.3328704 Eh     change       -0.4682304E-03 Eh
   gradient norm :     0.0058069 Eh/α   predicted    -0.3987468E-03 ( -14.84%)
   displ. norm   :     0.7968855 α      lambda       -0.5334410E-03
   maximum displ.:     0.4374889 α      in ANC's #3, #4, #2, ...

........................................................................
.............................. CYCLE   57 ..............................
........................................................................

 iter      E             dE          RMSdq      gap      omega  full diag
   1   -225.7029052 -0.225703E+03  0.438E-02    1.29       0.0  T
   2   -225.7029073 -0.206378E-05  0.257E-02    1.29       1.0  T
   3   -225.7028937  0.135520E-04  0.765E-03    1.29       1.0  T
   4   -225.7029088 -0.151007E-04  0.122E-03    1.29       6.6  T
   5   -225.7029091 -0.248617E-06  0.575E-04    1.29      13.9  T
   6   -225.7029091 -0.152622E-07  0.300E-04    1.29      26.7  T
     SCC iter.                  ...        0 min,  0.482 sec
     gradient                   ...        0 min,  0.083 sec
 * total energy  :  -222.3333822 Eh     change       -0.5118832E-03 Eh
   gradient norm :     0.0055282 Eh/α   predicted    -0.4360950E-03 ( -14.81%)
   displ. norm   :     0.8105017 α      lambda       -0.5887392E-03
   maximum displ.:     0.4324589 α      in ANC's #3, #4, #2, ...

........................................................................
.............................. CYCLE   58 ..............................
........................................................................

 iter      E             dE          RMSdq      gap      omega  full diag
   1   -225.7046803 -0.225705E+03  0.456E-02    1.30       0.0  T
   2   -225.7046823 -0.200124E-05  0.268E-02    1.30       1.0  T
   3   -225.7046664  0.158932E-04  0.802E-03    1.30       1.0  T
   4   -225.7046840 -0.175878E-04  0.126E-03    1.30       6.4  T
   5   -225.7046843 -0.280975E-06  0.574E-04    1.30      13.9  T
   6   -225.7046843 -0.118822E-07  0.309E-04    1.30      25.9  T
     SCC iter.                  ...        0 min,  0.359 sec
     gradient                   ...        0 min,  0.077 sec
 * total energy  :  -222.3339477 Eh     change       -0.5654362E-03 Eh
   gradient norm :     0.0041777 Eh/α   predicted    -0.4877464E-03 ( -13.74%)
   displ. norm   :     0.8279101 α      lambda       -0.6359990E-03
   maximum displ.:     0.4218534 α      in ANC's #3, #4, #2, ...

........................................................................
.............................. CYCLE   59 ..............................
........................................................................

 iter      E             dE          RMSdq      gap      omega  full diag
   1   -225.7061030 -0.225706E+03  0.473E-02    1.31       0.0  T
   2   -225.7061050 -0.193393E-05  0.278E-02    1.31       1.0  T
   3   -225.7060889  0.160874E-04  0.798E-03    1.31       1.0  T
   4   -225.7061066 -0.177654E-04  0.124E-03    1.31       6.4  T
   5   -225.7061069 -0.277410E-06  0.574E-04    1.31      14.0  T
   6   -225.7061069 -0.115160E-07  0.303E-04    1.31      26.4  T
     SCC iter.                  ...        0 min,  0.448 sec
     gradient                   ...        0 min,  0.078 sec
 * total energy  :  -222.3345547 Eh     change       -0.6070553E-03 Eh
   gradient norm :     0.0032768 Eh/α   predicted    -0.5359840E-03 ( -11.71%)
   displ. norm   :     0.8420638 α      lambda       -0.6524533E-03
   maximum displ.:     0.4082331 α      in ANC's #4, #3, #2, ...

[...]
    70   1 H    0.998 --    33 C    0.983
    71   1 H    0.998 --    33 C    0.983
    72   1 H    0.998 --    32 C    0.984
    73   1 H    0.999 --    32 C    0.979
    74   1 H    0.999 --    32 C    0.982
    75   6 C    3.993 --    28 C    0.986    78 H    0.986    76 H    0.984
                            77 H    0.982
    76   1 H    0.998 --    75 C    0.984
    77   1 H    0.999 --    75 C    0.982
    78   1 H    0.998 --    75 C    0.986
    79   6 C    3.980 --    80 C    1.421    84 C    1.360   142 H    0.957
    80   6 C    3.916 --    79 C    1.421    81 C    1.236   101 O    1.061
    81   6 C    3.981 --    82 C    1.290    80 C    1.236    85 C    1.201
    82   6 C    3.973 --    83 C    1.384    81 C    1.290    88 C    1.048
    83   6 C    3.979 --    84 C    1.421    82 C    1.384   143 H    0.956
    84   6 C    3.959 --    83 C    1.421    79 C    1.360   109 C    0.987
    85   6 C    3.923 --    86 C    1.216    81 C    1.201    89 C    1.190
    86   6 C    3.987 --    92 C    1.272    87 C    1.266    85 C    1.216
    87   6 C    3.978 --    95 C    1.408    86 C    1.266    88 C    1.057
    88   6 C    3.939 --   102 O    1.717    87 C    1.057    82 C    1.048
    89   6 C    3.979 --    90 C    1.293    96 C    1.240    85 C    1.190
    90   6 C    3.973 --    99 C    1.383    89 C    1.293    91 C    1.044
    91   6 C    3.936 --   103 O    1.718    92 C    1.052    90 C    1.044
    92   6 C    3.978 --    93 C    1.400    86 C    1.272    91 C    1.052
    93   6 C    3.981 --    92 C    1.400    94 C    1.397   126 H    0.959
    94   6 C    3.960 --    93 C    1.397    95 C    1.385   113 C    0.988
    95   6 C    3.977 --    87 C    1.408    94 C    1.385   127 H    0.957
    96   6 C    3.921 --    97 C    1.416    89 C    1.240   100 O    1.069
    97   6 C    3.978 --    96 C    1.416    98 C    1.366   129 H    0.957
    98   6 C    3.958 --    99 C    1.418    97 C    1.366   106 C    0.986
    99   6 C    3.979 --    98 C    1.418    90 C    1.383   128 H    0.958
   100   8 O    2.247 --    96 C    1.069   104 C    0.986
   101   8 O    2.240 --    80 C    1.061   105 C    0.986
   102   8 O    1.999 --    88 C    1.717
   103   8 O    1.997 --    91 C    1.718
   104   6 C    3.947 --   100 O    0.986   136 H    0.979   137 H    0.975
                           138 H    0.974
   105   6 C    3.947 --   101 O    0.986   139 H    0.978   141 H    0.975
                           140 H    0.974
   106   6 C    3.990 --   107 C    1.000   153 C    0.986    98 C    0.986
                           108 C    0.985
   107   6 C    3.995 --   106 C    1.000   131 H    0.985   130 H    0.984
                           132 H    0.980
   108   6 C    3.993 --   135 H    0.985   106 C    0.985   133 H    0.984
                           134 H    0.984
   109   6 C    3.990 --   111 C    1.000    84 C    0.987   112 C    0.985
                           110 C    0.985
   110   6 C    3.993 --   151 H    0.987   109 C    0.985   150 H    0.984
                           152 H    0.984
   111   6 C    3.995 --   109 C    1.000   148 H    0.984   147 H    0.984
                           149 H    0.984
   112   6 C    3.993 --   109 C    0.985   144 H    0.984   146 H    0.984
                           145 H    0.984
   113   6 C    3.988 --   115 C    0.999    94 C    0.988   114 C    0.988
                           116 C    0.978
   114   6 C    3.990 --   113 C    0.988   120 H    0.984   121 H    0.983
                           122 H    0.978
   115   6 C    3.995 --   113 C    0.999   119 H    0.984   118 H    0.983
                           117 H    0.977
   116   6 C    3.991 --   124 H    0.987   125 H    0.985   123 H    0.984
                           113 C    0.978
   117   1 H    0.998 --   115 C    0.977
   118   1 H    0.999 --   115 C    0.983
   119   1 H    0.998 --   115 C    0.984
   120   1 H    0.998 --   114 C    0.984
   121   1 H    0.998 --   114 C    0.983
   122   1 H    0.996 --   114 C    0.978
   123   1 H    0.997 --   116 C    0.984
   124   1 H    0.999 --   116 C    0.987
   125   1 H    0.998 --   116 C    0.985
   126   1 H    0.995 --    93 C    0.959
   127   1 H    0.993 --    95 C    0.957
   128   1 H    0.995 --    99 C    0.958
   129   1 H    0.998 --    97 C    0.957
   130   1 H    0.998 --   107 C    0.984
   131   1 H    0.998 --   107 C    0.985
   132   1 H    0.998 --   107 C    0.980
   133   1 H    0.999 --   108 C    0.984
   134   1 H    0.997 --   108 C    0.984
   135   1 H    0.999 --   108 C    0.985
   136   1 H    0.996 --   104 C    0.979
   137   1 H    0.997 --   104 C    0.975
   138   1 H    0.998 --   104 C    0.974
   139   1 H    0.997 --   105 C    0.978
   140   1 H    0.997 --   105 C    0.974
   141   1 H    0.998 --   105 C    0.975
   142   1 H    0.998 --    79 C    0.957
   143   1 H    0.994 --    83 C    0.956
   144   1 H    0.997 --   112 C    0.984
   145   1 H    0.999 --   112 C    0.984
   146   1 H    0.998 --   112 C    0.984
   147   1 H    0.998 --   111 C    0.984
   148   1 H    0.998 --   111 C    0.984
   149   1 H    0.998 --   111 C    0.984
   150   1 H    0.997 --   110 C    0.984
   151   1 H    0.999 --   110 C    0.987
   152   1 H    0.999 --   110 C    0.984
   153   6 C    3.993 --   156 H    0.987   106 C    0.986   154 H    0.984
                           155 H    0.983
   154   1 H    0.997 --   153 C    0.984
   155   1 H    0.999 --   153 C    0.983
   156   1 H    0.999 --   153 C    0.987
 ---------------------------------------------------------------------------

Topologies differ in bond orders
Writing corrected topology to xtbtopo.mol

molecular dipole:
                 x           y           z       tot (Debye)
 q only:       -3.309       1.756       1.124
   full:       -4.228       2.176       1.419      12.613
molecular quadrupole (traceless):
                xx          xy          yy          xz          yz          zz
 q only:       22.377     -13.503     -23.939     -45.568      -2.646       1.562
  q+dip:       28.642     -14.887     -26.722     -58.269      -1.711      -1.920
   full:       22.224     -16.741     -31.780     -57.525      -9.828       9.557

           -------------------------------------------------
          |                Geometry Summary                 |
           -------------------------------------------------

      molecular mass/u    :     1047.3661309
   center of mass at/Å    :       -0.4158176      -1.3499005       2.6297237
  moments of inertia/u·Å² :        0.1499576E+05   0.1865206E+05   0.2420737E+05
rotational constants/cm⁻¹ :        0.1124160E-02   0.9037945E-03   0.6963843E-03

 * 150 selected distances

     #   Z          #   Z                                           value/Å
     1   6 C        2   6 C                                       1.3823070
     2   6 C        3   6 C                                       1.4200946
     3   6 C        4   6 C                                       1.4091431
     4   6 C        5   6 C                                       1.3925606
     1   6 C        6   6 C                                       1.3976480
     5   6 C        6   6 C                                       1.3825186
     3   6 C        7   6 C                                       1.4325146
     7   6 C        8   6 C                                       1.4219373
     8   6 C        9   6 C                                       1.4088305
     7   6 C       11   6 C                                       1.4266636
    11   6 C       12   6 C                                       1.4095173
     8   6 C       14   6 C                                       1.4095794
    14   6 C       15   6 C                                       1.3868599
    15   6 C       16   6 C                                       1.3924973
     9   6 C       17   6 C                                       1.3904394
    16   6 C       17   6 C                                       1.3899197
    11   6 C       18   6 C                                       1.4215427
    18   6 C       19   6 C                                       1.3836454
    19   6 C       20   6 C                                       1.3967220
    12   6 C       21   6 C                                       1.3902713
    20   6 C       21   6 C                                       1.3837446
    18   6 C       22   8 O                                       1.3536404
     2   6 C       23   8 O                                       1.3613832
    10   6 C       24   8 O                                       1.2255281
    13   6 C       25   8 O                                       1.2250010
    22   8 O       26   6 C                                       1.4035121
    23   8 O       27   6 C                                       1.4033417
    28   6 C       29   6 C                                       1.5305898
    28   6 C       30   6 C                                       1.5360307
    31   6 C       32   6 C                                       1.5335703
    31   6 C       33   6 C                                       1.5307064
    31   6 C       34   6 C                                       1.5369509
    35   6 C       36   6 C                                       1.5307574
    35   6 C       37   6 C                                       1.5360322
    35   6 C       38   6 C                                       1.5348773
    37   6 C       39   1 H                                       1.0882405
    37   6 C       40   1 H                                       1.0864739
    37   6 C       41   1 H                                       1.0879551
    36   6 C       42   1 H                                       1.0882110
    36   6 C       43   1 H                                       1.0867225
    36   6 C       44   1 H                                       1.0873960
    38   6 C       45   1 H                                       1.0880033
    38   6 C       46   1 H                                       1.0860138
    38   6 C       47   1 H                                       1.0874774
    15   6 C       48   1 H                                       1.0799735
    17   6 C       49   1 H                                       1.0782217
    21   6 C       50   1 H                                       1.0775109 (min)
    19   6 C       51   1 H                                       1.0784246
    29   6 C       52   1 H                                       1.0883858
    29   6 C       53   1 H                                       1.0869162
    29   6 C       54   1 H                                       1.0868996
    30   6 C       55   1 H                                       1.0870628
    30   6 C       56   1 H                                       1.0880092
    30   6 C       57   1 H                                       1.0878503
    26   6 C       58   1 H                                       1.0880749
    26   6 C       59   1 H                                       1.0944426
    26   6 C       60   1 H                                       1.0962490
    27   6 C       61   1 H                                       1.0896376
    27   6 C       62   1 H                                       1.0953828
    27   6 C       63   1 H                                       1.0958681
     1   6 C       64   1 H                                       1.0778113
     5   6 C       65   1 H                                       1.0776994
    34   6 C       66   1 H                                       1.0880140
    34   6 C       67   1 H                                       1.0874213
    34   6 C       68   1 H                                       1.0876300
    33   6 C       69   1 H                                       1.0874625
    33   6 C       70   1 H                                       1.0885956
    33   6 C       71   1 H                                       1.0864241
    32   6 C       72   1 H                                       1.0880875
    32   6 C       73   1 H                                       1.0868330
    32   6 C       74   1 H                                       1.0868712
    28   6 C       75   6 C                                       1.5347313
    75   6 C       76   1 H                                       1.0879928
    75   6 C       77   1 H                                       1.0867902
    75   6 C       78   1 H                                       1.0877104
    79   6 C       80   6 C                                       1.3828086
    80   6 C       81   6 C                                       1.4211398
    81   6 C       82   6 C                                       1.4102611
    82   6 C       83   6 C                                       1.3915515
    79   6 C       84   6 C                                       1.3979232
    83   6 C       84   6 C                                       1.3822030
    81   6 C       85   6 C                                       1.4293320
    85   6 C       86   6 C                                       1.4229666
    86   6 C       87   6 C                                       1.4096405
    85   6 C       89   6 C                                       1.4320585
    89   6 C       90   6 C                                       1.4094011
    86   6 C       92   6 C                                       1.4090174
    92   6 C       93   6 C                                       1.3898359
    93   6 C       94   6 C                                       1.3905062
    87   6 C       95   6 C                                       1.3868692
    94   6 C       95   6 C                                       1.3920472
    89   6 C       96   6 C                                       1.4209746
    96   6 C       97   6 C                                       1.3830500
    97   6 C       98   6 C                                       1.3972123
    90   6 C       99   6 C                                       1.3913597
    98   6 C       99   6 C                                       1.3840261
    96   6 C      100   8 O                                       1.3608807
    80   6 C      101   8 O                                       1.3637860
    88   6 C      102   8 O                                       1.2240035
    91   6 C      103   8 O                                       1.2235963
   100   8 O      104   6 C                                       1.4038950
   101   8 O      105   6 C                                       1.4056444
   106   6 C      107   6 C                                       1.5300450
   106   6 C      108   6 C                                       1.5360979
   109   6 C      110   6 C                                       1.5357618
   109   6 C      111   6 C                                       1.5304887
   109   6 C      112   6 C                                       1.5349669
   113   6 C      114   6 C                                       1.5357673
   113   6 C      115   6 C                                       1.5304458
   113   6 C      116   6 C                                       1.5376425 (max)
   115   6 C      117   1 H                                       1.0870408
   115   6 C      118   1 H                                       1.0877334
   115   6 C      119   1 H                                       1.0888505
   114   6 C      120   1 H                                       1.0881308
   114   6 C      121   1 H                                       1.0863477
   114   6 C      122   1 H                                       1.0861591
   116   6 C      123   1 H                                       1.0880144
   116   6 C      124   1 H                                       1.0884909
   116   6 C      125   1 H                                       1.0872359
    93   6 C      126   1 H                                       1.0789999
    95   6 C      127   1 H                                       1.0786754
    99   6 C      128   1 H                                       1.0779575
    97   6 C      129   1 H                                       1.0778298
   107   6 C      130   1 H                                       1.0881633
   107   6 C      131   1 H                                       1.0870283
   107   6 C      132   1 H                                       1.0861317
   108   6 C      133   1 H                                       1.0871018
   108   6 C      134   1 H                                       1.0877873
   108   6 C      135   1 H                                       1.0884173
   104   6 C      136   1 H                                       1.0895746
   104   6 C      137   1 H                                       1.0949413
   104   6 C      138   1 H                                       1.0959762
   105   6 C      139   1 H                                       1.0899801
   105   6 C      140   1 H                                       1.0955081
   105   6 C      141   1 H                                       1.0946890
    79   6 C      142   1 H                                       1.0780093
    83   6 C      143   1 H                                       1.0776708
   112   6 C      144   1 H                                       1.0878716
   112   6 C      145   1 H                                       1.0867581
   112   6 C      146   1 H                                       1.0871653
   111   6 C      147   1 H                                       1.0869674
   111   6 C      148   1 H                                       1.0881782
   111   6 C      149   1 H                                       1.0869560
   110   6 C      150   1 H                                       1.0878088
   110   6 C      151   1 H                                       1.0879170
   110   6 C      152   1 H                                       1.0869283
   106   6 C      153   6 C                                       1.5356734
   153   6 C      154   1 H                                       1.0877961
   153   6 C      155   1 H                                       1.0865836
   153   6 C      156   1 H                                       1.0876991

 * 3 distinct bonds (by element types)

   Z      Z             #   av. dist./Å        max./Å        min./Å
   1 H    6 C          78     1.0869464     1.0962490     1.0775109
   6 C    6 C          60     1.4412379     1.5376425     1.3822030
   6 C    8 O          12     1.3295177     1.4056444     1.2235963
Note: The following floating-point exceptions are signalling: IEEE_UNDERFLOW_FLAG
normal termination of xtb


optimized geometry written to: xtbopt.mol


           -------------------------------------------------
          | TOTAL ENERGY             -222.343608873037 Eh   |
          | GRADIENT NORM               0.000152562077 Eh/α |
          | HOMO-LUMO GAP               1.313057135532 eV   |
           -------------------------------------------------
########################################################################
[WARNING] Runtime exception occurred
-3- restart_readRestart: Dimension missmatch in restart file.
-2- restart_readRestart: Multiplicity missmatch in restart file.
-1- restart_readRestart: Number of electron missmatch in restart file.
########################################################################

------------------------------------------------------------------------
 * finished run on 2024/11/11 at 15:24:52.503     
------------------------------------------------------------------------
 total:
 * wall-time:     0 d,  0 h,  1 min, 24.620 sec
 *  cpu-time:     0 d,  0 h,  4 min, 50.659 sec
 * ratio c/w:     3.435 speedup
 SCF:
 * wall-time:     0 d,  0 h,  0 min,  1.123 sec
 *  cpu-time:     0 d,  0 h,  0 min,  3.851 sec
 * ratio c/w:     3.429 speedup
 ANC optimizer:
 * wall-time:     0 d,  0 h,  1 min, 23.454 sec
 *  cpu-time:     0 d,  0 h,  4 min, 46.758 sec
 * ratio c/w:     3.436 speedup

