      -----------------------------------------------------------      
     |                   =====================                   |     
     |                           x T B                           |     
     |                   =====================                   |     
     |                         S. Grimme                         |     
     |          Mulliken Center for Theoretical Chemistry        |     
     |                    University of Bonn                     |     
      -----------------------------------------------------------      

   * xtb version 6.6.1 (8d0f1dd) compiled by 'runner@Mac-1690902418499.local' on 2023-08-01

   xtb is free software: you can redistribute it and/or modify it under
   the terms of the GNU Lesser General Public License as published by
   the Free Software Foundation, either version 3 of the License, or
   (at your option) any later version.
   
   xtb is distributed in the hope that it will be useful,
   but WITHOUT ANY WARRANTY; without even the implied warranty of
   MERCHANTABILITY or FITNESS FOR A PARTICULAR PURPOSE.  See the
   GNU Lesser General Public License for more details.
   
   Cite this work as:
   * C. Bannwarth, E. Caldeweyher, S. Ehlert, A. Hansen, P. Pracht,
     J. Seibert, S. Spicher, S. Grimme, WIREs Comput. Mol. Sci., 2020, 11,
     e01493. DOI: 10.1002/wcms.1493
   
   for GFN2-xTB:
   * C. Bannwarth, S. Ehlert and S. Grimme., J. Chem. Theory Comput., 2019,
     15, 1652-1671. DOI: 10.1021/acs.jctc.8b01176
   for GFN1-xTB:
   * S. Grimme, C. Bannwarth, P. Shushkov, J. Chem. Theory Comput., 2017,
     13, 1989-2009. DOI: 10.1021/acs.jctc.7b00118
   for GFN0-xTB:
   * P. Pracht, E. Caldeweyher, S. Ehlert, S. Grimme, ChemRxiv, 2019, preprint.
     DOI: 10.26434/chemrxiv.8326202.v1
   for GFN-FF:
   * S. Spicher and S. Grimme, Angew. Chem. Int. Ed., 2020, 59, 15665-15673.
     DOI: 10.1002/anie.202004239
   
   for ALPB and GBSA implicit solvation:
   * S. Ehlert, M. Stahn, S. Spicher, S. Grimme, J. Chem. Theory Comput.,
     2021, 17, 4250-4261. DOI: 10.1021/acs.jctc.1c00471
   
   for DFT-D4:
   * E. Caldeweyher, C. Bannwarth and S. Grimme, J. Chem. Phys., 2017,
     147, 034112. DOI: 10.1063/1.4993215
   * E. Caldeweyher, S. Ehlert, A. Hansen, H. Neugebauer, S. Spicher,
     C. Bannwarth and S. Grimme, J. Chem. Phys., 2019, 150, 154122.
     DOI: 10.1063/1.5090222
   * E. Caldeweyher, J.-M. Mewes, S. Ehlert and S. Grimme, Phys. Chem. Chem. Phys.
     2020, 22, 8499-8512. DOI: 10.1039/D0CP00502A
   
   for sTDA-xTB:
   * S. Grimme and C. Bannwarth, J. Chem. Phys., 2016, 145, 054103.
     DOI: 10.1063/1.4959605
   
   in the mass-spec context:
   * V. Asgeirsson, C. Bauer and S. Grimme, Chem. Sci., 2017, 8, 4879.
     DOI: 10.1039/c7sc00601b
   * J. Koopman and S. Grimme, ACS Omega 2019, 4, 12, 15120-15133.
     DOI: 10.1021/acsomega.9b02011
   
   for metadynamics refer to:
   * S. Grimme, J. Chem. Theory Comput., 2019, 155, 2847-2862
     DOI: 10.1021/acs.jctc.9b00143
   
   for SPH calculations refer to:
   * S. Spicher and S. Grimme, J. Chem. Theory Comput., 2021, 17, 1701-1714
     DOI: 10.1021/acs.jctc.0c01306
   
   with help from (in alphabetical order)
   P. Atkinson, C. Bannwarth, F. Bohle, G. Brandenburg, E. Caldeweyher
   M. Checinski, S. Dohm, S. Ehlert, S. Ehrlich, I. Gerasimov, C. Hölzer
   A. Katbashev, J. Koopman, C. Lavigne, S. Lehtola, F. März, M. Müller,
   F. Musil, H. Neugebauer, J. Pisarek, C. Plett, P. Pracht, F. Pultar,
   J. Seibert, P. Shushkov, S. Spicher, M. Stahn, M. Steiner, T. Strunk,
   J. Stückrath, T. Rose, and J. Unsleber
   
 * started run on 2024/11/11 at 15:21:47.199     

           -------------------------------------------------
          |                Calculation Setup                |
           -------------------------------------------------

          program call               : xtb Katherine3.mol --opt --gfn2 --chrg 0 --uhf 1 --tight
          coordinate file            : Katherine3.mol
          omp threads                :                     8

   ID    Z sym.   atoms
    1    6 C      1-21, 26-38, 75
    2    8 O      22-25
    3    1 H      39-74, 76-78
########################################################################
[WARNING] Please study the warnings concerning your input carefully
-1- prog_main_parseArguments: Unknown option '--tight' provided
########################################################################

           -------------------------------------------------
          |                 G F N 2 - x T B                 |
           -------------------------------------------------

        Reference                      10.1021/acs.jctc.8b01176
      * Hamiltonian:
        H0-scaling (s, p, d)           1.850000    2.230000    2.230000
        zeta-weighting                 0.500000
      * Dispersion:
        s8                             2.700000
        a1                             0.520000
        a2                             5.000000
        s9                             5.000000
      * Repulsion:
        kExp                           1.500000    1.000000
        rExp                           1.000000
      * Coulomb:
        alpha                          2.000000
        third order                    shell-resolved
        anisotropic                    true
        a3                             3.000000
        a5                             4.000000
        cn-shift                       1.200000
        cn-exp                         4.000000
        max-rad                        5.000000


          ...................................................
          :                      SETUP                      :
          :.................................................:
          :  # basis functions                 195          :
          :  # atomic orbitals                 195          :
          :  # shells                          117          :
          :  # electrons                       203          :
          :  max. iterations                   250          :
          :  Hamiltonian                  GFN2-xTB          :
          :  restarted?                      false          :
          :  GBSA solvation                  false          :
          :  PC potential                    false          :
          :  electronic temp.          300.0000000     K    :
          :  accuracy                    1.0000000          :
          :  -> integral cutoff          0.2500000E+02      :
          :  -> integral neglect         0.1000000E-07      :
          :  -> SCF convergence          0.1000000E-05 Eh   :
          :  -> wf. convergence          0.1000000E-03 e    :
          :  Broyden damping             0.4000000          :
          ...................................................

 iter      E             dE          RMSdq      gap      omega  full diag
   1   -112.3156217 -0.112316E+03  0.403E+00    1.50       0.0  T
   2   -112.4608973 -0.145276E+00  0.229E+00    1.36       1.0  T
   3   -112.4043082  0.565891E-01  0.124E+00    1.75       1.0  T
   4   -112.4442035 -0.398953E-01  0.689E-01    1.14       1.0  T
   5   -112.4899670 -0.457635E-01  0.193E-01    1.58       1.0  T
   6   -112.4932545 -0.328743E-02  0.814E-02    1.45       1.0  T
   7   -112.4935120 -0.257523E-03  0.410E-02    1.48       1.0  T
   8   -112.4935650 -0.529866E-04  0.139E-02    1.48       1.0  T
   9   -112.4935716 -0.662110E-05  0.639E-03    1.48       1.8  T
  10   -112.4935735 -0.185972E-05  0.215E-03    1.48       5.3  T
  11   -112.4935735 -0.888663E-07  0.102E-03    1.48      11.1  T
  12   -112.4935736 -0.509820E-08  0.508E-04    1.48      22.3  T
  13   -112.4935736 -0.115416E-07  0.200E-04    1.48      56.6  T

   *** convergence criteria satisfied after 13 iterations ***

         #    Occupation            Energy/Eh            Energy/eV
      -------------------------------------------------------------
         1        2.0000           -0.7223752             -19.6568
       ...           ...                  ...                  ...
        96        2.0000           -0.3965867             -10.7917
        97        2.0000           -0.3960583             -10.7773
        98        2.0000           -0.3860661             -10.5054
        99        2.0000           -0.3764369             -10.2434
       100        2.0000           -0.3735838             -10.1657
       101        2.0000           -0.3702196             -10.0742
       102        1.0000           -0.3391587              -9.2290 (HOMO)
       103                         -0.2848158              -7.7502 (LUMO)
       104                         -0.2591599              -7.0521
       105                         -0.2387611              -6.4970
       106                         -0.2350352              -6.3956
       107                         -0.2233809              -6.0785
       ...                                ...                  ...
       195                          0.6807945              18.5254
      -------------------------------------------------------------
                  HL-Gap            0.0543429 Eh            1.4787 eV
             Fermi-level           -0.3333311 Eh           -9.0704 eV

 SCC (total)                   0 d,  0 h,  0 min,  0.296 sec
 SCC setup                      ...        0 min,  0.001 sec (  0.326%)
 Dispersion                     ...        0 min,  0.001 sec (  0.372%)
 classical contributions        ...        0 min,  0.000 sec (  0.126%)
 integral evaluation            ...        0 min,  0.004 sec (  1.253%)
 iterations                     ...        0 min,  0.256 sec ( 86.383%)
 molecular gradient             ...        0 min,  0.027 sec (  9.193%)
 printout                       ...        0 min,  0.007 sec (  2.343%)

         :::::::::::::::::::::::::::::::::::::::::::::::::::::
         ::                     SUMMARY                     ::
         :::::::::::::::::::::::::::::::::::::::::::::::::::::
         :: total energy            -111.015813970012 Eh    ::
         :: gradient norm              0.167394404513 Eh/a0 ::
         :: HOMO-LUMO gap              1.478745041704 eV    ::
         ::.................................................::
         :: SCC energy              -112.493573564009 Eh    ::
         :: -> isotropic ES            0.092289774313 Eh    ::
         :: -> anisotropic ES          0.020364051002 Eh    ::
         :: -> anisotropic XC          0.045929491123 Eh    ::
         :: -> dispersion             -0.093242589784 Eh    ::
         :: repulsion energy           1.477005261791 Eh    ::
         :: add. restraining           0.000000000000 Eh    ::
         :: total charge               0.000000000000 e     ::
         :::::::::::::::::::::::::::::::::::::::::::::::::::::

      ----------------------------------------------------------- 
     |                   =====================                   |
     |                        A N C O P T                        |
     |                   =====================                   |
     |               Approximate Normal Coordinate               |
     |                Rational Function Optimizer                |
      ----------------------------------------------------------- 

          ...................................................
          :                      SETUP                      :
          :.................................................:
          :   optimization level            normal          :
          :   max. optcycles                   234          :
          :   ANC micro-cycles                  20          :
          :   degrees of freedom               228          :
          :.................................................:
          :   RF solver                   davidson          :
          :   write xtbopt.log                true          :
          :   linear?                        false          :
          :   energy convergence         0.5000000E-05 Eh   :
          :   grad. convergence          0.1000000E-02 Eh/α :
          :   maxmium RF displ.          1.0000000          :
          :   Hlow (freq-cutoff)         0.1000000E-01      :
          :   Hmax (freq-cutoff)         5.0000000          :
          :   S6 in model hess.         20.0000000          :
          ...................................................

generating ANC from model Hessian ...
Using Lindh-Hessian (1995)
 Shifting diagonal of input Hessian by    9.9309791350891807E-003
 Lowest  eigenvalues of input Hessian
    0.000000    0.000000    0.000000    0.000000    0.000000    0.000000
    0.010000    0.010073    0.010151    0.010253    0.010389    0.010397
    0.010669    0.010985    0.011181    0.011599    0.012070    0.012318
 Highest eigenvalues
    1.919636    1.946955    2.013153    2.069950    2.160928    2.181160


........................................................................
.............................. CYCLE    1 ..............................
........................................................................

 iter      E             dE          RMSdq      gap      omega  full diag
   1   -112.4935736 -0.112494E+03  0.105E-04    1.48       0.0  T
   2   -112.4935736 -0.101636E-09  0.750E-05    1.48     151.0  T
   3   -112.4935736 -0.373120E-09  0.450E-05    1.48     251.4  T
     SCC iter.                  ...        0 min,  0.119 sec
     gradient                   ...        0 min,  0.015 sec
 * total energy  :  -111.0158140 Eh     change       -0.1570044E-08 Eh
   gradient norm :     0.1673941 Eh/α   predicted     0.0000000E+00 (-100.00%)
   displ. norm   :     0.5330833 α      lambda       -0.6716772E-01
   maximum displ.:     0.2543437 α      in ANC's #88, #123, #49, ...

........................................................................
.............................. CYCLE    2 ..............................
........................................................................

 iter      E             dE          RMSdq      gap      omega  full diag
   1   -112.6120987 -0.112612E+03  0.307E-01    1.36       0.0  T
   2   -112.6120059  0.927828E-04  0.205E-01    1.47       1.0  T
   3   -112.6117512  0.254656E-03  0.150E-01    1.36       1.0  T
   4   -112.6132747 -0.152347E-02  0.290E-02    1.43       1.0  T
   5   -112.6133581 -0.834041E-04  0.101E-02    1.42       1.1  T
   6   -112.6133647 -0.663119E-05  0.434E-03    1.42       2.6  T
   7   -112.6133651 -0.318383E-06  0.207E-03    1.42       5.5  T
   8   -112.6133652 -0.163246E-06  0.396E-04    1.42      28.6  T
   9   -112.6133652 -0.252834E-08  0.178E-04    1.42      63.5  T
     SCC iter.                  ...        0 min,  0.271 sec
     gradient                   ...        0 min,  0.015 sec
 * total energy  :  -111.0637298 Eh     change       -0.4791586E-01 Eh
   gradient norm :     0.0892758 Eh/α   predicted    -0.4313653E-01 (  -9.97%)
   displ. norm   :     0.5996272 α      lambda       -0.3356425E-01
   maximum displ.:     0.2797987 α      in ANC's #49, #21, #85, ...

........................................................................
.............................. CYCLE    3 ..............................
........................................................................

 iter      E             dE          RMSdq      gap      omega  full diag
   1   -112.6978141 -0.112698E+03  0.213E-01    1.42       0.0  T
   2   -112.6980125 -0.198382E-03  0.164E-01    1.49       1.0  T
   3   -112.6980951 -0.826355E-04  0.797E-02    1.44       1.0  T
   4   -112.6984114 -0.316321E-03  0.278E-02    1.46       1.0  T
   5   -112.6984978 -0.863482E-04  0.621E-03    1.46       1.8  T
   6   -112.6984998 -0.204667E-05  0.287E-03    1.46       3.9  T
   7   -112.6984999 -0.445972E-07  0.151E-03    1.46       7.5  T
   8   -112.6985000 -0.110632E-06  0.362E-04    1.46      31.3  T
   9   -112.6985000 -0.178439E-08  0.198E-04    1.46      57.3  T
     SCC iter.                  ...        0 min,  0.261 sec
     gradient                   ...        0 min,  0.015 sec
 * total energy  :  -111.0844475 Eh     change       -0.2071762E-01 Eh
   gradient norm :     0.0326185 Eh/α   predicted    -0.2281630E-01 (  10.13%)
   displ. norm   :     0.5811461 α      lambda       -0.1123691E-01
   maximum displ.:     0.2893347 α      in ANC's #21, #49, #11, ...

........................................................................
.............................. CYCLE    4 ..............................
........................................................................

 iter      E             dE          RMSdq      gap      omega  full diag
   1   -112.7234455 -0.112723E+03  0.139E-01    1.45       0.0  T
   2   -112.7234593 -0.138488E-04  0.826E-02    1.46       1.0  T
   3   -112.7234315  0.277913E-04  0.228E-02    1.45       1.0  T
   4   -112.7234648 -0.333115E-04  0.344E-03    1.45       3.3  T
   5   -112.7234652 -0.311628E-06  0.208E-03    1.45       5.4  T
   6   -112.7234653 -0.138129E-06  0.115E-03    1.45       9.8  T
   7   -112.7234654 -0.742701E-07  0.370E-04    1.45      30.6  T
   8   -112.7234654 -0.101576E-07  0.138E-04    1.45      82.1  T
     SCC iter.                  ...        0 min,  0.253 sec
     gradient                   ...        0 min,  0.015 sec
 * total energy  :  -111.0931732 Eh     change       -0.8725739E-02 Eh
   gradient norm :     0.0215575 Eh/α   predicted    -0.7517641E-02 ( -13.85%)
   displ. norm   :     0.6801797 α      lambda       -0.8016159E-02
   maximum displ.:     0.3390802 α      in ANC's #21, #11, #17, ...

........................................................................
.............................. CYCLE    5 ..............................
........................................................................

 iter      E             dE          RMSdq      gap      omega  full diag
   1   -112.7441175 -0.112744E+03  0.130E-01    1.44       0.0  T
   2   -112.7441326 -0.150876E-04  0.771E-02    1.45       1.0  T
   3   -112.7441065  0.260710E-04  0.229E-02    1.44       1.0  T
   4   -112.7441381 -0.316593E-04  0.346E-03    1.45       3.3  T
   5   -112.7441385 -0.314521E-06  0.206E-03    1.45       5.5  T
   6   -112.7441386 -0.128591E-06  0.116E-03    1.45       9.7  T
   7   -112.7441387 -0.836089E-07  0.397E-04    1.45      28.5  T
   8   -112.7441387 -0.978518E-08  0.143E-04    1.45      78.9  T
     SCC iter.                  ...        0 min,  0.195 sec
     gradient                   ...        0 min,  0.015 sec
 * total energy  :  -111.0994430 Eh     change       -0.6269859E-02 Eh
   gradient norm :     0.0149568 Eh/α   predicted    -0.5862404E-02 (  -6.50%)
   displ. norm   :     0.6590298 α      lambda       -0.4852294E-02
   maximum displ.:     0.3064511 α      in ANC's #11, #21, #9, ...

........................................................................
.............................. CYCLE    6 ..............................
........................................................................

 iter      E             dE          RMSdq      gap      omega  full diag
   1   -112.7584759 -0.112758E+03  0.994E-02    1.44       0.0  T
   2   -112.7584883 -0.124779E-04  0.592E-02    1.44       1.0  T
   3   -112.7584668  0.214915E-04  0.197E-02    1.44       1.0  T
   4   -112.7584925 -0.256832E-04  0.319E-03    1.44       3.5  T
   5   -112.7584930 -0.441886E-06  0.171E-03    1.44       6.6  T
   6   -112.7584931 -0.106507E-06  0.983E-04    1.44      11.5  T
   7   -112.7584931 -0.466902E-07  0.371E-04    1.44      30.5  T
     SCC iter.                  ...        0 min,  0.139 sec
     gradient                   ...        0 min,  0.015 sec
 * total energy  :  -111.1031983 Eh     change       -0.3755276E-02 Eh
   gradient norm :     0.0134096 Eh/α   predicted    -0.3479877E-02 (  -7.33%)
   displ. norm   :     0.6037525 α      lambda       -0.2965662E-02
   maximum displ.:     0.3122316 α      in ANC's #11, #9, #21, ...

........................................................................
.............................. CYCLE    7 ..............................
........................................................................

 iter      E             dE          RMSdq      gap      omega  full diag
   1   -112.7690055 -0.112769E+03  0.746E-02    1.43       0.0  T
   2   -112.7690148 -0.921566E-05  0.445E-02    1.44       1.0  T
   3   -112.7689911  0.236383E-04  0.175E-02    1.43       1.0  T
   4   -112.7690183 -0.271649E-04  0.334E-03    1.44       3.4  T
   5   -112.7690190 -0.730041E-06  0.176E-03    1.44       6.4  T
   6   -112.7690192 -0.180746E-06  0.879E-04    1.44      12.9  T
   7   -112.7690192 -0.199112E-07  0.379E-04    1.44      29.8  T
     SCC iter.                  ...        0 min,  0.231 sec
     gradient                   ...        0 min,  0.015 sec
 * total energy  :  -111.1055005 Eh     change       -0.2302170E-02 Eh
   gradient norm :     0.0124021 Eh/α   predicted    -0.2023351E-02 ( -12.11%)
   displ. norm   :     0.5703082 α      lambda       -0.2075311E-02
   maximum displ.:     0.3003625 α      in ANC's #11, #9, #20, ...

........................................................................
.............................. CYCLE    8 ..............................
........................................................................

 iter      E             dE          RMSdq      gap      omega  full diag
   1   -112.7748423 -0.112775E+03  0.680E-02    1.43       0.0  T
   2   -112.7748485 -0.616226E-05  0.406E-02    1.43       1.0  T
   3   -112.7748278  0.207339E-04  0.154E-02    1.43       1.0  T
   4   -112.7748515 -0.237491E-04  0.283E-03    1.43       4.0  T
   5   -112.7748519 -0.431797E-06  0.164E-03    1.43       6.9  T
   6   -112.7748521 -0.149613E-06  0.790E-04    1.43      14.3  T
   7   -112.7748521 -0.145755E-07  0.334E-04    1.43      33.9  T
     SCC iter.                  ...        0 min,  0.121 sec
     gradient                   ...        0 min,  0.014 sec
 * total energy  :  -111.1071424 Eh     change       -0.1641944E-02 Eh
   gradient norm :     0.0104073 Eh/α   predicted    -0.1375157E-02 ( -16.25%)
   displ. norm   :     0.5787302 α      lambda       -0.1722203E-02
   maximum displ.:     0.2796335 α      in ANC's #11, #2, #9, ...

........................................................................
.............................. CYCLE    9 ..............................
........................................................................

 iter      E             dE          RMSdq      gap      omega  full diag
   1   -112.7778293 -0.112778E+03  0.770E-02    1.43       0.0  T
   2   -112.7778347 -0.539528E-05  0.458E-02    1.43       1.0  T
   3   -112.7778130  0.217828E-04  0.158E-02    1.43       1.0  T
   4   -112.7778378 -0.248840E-04  0.297E-03    1.43       3.8  T
   5   -112.7778383 -0.436278E-06  0.181E-03    1.43       6.3  T
   6   -112.7778385 -0.205916E-06  0.735E-04    1.43      15.4  T
   7   -112.7778385 -0.726534E-08  0.320E-04    1.43      35.4  T
     SCC iter.                  ...        0 min,  0.121 sec
     gradient                   ...        0 min,  0.014 sec
 * total energy  :  -111.1085381 Eh     change       -0.1395662E-02 Eh
   gradient norm :     0.0089804 Eh/α   predicted    -0.1149510E-02 ( -17.64%)
   displ. norm   :     0.6199088 α      lambda       -0.1587261E-02
   maximum displ.:     0.2411381 α      in ANC's #11, #2, #4, ...

........................................................................
.............................. CYCLE   10 ..............................
........................................................................

 iter      E             dE          RMSdq      gap      omega  full diag
   1   -112.7768991 -0.112777E+03  0.916E-02    1.43       0.0  T
   2   -112.7769123 -0.131710E-04  0.546E-02    1.43       1.0  T
   3   -112.7768868  0.255007E-04  0.219E-02    1.43       1.0  T
   4   -112.7769185 -0.317068E-04  0.293E-03    1.43       3.9  T
   5   -112.7769186 -0.167143E-06  0.174E-03    1.43       6.5  T
   6   -112.7769188 -0.115001E-06  0.899E-04    1.43      12.6  T
   7   -112.7769188 -0.198433E-07  0.318E-04    1.43      35.6  T
     SCC iter.                  ...        0 min,  0.131 sec
     gradient                   ...        0 min,  0.015 sec
 * total energy  :  -111.1098506 Eh     change       -0.1312491E-02 Eh
   gradient norm :     0.0098143 Eh/α   predicted    -0.1098614E-02 ( -16.30%)
   displ. norm   :     0.6658997 α      lambda       -0.1661611E-02
   maximum displ.:     0.3014889 α      in ANC's #2, #4, #6, ...

........................................................................
.............................. CYCLE   11 ..............................
........................................................................

 iter      E             dE          RMSdq      gap      omega  full diag
   1   -112.7782212 -0.112778E+03  0.102E-01    1.43       0.0  T
   2   -112.7782620 -0.408204E-04  0.613E-02    1.42       1.0  T
   3   -112.7782254  0.366133E-04  0.328E-02    1.43       1.0  T
   4   -112.7782813 -0.558275E-04  0.484E-03    1.42       2.3  T
   5   -112.7782820 -0.763928E-06  0.284E-03    1.43       4.0  T
   6   -112.7782826 -0.608256E-06  0.132E-03    1.42       8.6  T
   7   -112.7782827 -0.301339E-07  0.650E-04    1.42      17.4  T
   8   -112.7782827 -0.240153E-07  0.243E-04    1.42      46.6  T
     SCC iter.                  ...        0 min,  0.155 sec
     gradient                   ...        0 min,  0.016 sec
 * total energy  :  -111.1111083 Eh     change       -0.1257724E-02 Eh
   gradient norm :     0.0120212 Eh/α   predicted    -0.1199219E-02 (  -4.65%)
   displ. norm   :     0.6977716 α      lambda       -0.1810559E-02
   maximum displ.:     0.3226384 α      in ANC's #2, #4, #6, ...

........................................................................
.............................. CYCLE   12 ..............................
........................................................................

 iter      E             dE          RMSdq      gap      omega  full diag
   1   -112.7710320 -0.112771E+03  0.114E-01    1.43       0.0  T
   2   -112.7711095 -0.774943E-04  0.708E-02    1.42       1.0  T
   3   -112.7710700  0.394795E-04  0.419E-02    1.43       1.0  T
   4   -112.7711540 -0.839442E-04  0.719E-03    1.42       1.6  T
   5   -112.7711564 -0.247826E-05  0.390E-03    1.42       2.9  T
   6   -112.7711578 -0.135730E-05  0.158E-03    1.42       7.2  T
   7   -112.7711578 -0.165095E-07  0.879E-04    1.42      12.9  T
   8   -112.7711579 -0.539469E-07  0.282E-04    1.42      40.1  T
     SCC iter.                  ...        0 min,  0.190 sec
     gradient                   ...        0 min,  0.016 sec
 * total energy  :  -111.1122733 Eh     change       -0.1164944E-02 Eh
   gradient norm :     0.0144146 Eh/α   predicted    -0.1346056E-02 (  15.55%)
   displ. norm   :     0.4958910 α      lambda       -0.1477913E-02
   maximum displ.:     0.2606655 α      in ANC's #2, #4, #6, ...

........................................................................
.............................. CYCLE   13 ..............................
........................................................................

 iter      E             dE          RMSdq      gap      omega  full diag
   1   -112.7767889 -0.112777E+03  0.751E-02    1.43       0.0  T
   2   -112.7768268 -0.379132E-04  0.468E-02    1.42       1.0  T
   3   -112.7768132  0.135670E-04  0.282E-02    1.42       1.0  T
   4   -112.7768467 -0.334292E-04  0.574E-03    1.42       2.0  T
   5   -112.7768485 -0.180730E-05  0.322E-03    1.42       3.5  T
   6   -112.7768496 -0.109802E-05  0.112E-03    1.42      10.1  T
   7   -112.7768496 -0.192134E-07  0.617E-04    1.42      18.4  T
   8   -112.7768496 -0.151278E-07  0.230E-04    1.42      49.3  T
     SCC iter.                  ...        0 min,  0.191 sec
     gradient                   ...        0 min,  0.015 sec
 * total energy  :  -111.1134861 Eh     change       -0.1212860E-02 Eh
   gradient norm :     0.0138911 Eh/α   predicted    -0.9206726E-03 ( -24.09%)
   displ. norm   :     0.5777946 α      lambda       -0.1897045E-02
   maximum displ.:     0.2890805 α      in ANC's #2, #4, #6, ...

........................................................................
.............................. CYCLE   14 ..............................
........................................................................

 iter      E             dE          RMSdq      gap      omega  full diag
   1   -112.7826224 -0.112783E+03  0.869E-02    1.42       0.0  T
   2   -112.7826380 -0.155491E-04  0.513E-02    1.42       1.0  T
   3   -112.7826056  0.323324E-04  0.233E-02    1.42       1.0  T
   4   -112.7826443 -0.386889E-04  0.423E-03    1.42       2.7  T
   5   -112.7826453 -0.993949E-06  0.248E-03    1.42       4.6  T
   6   -112.7826458 -0.473660E-06  0.110E-03    1.42      10.3  T
   7   -112.7826458 -0.246160E-07  0.466E-04    1.42      24.3  T
   8   -112.7826458 -0.742239E-08  0.184E-04    1.42      61.6  T
     SCC iter.                  ...        0 min,  0.138 sec
     gradient                   ...        0 min,  0.017 sec
 * total energy  :  -111.1148892 Eh     change       -0.1403059E-02 Eh
   gradient norm :     0.0143682 Eh/α   predicted    -0.1265184E-02 (  -9.83%)
   displ. norm   :     0.6455195 α      lambda       -0.1615274E-02
   maximum displ.:     0.3268551 α      in ANC's #2, #4, #6, ...

........................................................................
.............................. CYCLE   15 ..............................
........................................................................

 iter      E             dE          RMSdq      gap      omega  full diag
   1   -112.7889030 -0.112789E+03  0.928E-02    1.42       0.0  T
   2   -112.7889178 -0.147219E-04  0.550E-02    1.41       1.0  T
   3   -112.7888895  0.282893E-04  0.220E-02    1.42       1.0  T
   4   -112.7889229 -0.334136E-04  0.369E-03    1.41       3.1  T
   5   -112.7889235 -0.593526E-06  0.227E-03    1.41       5.0  T
   6   -112.7889239 -0.393799E-06  0.106E-03    1.41      10.7  T
   7   -112.7889239 -0.283551E-07  0.434E-04    1.41      26.1  T
   8   -112.7889239 -0.751844E-08  0.172E-04    1.41      65.9  T
     SCC iter.                  ...        0 min,  0.192 sec
     gradient                   ...        0 min,  0.015 sec
 * total energy  :  -111.1161397 Eh     change       -0.1250556E-02 Eh
   gradient norm :     0.0161852 Eh/α   predicted    -0.1144178E-02 (  -8.51%)
   displ. norm   :     0.6330056 α      lambda       -0.1505576E-02
   maximum displ.:     0.3349434 α      in ANC's #2, #4, #6, ...

........................................................................
.............................. CYCLE   16 ..............................
........................................................................

 iter      E             dE          RMSdq      gap      omega  full diag
   1   -112.7859530 -0.112786E+03  0.883E-02    1.41       0.0  T
   2   -112.7859581 -0.510654E-05  0.518E-02    1.41       1.0  T
   3   -112.7859545  0.362037E-05  0.840E-03    1.41       1.3  T
   4   -112.7859594 -0.492426E-05  0.216E-03    1.41       5.2  T
   5   -112.7859595 -0.143969E-06  0.119E-03    1.41       9.5  T
   6   -112.7859595  0.687876E-09  0.649E-04    1.41      17.4  T
   7   -112.7859595 -0.221986E-07  0.218E-04    1.41      52.0  T
     SCC iter.                  ...        0 min,  0.162 sec
     gradient                   ...        0 min,  0.015 sec
 * total energy  :  -111.1173444 Eh     change       -0.1204697E-02 Eh
   gradient norm :     0.0121905 Eh/α   predicted    -0.1054431E-02 ( -12.47%)
   displ. norm   :     0.6419401 α      lambda       -0.1528062E-02
   maximum displ.:     0.3442792 α      in ANC's #2, #4, #9, ...

........................................................................
.............................. CYCLE   17 ..............................
........................................................................

 iter      E             dE          RMSdq      gap      omega  full diag
   1   -112.7901120 -0.112790E+03  0.884E-02    1.41       0.0  T
   2   -112.7901190 -0.699736E-05  0.527E-02    1.42       1.0  T
   3   -112.7900908  0.281971E-04  0.191E-02    1.41       1.0  T
   4   -112.7901231 -0.322972E-04  0.308E-03    1.42       3.7  T
   5   -112.7901237 -0.647916E-06  0.161E-03    1.41       7.0  T
   6   -112.7901239 -0.144670E-06  0.759E-04    1.41      14.9  T
   7   -112.7901239 -0.119870E-07  0.349E-04    1.41      32.4  T
     SCC iter.                  ...        0 min,  0.181 sec
     gradient                   ...        0 min,  0.014 sec
 * total energy  :  -111.1185160 Eh     change       -0.1171546E-02 Eh
   gradient norm :     0.0119656 Eh/α   predicted    -0.1078879E-02 (  -7.91%)
   displ. norm   :     0.6869475 α      lambda       -0.1392337E-02
   maximum displ.:     0.4049470 α      in ANC's #2, #4, #6, ...

........................................................................
.............................. CYCLE   18 ..............................
........................................................................

 iter      E             dE          RMSdq      gap      omega  full diag
   1   -112.7863834 -0.112786E+03  0.930E-02    1.42       0.0  T
   2   -112.7863985 -0.151266E-04  0.553E-02    1.42       1.0  T
   3   -112.7863599  0.386429E-04  0.238E-02    1.42       1.0  T
   4   -112.7864059 -0.459926E-04  0.300E-03    1.42       3.8  T
   5   -112.7864065 -0.556945E-06  0.155E-03    1.42       7.3  T
   6   -112.7864066 -0.103206E-06  0.891E-04    1.42      12.7  T
   7   -112.7864066 -0.923181E-08  0.311E-04    1.42      36.4  T
     SCC iter.                  ...        0 min,  0.201 sec
     gradient                   ...        0 min,  0.015 sec
 * total energy  :  -111.1197055 Eh     change       -0.1189480E-02 Eh
   gradient norm :     0.0112770 Eh/α   predicted    -0.1024694E-02 ( -13.85%)
   displ. norm   :     0.6879950 α      lambda       -0.1562917E-02
   maximum displ.:     0.3975489 α      in ANC's #2, #4, #7, ...

........................................................................
.............................. CYCLE   19 ..............................
........................................................................

 iter      E             dE          RMSdq      gap      omega  full diag
   1   -112.7913176 -0.112791E+03  0.100E-01    1.42       0.0  T
   2   -112.7913298 -0.122473E-04  0.595E-02    1.42       1.0  T
   3   -112.7913038  0.260329E-04  0.197E-02    1.42       1.0  T
   4   -112.7913335 -0.297561E-04  0.373E-03    1.42       3.0  T
   5   -112.7913344 -0.857478E-06  0.191E-03    1.42       5.9  T
   6   -112.7913346 -0.231654E-06  0.933E-04    1.42      12.1  T
   7   -112.7913347 -0.302869E-07  0.404E-04    1.42      28.0  T
     SCC iter.                  ...        0 min,  0.192 sec
     gradient                   ...        0 min,  0.029 sec
 * total energy  :  -111.1209905 Eh     change       -0.1285032E-02 Eh
   gradient norm :     0.0140635 Eh/α   predicted    -0.1151359E-02 ( -10.40%)
   displ. norm   :     0.7670250 α      lambda       -0.1709586E-02
   maximum displ.:     0.4874811 α      in ANC's #2, #4, #7, ...

........................................................................
.............................. CYCLE   20 ..............................
........................................................................

 iter      E             dE          RMSdq      gap      omega  full diag
   1   -112.7881941 -0.112788E+03  0.105E-01    1.42       0.0  T
   2   -112.7882200 -0.258428E-04  0.633E-02    1.42       1.0  T
   3   -112.7881619  0.580827E-04  0.296E-02    1.42       1.0  T
   4   -112.7882324 -0.704929E-04  0.392E-03    1.42       2.9  T
   5   -112.7882334 -0.102457E-05  0.193E-03    1.42       5.9  T
   6   -112.7882336 -0.196280E-06  0.103E-03    1.42      11.0  T
   7   -112.7882336 -0.558684E-08  0.475E-04    1.42      23.8  T
   8   -112.7882336 -0.154492E-07  0.190E-04    1.42      59.5  T
     SCC iter.                  ...        0 min,  0.208 sec
     gradient                   ...        0 min,  0.027 sec
 * total energy  :  -111.1224377 Eh     change       -0.1447244E-02 Eh
   gradient norm :     0.0146331 Eh/α   predicted    -0.1357695E-02 (  -6.19%)
   displ. norm   :     0.6867290 α      lambda       -0.1632325E-02
   maximum displ.:     0.4342171 α      in ANC's #2, #4, #7, ...
 * RMSD in coord.:     0.9602219 α      energy gain  -0.1066238E+00 Eh

generating ANC from model Hessian ...
Using Lindh-Hessian (1995)
 Shifting diagonal of input Hessian by    9.8902671017755111E-003
 Lowest  eigenvalues of input Hessian
    0.000000    0.000000    0.000000    0.000000    0.000000    0.000000
    0.010000    0.010113    0.010246    0.010268    0.010448    0.010523
    0.010828    0.011124    0.011473    0.011783    0.012708    0.012770
 Highest eigenvalues
    2.005857    2.033920    2.067755    2.076104    2.223344    2.244173


........................................................................
.............................. CYCLE   21 ..............................
........................................................................

 iter      E             dE          RMSdq      gap      omega  full diag
   1   -112.7917861 -0.112792E+03  0.989E-02    1.42       0.0  T
   2   -112.7917965 -0.104299E-04  0.592E-02    1.42       1.0  T
   3   -112.7917671  0.294478E-04  0.188E-02    1.42       1.0  T
   4   -112.7917999 -0.328134E-04  0.375E-03    1.42       3.0  T
   5   -112.7918010 -0.109374E-05  0.172E-03    1.42       6.6  T
   6   -112.7918011 -0.138700E-06  0.871E-04    1.42      13.0  T
   7   -112.7918012 -0.220268E-07  0.382E-04    1.42      29.6  T
     SCC iter.                  ...        0 min,  0.201 sec
     gradient                   ...        0 min,  0.022 sec
 * total energy  :  -111.1237943 Eh     change       -0.1356594E-02 Eh
   gradient norm :     0.0142577 Eh/α   predicted     0.0000000E+00 (-100.00%)
   displ. norm   :     0.1973084 α      lambda       -0.7667515E-03
   maximum displ.:     0.0905941 α      in ANC's #3, #1, #7, ...

........................................................................
.............................. CYCLE   22 ..............................
........................................................................

 iter      E             dE          RMSdq      gap      omega  full diag
   1   -112.7955146 -0.112796E+03  0.337E-02    1.42       0.0  T
   2   -112.7955191 -0.448130E-05  0.206E-02    1.42       1.0  T
   3   -112.7955128  0.631887E-05  0.108E-02    1.42       1.0  T
   4   -112.7955212 -0.834150E-05  0.193E-03    1.42       5.9  T
   5   -112.7955214 -0.286379E-06  0.895E-04    1.42      12.7  T
   6   -112.7955215 -0.394616E-07  0.497E-04    1.42      22.8  T
     SCC iter.                  ...        0 min,  0.323 sec
     gradient                   ...        0 min,  0.022 sec
 * total energy  :  -111.1244398 Eh     change       -0.6454569E-03 Eh
   gradient norm :     0.0063911 Eh/α   predicted    -0.3983071E-03 ( -38.29%)
   displ. norm   :     0.5147138 α      lambda       -0.1303636E-02
   maximum displ.:     0.2366054 α      in ANC's #3, #1, #7, ...

........................................................................
.............................. CYCLE   23 ..............................
........................................................................

 iter      E             dE          RMSdq      gap      omega  full diag
   1   -112.7994666 -0.112799E+03  0.728E-02    1.41       0.0  T
   2   -112.7994797 -0.130808E-04  0.439E-02    1.41       1.0  T
   3   -112.7994518  0.279647E-04  0.211E-02    1.41       1.0  T
   4   -112.7994855 -0.337295E-04  0.360E-03    1.41       3.1  T
   5   -112.7994865 -0.103014E-05  0.178E-03    1.41       6.4  T
   6   -112.7994867 -0.204225E-06  0.922E-04    1.41      12.3  T
   7   -112.7994867 -0.147677E-07  0.452E-04    1.41      25.0  T
     SCC iter.                  ...        0 min,  0.261 sec
     gradient                   ...        0 min,  0.024 sec
 * total energy  :  -111.1254942 Eh     change       -0.1054378E-02 Eh
   gradient norm :     0.0080209 Eh/α   predicted    -0.8245626E-03 ( -21.80%)
   displ. norm   :     0.6529968 α      lambda       -0.1237462E-02
   maximum displ.:     0.3054655 α      in ANC's #3, #1, #7, ...

........................................................................
.............................. CYCLE   24 ..............................
........................................................................

 iter      E             dE          RMSdq      gap      omega  full diag
   1   -112.7998895 -0.112800E+03  0.846E-02    1.41       0.0  T
   2   -112.7998966 -0.704016E-05  0.504E-02    1.41       1.0  T
   3   -112.7998753  0.212841E-04  0.174E-02    1.40       1.0  T
   4   -112.7998995 -0.242129E-04  0.299E-03    1.41       3.8  T
   5   -112.7999001 -0.589069E-06  0.162E-03    1.41       7.0  T
   6   -112.7999002 -0.152408E-06  0.833E-04    1.41      13.6  T
   7   -112.7999003 -0.193829E-07  0.349E-04    1.41      32.5  T
     SCC iter.                  ...        0 min,  0.268 sec
     gradient                   ...        0 min,  0.035 sec
 * total energy  :  -111.1266203 Eh     change       -0.1126177E-02 Eh
   gradient norm :     0.0142383 Eh/α   predicted    -0.8825888E-03 ( -21.63%)
   displ. norm   :     0.7618177 α      lambda       -0.1457215E-02
   maximum displ.:     0.3617284 α      in ANC's #3, #1, #7, ...

........................................................................
.............................. CYCLE   25 ..............................
........................................................................

 iter      E             dE          RMSdq      gap      omega  full diag
   1   -112.7981104 -0.112798E+03  0.936E-02    1.41       0.0  T
   2   -112.7981153 -0.493308E-05  0.556E-02    1.41       1.0  T
   3   -112.7981042  0.110962E-04  0.131E-02    1.40       1.0  T
   4   -112.7981170 -0.127838E-04  0.270E-03    1.41       4.2  T
   5   -112.7981173 -0.295123E-06  0.161E-03    1.41       7.0  T
   6   -112.7981175 -0.164432E-06  0.763E-04    1.41      14.8  T
   7   -112.7981175 -0.175372E-07  0.283E-04    1.41      40.1  T
     SCC iter.                  ...        0 min,  0.222 sec
     gradient                   ...        0 min,  0.014 sec
 * total energy  :  -111.1279377 Eh     change       -0.1317407E-02 Eh
   gradient norm :     0.0157457 Eh/α   predicted    -0.1151468E-02 ( -12.60%)
   displ. norm   :     0.7450316 α      lambda       -0.1556598E-02
   maximum displ.:     0.3629132 α      in ANC's #3, #1, #7, ...

........................................................................
.............................. CYCLE   26 ..............................
........................................................................

 iter      E             dE          RMSdq      gap      omega  full diag
   1   -112.7973915 -0.112797E+03  0.869E-02    1.41       0.0  T
   2   -112.7974004 -0.891058E-05  0.518E-02    1.41       1.0  T
   3   -112.7973769  0.235212E-04  0.166E-02    1.41       1.0  T
   4   -112.7974038 -0.269099E-04  0.275E-03    1.41       4.1  T
   5   -112.7974042 -0.414232E-06  0.142E-03    1.41       8.0  T
   6   -112.7974043 -0.715179E-07  0.774E-04    1.41      14.6  T
   7   -112.7974043 -0.905926E-08  0.320E-04    1.41      35.3  T
     SCC iter.                  ...        0 min,  0.225 sec
     gradient                   ...        0 min,  0.014 sec
 * total energy  :  -111.1293034 Eh     change       -0.1365657E-02 Eh
   gradient norm :     0.0126354 Eh/α   predicted    -0.1210316E-02 ( -11.37%)
   displ. norm   :     0.6965695 α      lambda       -0.1639382E-02
   maximum displ.:     0.3644881 α      in ANC's #1, #3, #2, ...

........................................................................
.............................. CYCLE   27 ..............................
........................................................................

 iter      E             dE          RMSdq      gap      omega  full diag
   1   -112.8006537 -0.112801E+03  0.835E-02    1.42       0.0  T
   2   -112.8006687 -0.150257E-04  0.497E-02    1.41       1.0  T
   3   -112.8006354  0.333008E-04  0.204E-02    1.42       1.0  T
   4   -112.8006746 -0.391814E-04  0.325E-03    1.41       3.5  T
   5   -112.8006753 -0.679137E-06  0.154E-03    1.41       7.3  T
   6   -112.8006754 -0.773851E-07  0.873E-04    1.41      13.0  T
   7   -112.8006754 -0.100849E-07  0.380E-04    1.41      29.8  T
     SCC iter.                  ...        0 min,  0.192 sec
     gradient                   ...        0 min,  0.024 sec
 * total energy  :  -111.1306645 Eh     change       -0.1361120E-02 Eh
   gradient norm :     0.0101003 Eh/α   predicted    -0.1217413E-02 ( -10.56%)
   displ. norm   :     0.7746740 α      lambda       -0.1481387E-02
   maximum displ.:     0.4166785 α      in ANC's #1, #3, #2, ...

........................................................................
.............................. CYCLE   28 ..............................
........................................................................

 iter      E             dE          RMSdq      gap      omega  full diag
   1   -112.8008237 -0.112801E+03  0.912E-02    1.42       0.0  T
   2   -112.8008329 -0.915764E-05  0.539E-02    1.42       1.0  T
   3   -112.8008107  0.221952E-04  0.155E-02    1.42       1.0  T
   4   -112.8008357 -0.249814E-04  0.281E-03    1.42       4.0  T
   5   -112.8008363 -0.572546E-06  0.129E-03    1.42       8.8  T
   6   -112.8008363 -0.528629E-07  0.810E-04    1.42      14.0  T
   7   -112.8008363 -0.181623E-07  0.339E-04    1.42      33.4  T
     SCC iter.                  ...        0 min,  0.204 sec
     gradient                   ...        0 min,  0.015 sec
 * total energy  :  -111.1319642 Eh     change       -0.1299689E-02 Eh
   gradient norm :     0.0141671 Eh/α   predicted    -0.1185201E-02 (  -8.81%)
   displ. norm   :     0.7257925 α      lambda       -0.1760076E-02
   maximum displ.:     0.4182186 α      in ANC's #1, #3, #2, ...

........................................................................
.............................. CYCLE   29 ..............................
........................................................................

 iter      E             dE          RMSdq      gap      omega  full diag
   1   -112.8088099 -0.112809E+03  0.951E-02    1.42       0.0  T
   2   -112.8088153 -0.539944E-05  0.561E-02    1.42       1.0  T
   3   -112.8088057  0.960111E-05  0.100E-02    1.42       1.1  T
   4   -112.8088161 -0.104472E-04  0.338E-03    1.42       3.3  T
   5   -112.8088171 -0.955823E-06  0.155E-03    1.42       7.3  T
   6   -112.8088172 -0.100160E-06  0.814E-04    1.42      13.9  T
   7   -112.8088172 -0.155763E-07  0.319E-04    1.42      35.5  T
     SCC iter.                  ...        0 min,  0.147 sec
     gradient                   ...        0 min,  0.014 sec
 * total energy  :  -111.1333235 Eh     change       -0.1359251E-02 Eh
   gradient norm :     0.0157507 Eh/α   predicted    -0.1343626E-02 (  -1.15%)
   displ. norm   :     0.8111236 α      lambda       -0.1620289E-02
   maximum displ.:     0.4678094 α      in ANC's #1, #3, #2, ...

........................................................................
.............................. CYCLE   30 ..............................
........................................................................

 iter      E             dE          RMSdq      gap      omega  full diag
   1   -112.8073502 -0.112807E+03  0.906E-02    1.42       0.0  T
   2   -112.8073536 -0.345330E-05  0.537E-02    1.42       1.0  T
   3   -112.8073390  0.146511E-04  0.113E-02    1.42       1.0  T
   4   -112.8073546 -0.156887E-04  0.280E-03    1.42       4.0  T
   5   -112.8073554 -0.752765E-06  0.119E-03    1.42       9.5  T
   6   -112.8073554 -0.400901E-07  0.631E-04    1.42      17.9  T
   7   -112.8073554 -0.860129E-08  0.174E-04    1.42      64.9  T
     SCC iter.                  ...        0 min,  0.118 sec
     gradient                   ...        0 min,  0.015 sec
 * total energy  :  -111.1347389 Eh     change       -0.1415394E-02 Eh
   gradient norm :     0.0144934 Eh/α   predicted    -0.1343157E-02 (  -5.10%)
   displ. norm   :     0.7398514 α      lambda       -0.1664598E-02
   maximum displ.:     0.4553601 α      in ANC's #1, #3, #2, ...

........................................................................
.............................. CYCLE   31 ..............................
........................................................................

 iter      E             dE          RMSdq      gap      omega  full diag
   1   -112.8095238 -0.112810E+03  0.797E-02    1.41       0.0  T
   2   -112.8095323 -0.847645E-05  0.474E-02    1.42       1.0  T
   3   -112.8095044  0.278924E-04  0.199E-02    1.41       1.0  T
   4   -112.8095367 -0.323547E-04  0.294E-03    1.41       3.8  T
   5   -112.8095375 -0.757531E-06  0.141E-03    1.41       8.0  T
   6   -112.8095376 -0.153755E-06  0.657E-04    1.41      17.2  T
   7   -112.8095376 -0.681138E-08  0.319E-04    1.41      35.5  T
     SCC iter.                  ...        0 min,  0.194 sec
     gradient                   ...        0 min,  0.020 sec
 * total energy  :  -111.1361397 Eh     change       -0.1400848E-02 Eh
   gradient norm :     0.0108625 Eh/α   predicted    -0.1287897E-02 (  -8.06%)
   displ. norm   :     0.7669807 α      lambda       -0.1467466E-02
   maximum displ.:     0.4868822 α      in ANC's #1, #3, #2, ...

........................................................................
.............................. CYCLE   32 ..............................
........................................................................

 iter      E             dE          RMSdq      gap      omega  full diag
   1   -112.8109658 -0.112811E+03  0.763E-02    1.41       0.0  T
   2   -112.8109677 -0.185985E-05  0.451E-02    1.41       1.0  T
   3   -112.8109642  0.346760E-05  0.638E-03    1.41       1.8  T
   4   -112.8109683 -0.406633E-05  0.205E-03    1.41       5.5  T
   5   -112.8109685 -0.263307E-06  0.114E-03    1.41      10.0  T
   6   -112.8109686 -0.310362E-07  0.569E-04    1.41      19.9  T
   7   -112.8109686 -0.126656E-07  0.192E-04    1.41      58.8  T
     SCC iter.                  ...        0 min,  0.259 sec
     gradient                   ...        0 min,  0.026 sec
 * total energy  :  -111.1374422 Eh     change       -0.1302461E-02 Eh
   gradient norm :     0.0099670 Eh/α   predicted    -0.1165360E-02 ( -10.53%)
   displ. norm   :     0.8112714 α      lambda       -0.1440075E-02
   maximum displ.:     0.5308219 α      in ANC's #1, #2, #3, ...

........................................................................
.............................. CYCLE   33 ..............................
........................................................................

 iter      E             dE          RMSdq      gap      omega  full diag
   1   -112.8137763 -0.112814E+03  0.741E-02    1.42       0.0  T
   2   -112.8137779 -0.164583E-05  0.439E-02    1.41       1.0  T
   3   -112.8137724  0.553224E-05  0.745E-03    1.41       1.5  T
   4   -112.8137789 -0.646028E-05  0.182E-03    1.41       6.2  T
   5   -112.8137790 -0.122863E-06  0.114E-03    1.41       9.9  T
   6   -112.8137790 -0.259609E-07  0.613E-04    1.41      18.5  T
   7   -112.8137790 -0.199768E-07  0.202E-04    1.41      56.2  T
     SCC iter.                  ...        0 min,  0.212 sec
     gradient                   ...        0 min,  0.014 sec
 * total energy  :  -111.1387341 Eh     change       -0.1291978E-02 Eh
   gradient norm :     0.0093170 Eh/α   predicted    -0.1193939E-02 (  -7.59%)
   displ. norm   :     0.8479465 α      lambda       -0.1457191E-02
   maximum displ.:     0.5702763 α      in ANC's #1, #2, #9, ...

........................................................................
.............................. CYCLE   34 ..............................
........................................................................

 iter      E             dE          RMSdq      gap      omega  full diag
   1   -112.8174950 -0.112817E+03  0.817E-02    1.42       0.0  T
   2   -112.8174979 -0.294912E-05  0.486E-02    1.42       1.0  T
   3   -112.8174845  0.134380E-04  0.111E-02    1.42       1.0  T
   4   -112.8174989 -0.144649E-04  0.239E-03    1.42       4.7  T
   5   -112.8174995 -0.529506E-06  0.106E-03    1.42      10.7  T
   6   -112.8174995 -0.469317E-07  0.538E-04    1.42      21.0  T
   7   -112.8174995 -0.602810E-08  0.168E-04    1.42      67.3  T
     SCC iter.                  ...        0 min,  0.196 sec
     gradient                   ...        0 min,  0.016 sec
 * total energy  :  -111.1399912 Eh     change       -0.1257098E-02 Eh
   gradient norm :     0.0098637 Eh/α   predicted    -0.1252474E-02 (  -0.37%)
   displ. norm   :     0.8443673 α      lambda       -0.1412800E-02
   maximum displ.:     0.5766091 α      in ANC's #1, #2, #9, ...

........................................................................
.............................. CYCLE   35 ..............................
........................................................................

 iter      E             dE          RMSdq      gap      omega  full diag
   1   -112.8178181 -0.112818E+03  0.756E-02    1.42       0.0  T
   2   -112.8178219 -0.383510E-05  0.447E-02    1.42       1.0  T
   3   -112.8178128  0.911304E-05  0.951E-03    1.42       1.2  T
   4   -112.8178226 -0.985297E-05  0.254E-03    1.42       4.5  T
   5   -112.8178233 -0.618644E-06  0.114E-03    1.42       9.9  T
   6   -112.8178233 -0.462710E-07  0.698E-04    1.42      16.2  T
   7   -112.8178233 -0.143119E-07  0.240E-04    1.42      47.1  T
     SCC iter.                  ...        0 min,  0.255 sec
     gradient                   ...        0 min,  0.022 sec
 * total energy  :  -111.1412264 Eh     change       -0.1235118E-02 Eh
   gradient norm :     0.0089274 Eh/α   predicted    -0.1210035E-02 (  -2.03%)
   displ. norm   :     0.8217892 α      lambda       -0.1445593E-02
   maximum displ.:     0.5609298 α      in ANC's #1, #9, #7, ...

........................................................................
.............................. CYCLE   36 ..............................
........................................................................

 iter      E             dE          RMSdq      gap      omega  full diag
   1   -112.8259374 -0.112826E+03  0.841E-02    1.43       0.0  T
   2   -112.8259505 -0.130406E-04  0.502E-02    1.43       1.0  T
   3   -112.8259196  0.308218E-04  0.224E-02    1.42       1.0  T
   4   -112.8259560 -0.363403E-04  0.390E-03    1.43       2.9  T
   5   -112.8259572 -0.126529E-05  0.194E-03    1.43       5.8  T
   6   -112.8259576 -0.352907E-06  0.699E-04    1.43      16.2  T
   7   -112.8259576 -0.760686E-08  0.350E-04    1.43      32.3  T
     SCC iter.                  ...        0 min,  0.223 sec
     gradient                   ...        0 min,  0.024 sec
 * total energy  :  -111.1421965 Eh     change       -0.9701120E-03 Eh
   gradient norm :     0.0150469 Eh/α   predicted    -0.1210931E-02 (  24.82%)
   displ. norm   :     0.7970379 α      lambda       -0.1518264E-02
   maximum displ.:     0.5534929 α      in ANC's #1, #2, #4, ...

........................................................................
.............................. CYCLE   37 ..............................
........................................................................

 iter      E             dE          RMSdq      gap      omega  full diag
   1   -112.8190737 -0.112819E+03  0.761E-02    1.43       0.0  T
   2   -112.8190944 -0.206698E-04  0.467E-02    1.43       1.0  T
   3   -112.8190671  0.272770E-04  0.209E-02    1.43       1.0  T
   4   -112.8191007 -0.336346E-04  0.404E-03    1.43       2.8  T
   5   -112.8191019 -0.116821E-05  0.142E-03    1.43       8.0  T
   6   -112.8191020 -0.123577E-06  0.626E-04    1.43      18.1  T
   7   -112.8191020 -0.207211E-08  0.319E-04    1.43      35.5  T
     SCC iter.                  ...        0 min,  0.214 sec
     gradient                   ...        0 min,  0.027 sec
 * total energy  :  -111.1433238 Eh     change       -0.1127322E-02 Eh
   gradient norm :     0.0119805 Eh/α   predicted    -0.1241388E-02 (  10.12%)
   displ. norm   :     0.7109010 α      lambda       -0.1338865E-02
   maximum displ.:     0.4986423 α      in ANC's #1, #9, #7, ...

........................................................................
.............................. CYCLE   38 ..............................
........................................................................

 iter      E             dE          RMSdq      gap      omega  full diag
   1   -112.8177036 -0.112818E+03  0.804E-02    1.43       0.0  T
   2   -112.8177077 -0.416494E-05  0.476E-02    1.43       1.0  T
   3   -112.8177002  0.754074E-05  0.896E-03    1.43       1.3  T
   4   -112.8177089 -0.870962E-05  0.239E-03    1.43       4.7  T
   5   -112.8177093 -0.365451E-06  0.113E-03    1.43      10.1  T
   6   -112.8177093  0.465832E-09  0.637E-04    1.43      17.8  T
   7   -112.8177093 -0.243005E-07  0.245E-04    1.43      46.3  T
     SCC iter.                  ...        0 min,  0.140 sec
     gradient                   ...        0 min,  0.014 sec
 * total energy  :  -111.1441087 Eh     change       -0.7849358E-03 Eh
   gradient norm :     0.0176916 Eh/α   predicted    -0.1007752E-02 (  28.39%)
   displ. norm   :     0.6960984 α      lambda       -0.1229585E-02
   maximum displ.:     0.4913344 α      in ANC's #1, #2, #9, ...

........................................................................
.............................. CYCLE   39 ..............................
........................................................................

 iter      E             dE          RMSdq      gap      omega  full diag
   1   -112.8169982 -0.112817E+03  0.659E-02    1.43       0.0  T
   2   -112.8170005 -0.232996E-05  0.392E-02    1.43       1.0  T
   3   -112.8169930  0.751578E-05  0.807E-03    1.43       1.4  T
   4   -112.8170010 -0.804113E-05  0.205E-03    1.43       5.5  T
   5   -112.8170014 -0.400737E-06  0.838E-04    1.43      13.5  T
   6   -112.8170015 -0.380212E-07  0.427E-04    1.43      26.5  T
     SCC iter.                  ...        0 min,  0.104 sec
     gradient                   ...        0 min,  0.015 sec
 * total energy  :  -111.1451545 Eh     change       -0.1045791E-02 Eh
   gradient norm :     0.0101385 Eh/α   predicted    -0.9126930E-03 ( -12.73%)
   displ. norm   :     0.6598210 α      lambda       -0.1386531E-02
   maximum displ.:     0.4291624 α      in ANC's #1, #7, #9, ...

........................................................................
.............................. CYCLE   40 ..............................
........................................................................

 iter      E             dE          RMSdq      gap      omega  full diag
   1   -112.8266189 -0.112827E+03  0.874E-02    1.43       0.0  T
   2   -112.8266323 -0.133795E-04  0.521E-02    1.43       1.0  T
   3   -112.8266054  0.268484E-04  0.195E-02    1.43       1.0  T
   4   -112.8266366 -0.311842E-04  0.336E-03    1.43       3.4  T
   5   -112.8266375 -0.881806E-06  0.142E-03    1.43       8.0  T
   6   -112.8266376 -0.117992E-06  0.751E-04    1.43      15.1  T
   7   -112.8266376 -0.893773E-08  0.351E-04    1.43      32.3  T
     SCC iter.                  ...        0 min,  0.122 sec
     gradient                   ...        0 min,  0.015 sec
 * total energy  :  -111.1460824 Eh     change       -0.9279093E-03 Eh
   gradient norm :     0.0118542 Eh/α   predicted    -0.9950929E-03 (   7.24%)
   displ. norm   :     0.8483575 α      lambda       -0.1209444E-02
   maximum displ.:     0.6024138 α      in ANC's #1, #7, #2, ...

........................................................................
.............................. CYCLE   41 ..............................
........................................................................

 iter      E             dE          RMSdq      gap      omega  full diag
   1   -112.8217023 -0.112822E+03  0.861E-02    1.44       0.0  T
   2   -112.8217081 -0.579748E-05  0.511E-02    1.43       1.0  T
   3   -112.8216945  0.136142E-04  0.132E-02    1.44       1.0  T
   4   -112.8217101 -0.156531E-04  0.208E-03    1.43       5.4  T
   5   -112.8217104 -0.255991E-06  0.961E-04    1.43      11.8  T
   6   -112.8217104 -0.307391E-07  0.530E-04    1.43      21.4  T
     SCC iter.                  ...        0 min,  0.160 sec
     gradient                   ...        0 min,  0.015 sec
 * total energy  :  -111.1471553 Eh     change       -0.1072883E-02 Eh
   gradient norm :     0.0088613 Eh/α   predicted    -0.1039952E-02 (  -3.07%)
   displ. norm   :     0.8011991 α      lambda       -0.1153869E-02
   maximum displ.:     0.5619209 α      in ANC's #1, #7, #2, ...

........................................................................
.............................. CYCLE   42 ..............................
........................................................................

 iter      E             dE          RMSdq      gap      omega  full diag
   1   -112.8184630 -0.112818E+03  0.894E-02    1.43       0.0  T
   2   -112.8184682 -0.516448E-05  0.528E-02    1.43       1.0  T
   3   -112.8184626  0.563803E-05  0.866E-03    1.43       1.3  T
   4   -112.8184693 -0.673314E-05  0.210E-03    1.43       5.4  T
   5   -112.8184696 -0.270209E-06  0.102E-03    1.43      11.1  T
   6   -112.8184696 -0.132591E-07  0.590E-04    1.43      19.2  T
   7   -112.8184696 -0.161869E-07  0.211E-04    1.43      53.6  T
     SCC iter.                  ...        0 min,  0.265 sec
     gradient                   ...        0 min,  0.015 sec
 * total energy  :  -111.1481186 Eh     change       -0.9632622E-03 Eh
   gradient norm :     0.0096798 Eh/α   predicted    -0.9472821E-03 (  -1.66%)
   displ. norm   :     0.8213332 α      lambda       -0.1046303E-02
   maximum displ.:     0.5672352 α      in ANC's #1, #7, #9, ...
 * RMSD in coord.:     1.5973238 α      energy gain  -0.2568084E-01 Eh

generating ANC from model Hessian ...
Using Lindh-Hessian (1995)
 Shifting diagonal of input Hessian by    9.8687904087851486E-003
 Lowest  eigenvalues of input Hessian
    0.000000    0.000000    0.000000    0.000000    0.000000    0.000000
    0.010000    0.010091    0.010178    0.010328    0.010420    0.010498
    0.010838    0.011122    0.011304    0.011622    0.012558    0.012662
 Highest eigenvalues
    2.016628    2.058240    2.082910    2.098758    2.219803    2.246510


........................................................................
.............................. CYCLE   43 ..............................
........................................................................

 iter      E             dE          RMSdq      gap      omega  full diag
   1   -112.8197614 -0.112820E+03  0.867E-02    1.44       0.0  T
   2   -112.8197687 -0.725372E-05  0.516E-02    1.44       1.0  T
   3   -112.8197504  0.182710E-04  0.121E-02    1.44       1.0  T
   4   -112.8197699 -0.195020E-04  0.321E-03    1.44       3.5  T
   5   -112.8197711 -0.115737E-05  0.881E-04    1.44      12.9  T
   6   -112.8197711 -0.970161E-08  0.544E-04    1.44      20.8  T
   7   -112.8197711 -0.668570E-08  0.220E-04    1.44      51.4  T
     SCC iter.                  ...        0 min,  0.150 sec
     gradient                   ...        0 min,  0.015 sec
 * total energy  :  -111.1490226 Eh     change       -0.9040125E-03 Eh
   gradient norm :     0.0105413 Eh/α   predicted     0.0000000E+00 (-100.00%)
   displ. norm   :     0.1262866 α      lambda       -0.4304829E-03
   maximum displ.:     0.0910922 α      in ANC's #1, #17, #2, ...

........................................................................
.............................. CYCLE   44 ..............................
........................................................................

 iter      E             dE          RMSdq      gap      omega  full diag
   1   -112.8257404 -0.112826E+03  0.234E-02    1.44       0.0  T
   2   -112.8257436 -0.316302E-05  0.144E-02    1.44       1.0  T
   3   -112.8257404  0.312863E-05  0.751E-03    1.44       1.5  T
   4   -112.8257448 -0.432823E-05  0.171E-03    1.44       6.6  T
   5   -112.8257450 -0.215360E-06  0.568E-04    1.44      19.9  T
   6   -112.8257450 -0.136416E-07  0.299E-04    1.44      37.8  T
     SCC iter.                  ...        0 min,  0.165 sec
     gradient                   ...        0 min,  0.018 sec
 * total energy  :  -111.1493509 Eh     change       -0.3282654E-03 Eh
   gradient norm :     0.0032711 Eh/α   predicted    -0.2186747E-03 ( -33.38%)
   displ. norm   :     0.2364956 α      lambda       -0.3820230E-03
   maximum displ.:     0.1729498 α      in ANC's #1, #2, #17, ...

........................................................................
.............................. CYCLE   45 ..............................
........................................................................

 iter      E             dE          RMSdq      gap      omega  full diag
   1   -112.8304196 -0.112830E+03  0.314E-02    1.44       0.0  T
   2   -112.8304228 -0.317295E-05  0.190E-02    1.44       1.0  T
   3   -112.8304167  0.606726E-05  0.919E-03    1.44       1.2  T
   4   -112.8304242 -0.746813E-05  0.157E-03    1.44       7.2  T
   5   -112.8304244 -0.182271E-06  0.630E-04    1.44      18.0  T
   6   -112.8304244 -0.191542E-07  0.329E-04    1.44      34.4  T
     SCC iter.                  ...        0 min,  0.166 sec
     gradient                   ...        0 min,  0.015 sec
 * total energy  :  -111.1496470 Eh     change       -0.2961202E-03 Eh
   gradient norm :     0.0040305 Eh/α   predicted    -0.2017174E-03 ( -31.88%)
   displ. norm   :     0.3023319 α      lambda       -0.3402025E-03
   maximum displ.:     0.2176161 α      in ANC's #1, #2, #17, ...

........................................................................
.............................. CYCLE   46 ..............................
........................................................................

 iter      E             dE          RMSdq      gap      omega  full diag
   1   -112.8317015 -0.112832E+03  0.349E-02    1.44       0.0  T
   2   -112.8317030 -0.155261E-05  0.209E-02    1.44       1.0  T
   3   -112.8316976  0.539213E-05  0.776E-03    1.44       1.5  T
   4   -112.8317038 -0.614524E-05  0.119E-03    1.44       9.5  T
   5   -112.8317039 -0.972412E-07  0.591E-04    1.44      19.2  T
   6   -112.8317039 -0.168292E-07  0.320E-04    1.44      35.3  T
     SCC iter.                  ...        0 min,  0.101 sec
     gradient                   ...        0 min,  0.015 sec
 * total energy  :  -111.1499489 Eh     change       -0.3019402E-03 Eh
   gradient norm :     0.0058790 Eh/α   predicted    -0.1856528E-03 ( -38.51%)
   displ. norm   :     0.3872103 α      lambda       -0.4164537E-03
   maximum displ.:     0.2745277 α      in ANC's #1, #2, #17, ...

........................................................................
.............................. CYCLE   47 ..............................
........................................................................

 iter      E             dE          RMSdq      gap      omega  full diag
   1   -112.8301072 -0.112830E+03  0.428E-02    1.44       0.0  T
   2   -112.8301081 -0.841448E-06  0.255E-02    1.44       1.0  T
   3   -112.8301051  0.296178E-05  0.568E-03    1.44       2.0  T
   4   -112.8301084 -0.329109E-05  0.118E-03    1.44       9.6  T
   5   -112.8301085 -0.952083E-07  0.626E-04    1.44      18.1  T
   6   -112.8301085 -0.151767E-07  0.325E-04    1.44      34.8  T
     SCC iter.                  ...        0 min,  0.193 sec
     gradient                   ...        0 min,  0.015 sec
 * total energy  :  -111.1503179 Eh     change       -0.3689388E-03 Eh
   gradient norm :     0.0050589 Eh/α   predicted    -0.2394489E-03 ( -35.10%)
   displ. norm   :     0.4118631 α      lambda       -0.4133134E-03
   maximum displ.:     0.2994095 α      in ANC's #1, #2, #6, ...

........................................................................
.............................. CYCLE   48 ..............................
........................................................................

 iter      E             dE          RMSdq      gap      omega  full diag
   1   -112.8276887 -0.112828E+03  0.451E-02    1.44       0.0  T
   2   -112.8276893 -0.593629E-06  0.269E-02    1.44       1.0  T
   3   -112.8276872  0.209380E-05  0.464E-03    1.44       2.4  T
   4   -112.8276895 -0.234277E-05  0.103E-03    1.44      11.0  T
   5   -112.8276896 -0.605673E-07  0.565E-04    1.44      20.0  T
   6   -112.8276896 -0.112221E-07  0.281E-04    1.44      40.3  T
     SCC iter.                  ...        0 min,  0.114 sec
     gradient                   ...        0 min,  0.016 sec
 * total energy  :  -111.1506742 Eh     change       -0.3563766E-03 Eh
   gradient norm :     0.0041418 Eh/α   predicted    -0.2417126E-03 ( -32.17%)
   displ. norm   :     0.3686502 α      lambda       -0.3457651E-03
   maximum displ.:     0.2765868 α      in ANC's #1, #2, #6, ...

........................................................................
.............................. CYCLE   49 ..............................
........................................................................

 iter      E             dE          RMSdq      gap      omega  full diag
   1   -112.8265548 -0.112827E+03  0.407E-02    1.44       0.0  T
   2   -112.8265557 -0.900036E-06  0.244E-02    1.44       1.0  T
   3   -112.8265519  0.375191E-05  0.612E-03    1.44       1.8  T
   4   -112.8265561 -0.419804E-05  0.919E-04    1.44      12.3  T
   5   -112.8265562 -0.471008E-07  0.483E-04    1.44      23.4  T
   6   -112.8265562 -0.885382E-08  0.264E-04    1.44      42.9  T
     SCC iter.                  ...        0 min,  0.106 sec
     gradient                   ...        0 min,  0.014 sec
 * total energy  :  -111.1509794 Eh     change       -0.3052105E-03 Eh
   gradient norm :     0.0040902 Eh/α   predicted    -0.1963791E-03 ( -35.66%)
   displ. norm   :     0.3570695 α      lambda       -0.3247303E-03
   maximum displ.:     0.2706319 α      in ANC's #1, #2, #6, ...

........................................................................
.............................. CYCLE   50 ..............................
........................................................................

 iter      E             dE          RMSdq      gap      omega  full diag
   1   -112.8266621 -0.112827E+03  0.398E-02    1.44       0.0  T
   2   -112.8266631 -0.973581E-06  0.237E-02    1.44       1.0  T
   3   -112.8266589  0.419721E-05  0.669E-03    1.44       1.7  T
   4   -112.8266636 -0.474778E-05  0.837E-04    1.44      13.5  T
   5   -112.8266637 -0.334208E-07  0.440E-04    1.44      25.7  T
   6   -112.8266637 -0.586662E-08  0.242E-04    1.44      46.8  T
     SCC iter.                  ...        0 min,  0.106 sec
     gradient                   ...        0 min,  0.014 sec
 * total energy  :  -111.1512764 Eh     change       -0.2969581E-03 Eh
   gradient norm :     0.0042721 Eh/α   predicted    -0.1830703E-03 ( -38.35%)
   displ. norm   :     0.3901119 α      lambda       -0.3514214E-03
   maximum displ.:     0.2954326 α      in ANC's #1, #2, #6, ...

........................................................................
.............................. CYCLE   51 ..............................
........................................................................

 iter      E             dE          RMSdq      gap      omega  full diag
   1   -112.8276179 -0.112828E+03  0.432E-02    1.44       0.0  T
   2   -112.8276187 -0.790722E-06  0.257E-02    1.44       1.0  T
   3   -112.8276155  0.311837E-05  0.583E-03    1.44       1.9  T
   4   -112.8276191 -0.355002E-05  0.800E-04    1.44      14.2  T
   5   -112.8276191 -0.238419E-07  0.434E-04    1.44      26.1  T
   6   -112.8276191 -0.386133E-08  0.225E-04    1.44      50.3  T
     SCC iter.                  ...        0 min,  0.109 sec
     gradient                   ...        0 min,  0.015 sec
 * total energy  :  -111.1516010 Eh     change       -0.3246407E-03 Eh
   gradient norm :     0.0041482 Eh/α   predicted    -0.2024523E-03 ( -37.64%)
   displ. norm   :     0.4464580 α      lambda       -0.3847250E-03
   maximum displ.:     0.3366508 α      in ANC's #1, #2, #4, ...

........................................................................
.............................. CYCLE   52 ..............................
........................................................................

 iter      E             dE          RMSdq      gap      omega  full diag
   1   -112.8286959 -0.112829E+03  0.486E-02    1.44       0.0  T
   2   -112.8286964 -0.516553E-06  0.288E-02    1.44       1.0  T
   3   -112.8286946  0.183386E-05  0.435E-03    1.44       2.6  T
   4   -112.8286967 -0.209358E-05  0.840E-04    1.44      13.5  T
   5   -112.8286967 -0.259602E-07  0.505E-04    1.44      22.4  T
   6   -112.8286967 -0.100198E-07  0.251E-04    1.44      45.0  T
     SCC iter.                  ...        0 min,  0.123 sec
     gradient                   ...        0 min,  0.015 sec
 * total energy  :  -111.1519593 Eh     change       -0.3582821E-03 Eh
   gradient norm :     0.0037890 Eh/α   predicted    -0.2307058E-03 ( -35.61%)
   displ. norm   :     0.4919019 α      lambda       -0.4047359E-03
   maximum displ.:     0.3701878 α      in ANC's #1, #2, #4, ...

........................................................................
.............................. CYCLE   53 ..............................
........................................................................

 iter      E             dE          RMSdq      gap      omega  full diag
   1   -112.8297970 -0.112830E+03  0.526E-02    1.44       0.0  T
   2   -112.8297973 -0.336225E-06  0.312E-02    1.44       1.0  T
   3   -112.8297961  0.125552E-05  0.345E-03    1.44       3.3  T
   4   -112.8297975 -0.144066E-05  0.842E-04    1.44      13.4  T
   5   -112.8297975 -0.289797E-07  0.491E-04    1.44      23.1  T
   6   -112.8297975 -0.888133E-08  0.200E-04    1.44      56.5  T
     SCC iter.                  ...        0 min,  0.147 sec
     gradient                   ...        0 min,  0.026 sec
 * total energy  :  -111.1523393 Eh     change       -0.3799584E-03 Eh
   gradient norm :     0.0035714 Eh/α   predicted    -0.2513356E-03 ( -33.85%)
   displ. norm   :     0.5261698 α      lambda       -0.4136136E-03
   maximum displ.:     0.3951370 α      in ANC's #1, #2, #4, ...

........................................................................
.............................. CYCLE   54 ..............................
........................................................................

 iter      E             dE          RMSdq      gap      omega  full diag
   1   -112.8303687 -0.112830E+03  0.559E-02    1.44       0.0  T
   2   -112.8303691 -0.375024E-06  0.331E-02    1.44       1.0  T
   3   -112.8303678  0.132468E-05  0.367E-03    1.44       3.1  T
   4   -112.8303693 -0.153093E-05  0.847E-04    1.44      13.4  T
   5   -112.8303693 -0.265718E-07  0.505E-04    1.44      22.4  T
   6   -112.8303693 -0.916786E-08  0.221E-04    1.44      51.3  T
     SCC iter.                  ...        0 min,  0.103 sec
     gradient                   ...        0 min,  0.021 sec
 * total energy  :  -111.1527295 Eh     change       -0.3902559E-03 Eh
   gradient norm :     0.0028858 Eh/α   predicted    -0.2640625E-03 ( -32.34%)
   displ. norm   :     0.5464255 α      lambda       -0.4145152E-03
   maximum displ.:     0.4111994 α      in ANC's #1, #2, #4, ...

........................................................................
.............................. CYCLE   55 ..............................
........................................................................

 iter      E             dE          RMSdq      gap      omega  full diag
   1   -112.8312516 -0.112831E+03  0.581E-02    1.44       0.0  T
   2   -112.8312521 -0.410329E-06  0.344E-02    1.44       1.0  T
   3   -112.8312504  0.163109E-05  0.419E-03    1.44       2.7  T
   4   -112.8312523 -0.189101E-05  0.844E-04    1.44      13.4  T
   5   -112.8312523 -0.196575E-07  0.529E-04    1.44      21.4  T
   6   -112.8312523 -0.114075E-07  0.211E-04    1.44      53.7  T
     SCC iter.                  ...        0 min,  0.115 sec
     gradient                   ...        0 min,  0.018 sec
 * total energy  :  -111.1531179 Eh     change       -0.3883823E-03 Eh
   gradient norm :     0.0030683 Eh/α   predicted    -0.2691413E-03 ( -30.70%)
   displ. norm   :     0.5618398 α      lambda       -0.4026779E-03
   maximum displ.:     0.4238749 α      in ANC's #1, #2, #4, ...

........................................................................
.............................. CYCLE   56 ..............................
........................................................................

 iter      E             dE          RMSdq      gap      omega  full diag
   1   -112.8309672 -0.112831E+03  0.595E-02    1.44       0.0  T
   2   -112.8309678 -0.595293E-06  0.351E-02    1.44       1.0  T
   3   -112.8309669  0.927047E-06  0.332E-03    1.44       3.4  T
   4   -112.8309680 -0.112190E-05  0.941E-04    1.44      12.0  T
   5   -112.8309680 -0.470734E-07  0.490E-04    1.44      23.1  T
   6   -112.8309680 -0.309647E-08  0.270E-04    1.44      41.9  T
     SCC iter.                  ...        0 min,  0.103 sec
     gradient                   ...        0 min,  0.015 sec
 * total energy  :  -111.1534904 Eh     change       -0.3724588E-03 Eh
   gradient norm :     0.0021073 Eh/α   predicted    -0.2648971E-03 ( -28.88%)
   displ. norm   :     0.5518105 α      lambda       -0.3746768E-03
   maximum displ.:     0.4204217 α      in ANC's #1, #2, #4, ...

........................................................................
.............................. CYCLE   57 ..............................
........................................................................

 iter      E             dE          RMSdq      gap      omega  full diag
   1   -112.8317407 -0.112832E+03  0.583E-02    1.44       0.0  T
   2   -112.8317411 -0.466863E-06  0.344E-02    1.44       1.0  T
   3   -112.8317403  0.858450E-06  0.306E-03    1.44       3.7  T
   4   -112.8317413 -0.105510E-05  0.871E-04    1.44      13.0  T
   5   -112.8317414 -0.332994E-07  0.475E-04    1.44      23.9  T
   6   -112.8317414 -0.526423E-08  0.226E-04    1.44      50.1  T
     SCC iter.                  ...        0 min,  0.103 sec
     gradient                   ...        0 min,  0.015 sec
 * total energy  :  -111.1538355 Eh     change       -0.3451277E-03 Eh
   gradient norm :     0.0022152 Eh/α   predicted    -0.2443839E-03 ( -29.19%)
   displ. norm   :     0.5429305 α      lambda       -0.3348119E-03
   maximum displ.:     0.4185757 α      in ANC's #1, #2, #4, ...

........................................................................
.............................. CYCLE   58 ..............................
........................................................................

 iter      E             dE          RMSdq      gap      omega  full diag
[...]
        99        2.0000           -0.3810875             -10.3699
       100        2.0000           -0.3745233             -10.1913
       101        2.0000           -0.3710482             -10.0967
       102        1.0000           -0.3367246              -9.1627 (HOMO)
       103                         -0.2832928              -7.7088 (LUMO)
       104                         -0.2488871              -6.7726
       105                         -0.2315173              -6.2999
       106                         -0.2286959              -6.2231
       107                         -0.2149885              -5.8501
       108                         -0.1835659              -4.9951
       109                         -0.1774199              -4.8278
       110                         -0.1537337              -4.1833
       111                         -0.0990364              -2.6949
       112                         -0.0869426              -2.3658
       113                         -0.0449879              -1.2242
       ...                                ...                  ...
       195                          0.7409730              20.1629
      -------------------------------------------------------------
                  HL-Gap            0.0534317 Eh            1.4540 eV
             Fermi-level           -0.3319415 Eh           -9.0326 eV

     #   Z          covCN         q      C6AA      α(0)
     1   6 C        2.923    -0.072    29.793     8.951
     2   6 C        2.862     0.151    24.717     8.149
     3   6 C        2.978    -0.004    28.127     8.700
     4   6 C        2.980    -0.022    28.548     8.764
     5   6 C        2.928    -0.040    29.006     8.832
     6   6 C        2.971     0.013    27.729     8.637
     7   6 C        2.975     0.019    27.570     8.613
     8   6 C        2.992     0.002    27.966     8.675
     9   6 C        2.977    -0.020    28.503     8.757
    10   6 C        2.834     0.217    23.425     7.931
    11   6 C        2.977    -0.004    28.126     8.699
    12   6 C        2.980    -0.022    28.549     8.764
    13   6 C        2.835     0.218    23.413     7.929
    14   6 C        2.976    -0.020    28.504     8.758
    15   6 C        2.930    -0.020    28.508     8.756
    16   6 C        2.970     0.013    27.710     8.635
    17   6 C        2.928    -0.025    28.616     8.773
    18   6 C        2.861     0.151    24.729     8.151
    19   6 C        2.923    -0.072    29.789     8.951
    20   6 C        2.971     0.013    27.728     8.637
    21   6 C        2.928    -0.040    29.005     8.832
    22   8 O        1.705    -0.257    18.261     5.770
    23   8 O        1.705    -0.257    18.252     5.768
    24   8 O        0.858    -0.399    21.652     6.239
    25   8 O        0.858    -0.399    21.662     6.240
    26   6 C        3.642     0.042    20.219     6.465
    27   6 C        3.643     0.041    20.222     6.465
    28   6 C        3.903     0.027    20.059     6.366
    29   6 C        3.761    -0.112    22.685     6.790
    30   6 C        3.762    -0.105    22.559     6.771
    31   6 C        3.903     0.027    20.059     6.366
    32   6 C        3.762    -0.105    22.558     6.770
    33   6 C        3.761    -0.112    22.686     6.790
    34   6 C        3.761    -0.105    22.562     6.771
    35   6 C        3.903     0.027    20.068     6.368
    36   6 C        3.761    -0.111    22.662     6.786
    37   6 C        3.762    -0.108    22.602     6.777
    38   6 C        3.762    -0.107    22.600     6.777
    39   1 H        0.925     0.035     2.513     2.479
    40   1 H        0.925     0.042     2.420     2.433
    41   1 H        0.925     0.040     2.443     2.444
    42   1 H        0.925     0.039     2.466     2.456
    43   1 H        0.925     0.041     2.441     2.443
    44   1 H        0.925     0.039     2.457     2.451
    45   1 H        0.925     0.041     2.442     2.444
    46   1 H        0.925     0.041     2.433     2.439
    47   1 H        0.925     0.035     2.513     2.479
    48   1 H        0.926     0.064     2.153     2.295
    49   1 H        0.926     0.071     2.078     2.254
    50   1 H        0.926     0.072     2.065     2.247
    51   1 H        0.926     0.039     2.462     2.453
    52   1 H        0.925     0.038     2.469     2.457
    53   1 H        0.925     0.042     2.421     2.433
    54   1 H        0.925     0.042     2.417     2.431
    55   1 H        0.925     0.033     2.540     2.492
    56   1 H        0.925     0.040     2.446     2.446
    57   1 H        0.925     0.036     2.502     2.474
    58   1 H        0.925     0.062     2.177     2.308
    59   1 H        0.924     0.042     2.419     2.432
    60   1 H        0.924     0.039     2.464     2.455
    61   1 H        0.925     0.062     2.175     2.306
    62   1 H        0.924     0.042     2.417     2.431
    63   1 H        0.924     0.039     2.465     2.455
    64   1 H        0.926     0.039     2.463     2.454
    65   1 H        0.926     0.072     2.063     2.246
    66   1 H        0.925     0.041     2.440     2.443
    67   1 H        0.925     0.034     2.537     2.491
    68   1 H        0.925     0.037     2.490     2.468
    69   1 H        0.925     0.042     2.417     2.431
    70   1 H        0.925     0.038     2.469     2.457
    71   1 H        0.925     0.042     2.420     2.433
    72   1 H        0.925     0.040     2.446     2.446
    73   1 H        0.925     0.036     2.506     2.476
    74   1 H        0.925     0.033     2.541     2.493
    75   6 C        3.761    -0.105    22.562     6.771
    76   1 H        0.925     0.041     2.440     2.443
    77   1 H        0.925     0.034     2.536     2.491
    78   1 H        0.925     0.037     2.492     2.469

 Mol. C6AA /au·bohr⁶  :      64228.740556
 Mol. C8AA /au·bohr⁸  :    1518748.983091
 Mol. α(0) /au        :        392.621169


Wiberg/Mayer (AO) data.
largest (>0.10) Wiberg bond orders for each atom

 ---------------------------------------------------------------------------
     #   Z sym  total        # sym  WBO       # sym  WBO       # sym  WBO
 ---------------------------------------------------------------------------
     1   6 C    3.979 --     2 C    1.417     6 C    1.365    64 H    0.957
     2   6 C    3.918 --     1 C    1.417     3 C    1.232    23 O    1.076
     3   6 C    3.980 --     4 C    1.290     2 C    1.232     7 C    1.200
     4   6 C    3.974 --     5 C    1.384     3 C    1.290    10 C    1.052
     5   6 C    3.978 --     6 C    1.419     4 C    1.384    65 H    0.957
     6   6 C    3.960 --     5 C    1.419     1 C    1.365    31 C    0.987
     7   6 C    3.928 --     8 C    1.213     3 C    1.200    11 C    1.199
     8   6 C    3.987 --     9 C    1.276    14 C    1.267     7 C    1.213
     9   6 C    3.978 --    17 C    1.398     8 C    1.276    10 C    1.052
    10   6 C    3.938 --    24 O    1.716     9 C    1.052     4 C    1.052
    11   6 C    3.980 --    12 C    1.290    18 C    1.233     7 C    1.199
    12   6 C    3.974 --    21 C    1.384    11 C    1.290    13 C    1.052
    13   6 C    3.938 --    25 O    1.717    12 C    1.052    14 C    1.051
    14   6 C    3.979 --    15 C    1.413     8 C    1.267    13 C    1.051
    15   6 C    3.982 --    14 C    1.413    16 C    1.388    48 H    0.958
    16   6 C    3.963 --    17 C    1.403    15 C    1.388    35 C    0.986
    17   6 C    3.981 --    16 C    1.403     9 C    1.398    49 H    0.958
    18   6 C    3.922 --    19 C    1.417    11 C    1.233    22 O    1.075
    19   6 C    3.979 --    18 C    1.417    20 C    1.366    51 H    0.957
    20   6 C    3.957 --    21 C    1.419    19 C    1.366    28 C    0.987
    21   6 C    3.977 --    20 C    1.419    12 C    1.384    50 H    0.957
    22   8 O    2.254 --    18 C    1.075    26 C    0.986
    23   8 O    2.254 --     2 C    1.076    27 C    0.986
    24   8 O    1.997 --    10 C    1.716
    25   8 O    1.997 --    13 C    1.717
    26   6 C    3.946 --    22 O    0.986    58 H    0.979    59 H    0.975
                            60 H    0.975
    27   6 C    3.946 --    23 O    0.986    61 H    0.979    62 H    0.975
                            63 H    0.974
    28   6 C    3.990 --    29 C    1.000    20 C    0.987    30 C    0.985
                            75 C    0.984
    29   6 C    3.995 --    28 C    1.000    54 H    0.984    52 H    0.984
                            53 H    0.984
    30   6 C    3.993 --    57 H    0.987    28 C    0.985    56 H    0.984
                            55 H    0.984
    31   6 C    3.990 --    33 C    1.000     6 C    0.987    32 C    0.985
                            34 C    0.985
    32   6 C    3.993 --    73 H    0.987    31 C    0.985    72 H    0.984
                            74 H    0.984
    33   6 C    3.995 --    31 C    1.000    69 H    0.984    70 H    0.984
                            71 H    0.984
    34   6 C    3.993 --    68 H    0.987    31 C    0.985    66 H    0.984
                            67 H    0.984
    35   6 C    3.990 --    36 C    1.000    16 C    0.986    38 C    0.985
                            37 C    0.984
    36   6 C    3.995 --    35 C    1.000    42 H    0.984    44 H    0.984
                            43 H    0.984
    37   6 C    3.992 --    39 H    0.987    35 C    0.984    41 H    0.984
                            40 H    0.983
    38   6 C    3.992 --    47 H    0.987    35 C    0.985    45 H    0.984
                            46 H    0.983
    39   1 H    0.999 --    37 C    0.987
    40   1 H    0.998 --    37 C    0.983
    41   1 H    0.997 --    37 C    0.984
    42   1 H    0.998 --    36 C    0.984
    43   1 H    0.998 --    36 C    0.984
    44   1 H    0.998 --    36 C    0.984
    45   1 H    0.997 --    38 C    0.984
    46   1 H    0.998 --    38 C    0.983
    47   1 H    0.999 --    38 C    0.987
    48   1 H    0.995 --    15 C    0.958
    49   1 H    0.994 --    17 C    0.958
    50   1 H    0.994 --    21 C    0.957
    51   1 H    0.998 --    19 C    0.957
    52   1 H    0.998 --    29 C    0.984
    53   1 H    0.998 --    29 C    0.984
    54   1 H    0.998 --    29 C    0.984
    55   1 H    0.999 --    30 C    0.984
    56   1 H    0.997 --    30 C    0.984
    57   1 H    0.999 --    30 C    0.987
    58   1 H    0.996 --    26 C    0.979
    59   1 H    0.997 --    26 C    0.975
    60   1 H    0.998 --    26 C    0.975
    61   1 H    0.996 --    27 C    0.979
    62   1 H    0.997 --    27 C    0.975
    63   1 H    0.998 --    27 C    0.974
    64   1 H    0.998 --     1 C    0.957
    65   1 H    0.994 --     5 C    0.957
    66   1 H    0.997 --    34 C    0.984
    67   1 H    0.999 --    34 C    0.984
    68   1 H    0.999 --    34 C    0.987
    69   1 H    0.998 --    33 C    0.984
    70   1 H    0.998 --    33 C    0.984
    71   1 H    0.998 --    33 C    0.984
    72   1 H    0.997 --    32 C    0.984
    73   1 H    0.999 --    32 C    0.987
    74   1 H    0.999 --    32 C    0.984
    75   6 C    3.993 --    78 H    0.987    28 C    0.984    76 H    0.984
                            77 H    0.984
    76   1 H    0.997 --    75 C    0.984
    77   1 H    0.999 --    75 C    0.984
    78   1 H    0.999 --    75 C    0.987
 ---------------------------------------------------------------------------

Topologies differ in bond orders
Writing corrected topology to xtbtopo.mol

molecular dipole:
                 x           y           z       tot (Debye)
 q only:       -1.994       1.075       0.325
   full:       -2.465       1.323       0.401       7.184
molecular quadrupole (traceless):
                xx          xy          yy          xz          yz          zz
 q only:       17.776      -9.005     -10.001      -7.692     -10.464      -7.774
  q+dip:       22.519     -10.321     -10.810      -9.588     -12.277     -11.709
   full:       19.195     -11.061     -14.561      -9.234     -14.681      -4.633

           -------------------------------------------------
          |                Geometry Summary                 |
           -------------------------------------------------

      molecular mass/u    :      523.6830654
   center of mass at/Å    :       -0.3981757      -1.3545287      -0.3467936
  moments of inertia/u·Å² :        0.5559974E+04   0.5698121E+04   0.1040475E+05
rotational constants/cm⁻¹ :        0.3031962E-02   0.2958455E-02   0.1620186E-02

 * 75 selected distances

     #   Z          #   Z                                           value/Å
     1   6 C        2   6 C                                       1.3823544
     2   6 C        3   6 C                                       1.4211392
     3   6 C        4   6 C                                       1.4092478
     4   6 C        5   6 C                                       1.3914389
     1   6 C        6   6 C                                       1.3976793
     5   6 C        6   6 C                                       1.3835947
     3   6 C        7   6 C                                       1.4284594
     7   6 C        8   6 C                                       1.4221176
     8   6 C        9   6 C                                       1.4086126
     7   6 C       11   6 C                                       1.4290222
    11   6 C       12   6 C                                       1.4095218
     8   6 C       14   6 C                                       1.4098975
    14   6 C       15   6 C                                       1.3866774
    15   6 C       16   6 C                                       1.3932165
     9   6 C       17   6 C                                       1.3902333
    16   6 C       17   6 C                                       1.3895998
    11   6 C       18   6 C                                       1.4213613
    18   6 C       19   6 C                                       1.3824727
    19   6 C       20   6 C                                       1.3974256
    12   6 C       21   6 C                                       1.3914373
    20   6 C       21   6 C                                       1.3834015
    18   6 C       22   8 O                                       1.3583965
     2   6 C       23   8 O                                       1.3582259
    10   6 C       24   8 O                                       1.2242051
    13   6 C       25   8 O                                       1.2240479
    22   8 O       26   6 C                                       1.4040252
    23   8 O       27   6 C                                       1.4040953
    28   6 C       29   6 C                                       1.5304572
    28   6 C       30   6 C                                       1.5356425
    31   6 C       32   6 C                                       1.5358351 (max)
    31   6 C       33   6 C                                       1.5305194
    31   6 C       34   6 C                                       1.5354752
    35   6 C       36   6 C                                       1.5305458
    35   6 C       37   6 C                                       1.5352984
    35   6 C       38   6 C                                       1.5354977
    37   6 C       39   1 H                                       1.0880857
    37   6 C       40   1 H                                       1.0863187
    37   6 C       41   1 H                                       1.0878899
    36   6 C       42   1 H                                       1.0881114
    36   6 C       43   1 H                                       1.0873300
    36   6 C       44   1 H                                       1.0873528
    38   6 C       45   1 H                                       1.0878552
    38   6 C       46   1 H                                       1.0863103
    38   6 C       47   1 H                                       1.0881053
    15   6 C       48   1 H                                       1.0800008
    17   6 C       49   1 H                                       1.0785340
    21   6 C       50   1 H                                       1.0774972
    19   6 C       51   1 H                                       1.0778843
    29   6 C       52   1 H                                       1.0881726
    29   6 C       53   1 H                                       1.0869542
    29   6 C       54   1 H                                       1.0870553
    30   6 C       55   1 H                                       1.0867482
    30   6 C       56   1 H                                       1.0878185
    30   6 C       57   1 H                                       1.0878836
    26   6 C       58   1 H                                       1.0894625
    26   6 C       59   1 H                                       1.0950796
    26   6 C       60   1 H                                       1.0954957
Note: The following floating-point exceptions are signalling: IEEE_UNDERFLOW_FLAG
normal termination of xtb
    27   6 C       61   1 H                                       1.0894296
    27   6 C       62   1 H                                       1.0950934
    27   6 C       63   1 H                                       1.0954972
     1   6 C       64   1 H                                       1.0779461
     5   6 C       65   1 H                                       1.0774886 (min)
    34   6 C       66   1 H                                       1.0878088
    34   6 C       67   1 H                                       1.0867800
    34   6 C       68   1 H                                       1.0877857
    33   6 C       69   1 H                                       1.0870560
    33   6 C       70   1 H                                       1.0881442
    33   6 C       71   1 H                                       1.0869009
    32   6 C       72   1 H                                       1.0878133
    32   6 C       73   1 H                                       1.0879211
    32   6 C       74   1 H                                       1.0867533
    28   6 C       75   6 C                                       1.5356953
    75   6 C       76   1 H                                       1.0877791
    75   6 C       77   1 H                                       1.0867017
    75   6 C       78   1 H                                       1.0877758

 * 3 distinct bonds (by element types)

   Z      Z             #   av. dist./Å        max./Å        min./Å
   1 H    6 C          39     1.0869390     1.0954972     1.0774886
   6 C    6 C          30     1.4411292     1.5358351     1.3823544
   6 C    8 O           6     1.3288327     1.4040953     1.2240479


optimized geometry written to: xtbopt.mol


           -------------------------------------------------
          | TOTAL ENERGY             -111.157373083705 Eh   |
          | GRADIENT NORM               0.000194328432 Eh/α |
          | HOMO-LUMO GAP               1.453951520824 eV   |
           -------------------------------------------------
########################################################################
[WARNING] Runtime exception occurred
-2- restart_readRestart: Dimension missmatch in restart file.
-1- restart_readRestart: Number of electron missmatch in restart file.
########################################################################

------------------------------------------------------------------------
 * finished run on 2024/11/11 at 15:22:04.014     
------------------------------------------------------------------------
 total:
 * wall-time:     0 d,  0 h,  0 min, 16.815 sec
 *  cpu-time:     0 d,  0 h,  0 min, 52.202 sec
 * ratio c/w:     3.105 speedup
 SCF:
 * wall-time:     0 d,  0 h,  0 min,  0.296 sec
 *  cpu-time:     0 d,  0 h,  0 min,  0.993 sec
 * ratio c/w:     3.353 speedup
 ANC optimizer:
 * wall-time:     0 d,  0 h,  0 min, 16.497 sec
 *  cpu-time:     0 d,  0 h,  0 min, 51.189 sec
 * ratio c/w:     3.103 speedup

