156
 energy: -222.316257146159 gnorm: 0.089374386512 xtb: 6.7.1 (edcfbbe)
C           -1.29580000000000        1.66550000000000        0.04250000000000
C           -0.95730000000000        0.32550000000000       -0.17820000000000
C            0.29830000000000       -0.14890000000000        0.33720000000000
C            1.25560000000000        0.82310000000000        0.71980000000000
C            0.87620000000000        2.14320000000000        0.88480000000000
C           -0.41380000000000        2.57280000000000        0.60080000000000
C            0.66340000000000       -1.54410000000000        0.34850000000000
C            2.05690000000000       -1.86970000000000        0.23710000000000
C            3.05050000000000       -0.89010000000000        0.45200000000000
C            2.67170000000000        0.47070000000000        0.82590000000000
C           -0.28780000000000       -2.62150000000000        0.43770000000000
C            0.08920000000000       -3.92050000000000        0.02450000000000
C            1.47830000000000       -4.22340000000000       -0.31890000000000
C            2.46910000000000       -3.16730000000000       -0.13130000000000
C            3.81370000000000       -3.43850000000000       -0.32070000000000
C            4.79340000000000       -2.47570000000000       -0.11840000000000
C            4.38540000000000       -1.21050000000000        0.27860000000000
C           -1.59540000000000       -2.45750000000000        1.00570000000000
C           -2.50820000000000       -3.51250000000000        0.89880000000000
C           -2.16220000000000       -4.74600000000000        0.38060000000000
C           -0.84590000000000       -4.93960000000000       -0.01610000000000
O           -1.88070000000000       -1.29410000000000        1.69640000000000
O           -1.73020000000000       -0.53630000000000       -0.93710000000000
O            3.51170000000000        1.29950000000000        1.14230000000000
O            1.81080000000000       -5.33900000000000       -0.69210000000000
C           -3.23700000000000       -1.10170000000000        2.01700000000000
C           -2.88800000000000        0.03300000000000       -1.49980000000000
C           -3.22340000000000       -5.85140000000000        0.27800000000000
C           -2.61700000000000       -7.17340000000000       -0.22880000000000
C           -4.31890000000000       -5.40210000000000       -0.70450000000000
C           -0.85900000000000        4.02350000000000        0.82050000000000
C           -2.10280000000000        4.03190000000000        1.72710000000000
C            0.24920000000000        4.85440000000000        1.49380000000000
C           -1.19830000000000        4.66730000000000       -0.53510000000000
C            6.28260000000000       -2.75570000000000       -0.36280000000000
C            7.10240000000000       -2.35110000000000        0.87690000000000
C            6.74780000000000       -1.93520000000000       -1.57840000000000
C            6.53960000000000       -4.24820000000000       -0.64610000000000
H            6.61830000000000       -0.86800000000000       -1.40380000000000
H            6.17170000000000       -2.20030000000000       -2.46430000000000
H            7.80060000000000       -2.11570000000000       -1.79260000000000
H            8.16140000000000       -2.55710000000000        0.72560000000000
H            6.77620000000000       -2.90530000000000        1.75550000000000
H            7.00060000000000       -1.28920000000000        1.09390000000000
H            7.60370000000000       -4.43790000000000       -0.78290000000000
H            6.03060000000000       -4.56960000000000       -1.55390000000000
H            6.19580000000000       -4.86840000000000        0.18100000000000
H            4.07910000000000       -4.43170000000000       -0.63090000000000
H            5.10980000000000       -0.43250000000000        0.43590000000000
H           -0.51280000000000       -5.90060000000000       -0.36160000000000
H           -3.50510000000000       -3.37570000000000        1.26950000000000
H           -3.37880000000000       -7.94990000000000       -0.28960000000000
H           -1.83690000000000       -7.52760000000000        0.44410000000000
H           -2.18910000000000       -7.05340000000000       -1.22340000000000
H           -4.80460000000000       -4.48960000000000       -0.36130000000000
H           -5.08490000000000       -6.16920000000000       -0.81320000000000
H           -3.89490000000000       -5.20440000000000       -1.68840000000000
H           -3.34340000000000       -0.09490000000000        2.41990000000000
H           -3.55080000000000       -1.82020000000000        2.77340000000000
H           -3.85120000000000       -1.19370000000000        1.12110000000000
H           -3.39430000000000       -0.72960000000000       -2.09240000000000
H           -2.61460000000000        0.86350000000000       -2.15180000000000
H           -3.56150000000000        0.37040000000000       -0.71160000000000
H           -2.26670000000000        2.01260000000000       -0.25310000000000
H            1.62860000000000        2.83520000000000        1.21520000000000
H           -1.49890000000000        5.70680000000000       -0.40810000000000
H           -2.01400000000000        4.14200000000000       -1.02970000000000
H           -0.33450000000000        4.64370000000000       -1.19850000000000
H            0.55070000000000        4.40500000000000        2.43870000000000
H           -0.09360000000000        5.86840000000000        1.69670000000000
H            1.12780000000000        4.92790000000000        0.85400000000000
H           -2.42150000000000        5.05010000000000        1.94760000000000
H           -1.88910000000000        3.52790000000000        2.66800000000000
H           -2.93920000000000        3.51620000000000        1.25800000000000
C           -3.84430000000000       -6.10480000000000        1.66360000000000
H           -4.56300000000000       -6.92270000000000        1.62870000000000
H           -4.36240000000000       -5.22220000000000        2.03420000000000
H           -3.07030000000000       -6.36120000000000        2.38570000000000
C           -1.79250000000000        2.45990000000000        5.08190000000000
C           -2.09010000000000        1.13000000000000        4.75480000000000
C           -1.02360000000000        0.16560000000000        4.79730000000000
C            0.30080000000000        0.66340000000000        4.84400000000000
C            0.53640000000000        2.00130000000000        5.10570000000000
C           -0.49990000000000        2.90870000000000        5.28660000000000
C           -1.23780000000000       -1.26080000000000        4.76110000000000
C           -0.15750000000000       -2.10050000000000        4.32230000000000
C            1.16220000000000       -1.60630000000000        4.25540000000000
C            1.44260000000000       -0.22800000000000        4.64630000000000
C           -2.45930000000000       -1.90220000000000        5.18150000000000
C           -2.74430000000000       -3.21780000000000        4.73770000000000
C           -1.71170000000000       -4.03130000000000        4.09770000000000
C           -0.37200000000000       -3.45920000000000        4.00460000000000
C            0.69590000000000       -4.26860000000000        3.65840000000000
C            1.99950000000000       -3.79430000000000        3.62370000000000
C            2.20460000000000       -2.45210000000000        3.91710000000000
C           -3.36640000000000       -1.31760000000000        6.13200000000000
C           -4.62470000000000       -1.91080000000000        6.29580000000000
C           -4.96560000000000       -3.11030000000000        5.69690000000000
C           -3.98730000000000       -3.77780000000000        4.97240000000000
O           -2.92650000000000       -0.25420000000000        6.90100000000000
O           -3.34900000000000        0.72190000000000        4.34960000000000
O            2.58870000000000        0.16430000000000        4.80210000000000
O           -1.94570000000000       -5.16580000000000        3.70970000000000
C           -3.84930000000000        0.22610000000000        7.84870000000000
C           -4.34070000000000        1.72180000000000        4.35960000000000
C           -6.36780000000000       -3.69820000000000        5.90620000000000
C           -6.57850000000000       -4.97420000000000        5.06790000000000
C           -7.42350000000000       -2.66180000000000        5.47810000000000
C           -0.24490000000000        4.33050000000000        5.81260000000000
C           -0.59990000000000        4.35980000000000        7.30920000000000
C            1.23250000000000        4.73660000000000        5.64340000000000
C           -1.11380000000000        5.35990000000000        5.06560000000000
C            3.17380000000000       -4.76930000000000        3.45380000000000
C            4.46340000000000       -4.02060000000000        3.07050000000000
C            2.87160000000000       -5.81020000000000        2.35880000000000
C            3.39880000000000       -5.49530000000000        4.79090000000000
H            2.64220000000000       -5.32650000000000        1.41320000000000
H            2.02650000000000       -6.44230000000000        2.62460000000000
H            3.72840000000000       -6.46310000000000        2.19720000000000
H            5.26430000000000       -4.72100000000000        2.83630000000000
H            4.81220000000000       -3.38670000000000        3.88450000000000
H            4.29700000000000       -3.39250000000000        2.19820000000000
H            4.23310000000000       -6.19240000000000        4.72240000000000
H            2.51150000000000       -6.05630000000000        5.08190000000000
H            3.61710000000000       -4.78170000000000        5.58470000000000
H            0.48870000000000       -5.30360000000000        3.45890000000000
H            3.19490000000000       -2.03560000000000        3.92110000000000
H           -4.16620000000000       -4.76550000000000        4.59080000000000
H           -5.34490000000000       -1.43630000000000        6.93350000000000
H           -7.59330000000000       -5.35240000000000        5.18780000000000
H           -5.89650000000000       -5.76570000000000        5.37610000000000
H           -6.42170000000000       -4.77570000000000        4.00810000000000
H           -7.36130000000000       -1.75730000000000        6.08110000000000
H           -8.43040000000000       -3.06380000000000        5.58610000000000
H           -7.28290000000000       -2.37900000000000        4.43540000000000
H           -3.38810000000000        1.05220000000000        8.39090000000000
H           -4.10120000000000       -0.56440000000000        8.55670000000000
H           -4.74490000000000        0.59190000000000        7.34580000000000
H           -5.28390000000000        1.27780000000000        4.03960000000000
H           -4.07470000000000        2.52110000000000        3.66720000000000
H           -4.46360000000000        2.11370000000000        5.36950000000000
H           -2.59930000000000        3.15780000000000        5.18900000000000
H            1.56160000000000        2.31150000000000        5.19060000000000
H           -0.89870000000000        6.37030000000000        5.41220000000000
H           -2.17610000000000        5.18260000000000        5.22340000000000
H           -0.91940000000000        5.32860000000000        3.99630000000000
H            1.88640000000000        4.11230000000000        6.25080000000000
H            1.38810000000000        5.76870000000000        5.95560000000000
H            1.54580000000000        4.65210000000000        4.60390000000000
H           -0.43050000000000        5.34890000000000        7.73330000000000
H            0.00750000000000        3.64460000000000        7.86270000000000
H           -1.64600000000000        4.09900000000000        7.46550000000000
C           -6.55400000000000       -4.04850000000000        7.39250000000000
H           -7.53690000000000       -4.48330000000000        7.57070000000000
H           -6.46040000000000       -3.16400000000000        8.02090000000000
H           -5.80240000000000       -4.76830000000000        7.71460000000000
156
 energy: -222.329263193443 gnorm: 0.037019361999 xtb: 6.7.1 (edcfbbe)
C           -1.28893036217704        1.66506653960858        0.04059738277931
C           -0.95157090800628        0.33238125923503       -0.16487210886454
C            0.29591737588651       -0.15286283785423        0.32572215464061
C            1.24790905962351        0.81722633253063        0.71632570478689
C            0.88011494800101        2.14495852552802        0.88118975936384
C           -0.40663254042667        2.57857271552291        0.60508684235965
C            0.65482911130147       -1.54209200553818        0.34965151261581
C            2.04212988061320       -1.86455219042886        0.23784075561845
C            3.04079968090743       -0.88842528857882        0.44434376572069
C            2.67004008404832        0.47222711188875        0.84562828293131
C           -0.28782693101836       -2.61704752543261        0.44972125948641
C            0.08520674311042       -3.91415158662388        0.02950628788598
C            1.46982678153706       -4.21980134670694       -0.34689050001847
C            2.45934789992823       -3.15970132808747       -0.13152349712922
C            3.80850024911319       -3.43500011533113       -0.32571242715008
C            4.79525455660262       -2.47454181944949       -0.12903504750526
C            4.38093874630492       -1.20688953096635        0.26873978629963
C           -1.59329176856735       -2.47278925506488        1.00070369962532
C           -2.50231706419787       -3.51995805890359        0.90244900513360
C           -2.15999023887769       -4.75929641161764        0.37785205469181
C           -0.84264644652544       -4.94581877722067       -0.01324704265331
O           -1.88689672286961       -1.31319581274476        1.66558352981215
O           -1.72676895649891       -0.52186228243002       -0.90686958014830
O            3.51182081300404        1.30707485322801        1.15342198661083
O            1.79975293517154       -5.33543898270228       -0.74030586829277
C           -3.23919532709781       -1.10860994907415        1.99812548963292
C           -2.88255579573170        0.02826721162336       -1.49442762321654
C           -3.21885994598493       -5.85566979178958        0.27487285561095
C           -2.61824883676990       -7.17277905681880       -0.22970662789519
C           -4.30997528357802       -5.39938158553452       -0.70588507348666
C           -0.85503638571342        4.02150818197675        0.82126878935716
C           -2.09924446454729        4.02615807337258        1.72262791088408
C            0.24520469257781        4.85395453668149        1.49014966648486
C           -1.19652199288426        4.66120310000212       -0.53331548270261
C            6.27897117512068       -2.75873972211615       -0.36055428912686
C            7.09583933640002       -2.35021949285438        0.87548986728814
C            6.74078804404995       -1.93558101901101       -1.57280752098337
C            6.53924557946384       -4.24419003966825       -0.64400952082144
H            6.61261233119976       -0.86975886306802       -1.39612622350084
H            6.16689419208105       -2.20450347393304       -2.45810148127656
H            7.79348967622660       -2.12191655179626       -1.77825366292824
H            8.15190759743596       -2.55965553038972        0.71353515412529
H            6.76933737900352       -2.90639583470657        1.75122796141671
H            6.99563520573304       -1.28943044686558        1.09039168057700
H            7.60580727408335       -4.41735177548397       -0.77555764076216
H            6.03724036119040       -4.56447028274657       -1.55462808136846
H            6.19724516138402       -4.86240406842755        0.18362039185081
H            4.06472338402999       -4.43496266714981       -0.63361932993273
H            5.10264786166171       -0.42483496227057        0.44496309563323
H           -0.49561397437019       -5.90302094823969       -0.36222644859433
H           -3.50231783059100       -3.38096563807687        1.27386735135953
H           -3.39074837062416       -7.93767371206964       -0.28404539419535
H           -1.84382528922698       -7.52561721566438        0.44784216947329
H           -2.19314216972785       -7.05410756706300       -1.22435373859236
H           -4.79640340477599       -4.48915758369464       -0.36025679699490
H           -5.07124616608105       -6.17103745652212       -0.80729785366774
H           -3.88471778785954       -5.20567228679845       -1.68906024441937
H           -3.31473826552101       -0.10069679675072        2.39855866964788
H           -3.56730068962248       -1.81052561532450        2.76822797952957
H           -3.87356306166751       -1.19832284786234        1.11258615861950
H           -3.35886676954036       -0.75928372994698       -2.07925457596074
H           -2.62390434189962        0.85747286211011       -2.15974765479856
H           -3.58269206745961        0.37284947466287       -0.72778185470873
H           -2.26129004954982        2.01389084635329       -0.26211177271579
H            1.64307268572078        2.82749662348752        1.21294655975042
H           -1.49536488115732        5.69930834329557       -0.39785570565004
H           -2.01268200337621        4.13799081231177       -1.02703998718011
H           -0.33107885728137        4.63785043149344       -1.19268567654542
H            0.54476399029703        4.40356006046830        2.43415964820533
H           -0.11177057848294        5.86398158721112        1.68589579139413
H            1.11937805705598        4.93082252876916        0.84735157323864
H           -2.41195392577104        5.04727382733090        1.93667982423601
H           -1.87856759056117        3.52286222523099        2.66238965514784
H           -2.93475383973267        3.51393664180933        1.24920934965145
C           -3.84627734463651       -6.10715838950454        1.65311572124346
H           -4.56226291735929       -6.92574684165586        1.60507096605687
H           -4.36620870799509       -5.22540244692211        2.02072207316616
H           -3.07377625310494       -6.36125417095211        2.37320738760925
C           -1.78534772580092        2.45986940761184        5.09038158941627
C           -2.07592331838544        1.13702163541667        4.77584947096177
C           -1.03086316113907        0.16632384205751        4.79397399444557
C            0.29174605910264        0.66442405267466        4.84318083880959
C            0.54131540239718        2.00311341709180        5.10771261656264
C           -0.48877772571128        2.91006771004221        5.30750425730589
C           -1.24293894928708       -1.25341534233284        4.76382360217091
C           -0.16778703770554       -2.08816877372563        4.32449352012933
C            1.15295357068261       -1.60043229074115        4.24777317446292
C            1.44686582714165       -0.22186646919023        4.64719193820145
C           -2.45275111577640       -1.89579633605582        5.19229021782673
C           -2.74132341817895       -3.20762324092108        4.74405681840614
C           -1.71342124741581       -4.02666889037261        4.09093347586041
C           -0.37325596604063       -3.44870120663551        4.01288578001118
C            0.69614310865901       -4.26683996578915        3.67185557747288
C            2.00543314940710       -3.79989294622438        3.64312882210050
C            2.20202600447974       -2.45021187249568        3.91933813916000
C           -3.37307158197212       -1.32509575396359        6.12115685885938
C           -4.62013177957635       -1.91630389448368        6.29646965915183
C           -4.96746505412077       -3.11977928911644        5.69305953837838
C           -3.98369114528480       -3.78290984742682        4.97695216679391
O           -2.94786769042635       -0.26013078313496        6.87272214401491
O           -3.33273755500883        0.73635729847267        4.39591923163636
O            2.59577898275407        0.17320075819796        4.80056092268409
O           -1.93981254328961       -5.17678299152296        3.73086845523807
C           -3.84680756166496        0.22737575158373        7.84080893202301
C           -4.33884118702480        1.72240409829340        4.37140140723179
C           -6.36539880817608       -3.69916464020245        5.90136896484620
C           -6.57998008634418       -4.97094607556536        5.07049725194788
C           -7.41717934090059       -2.66139528595330        5.47790335239717
C           -0.23962692285117        4.33245367118633        5.80897714100552
C           -0.59904048393544        4.35428442259355        7.30277310010893
C            1.23075992935490        4.73811820769496        5.64341262571835
C           -1.11037099654185        5.35898870639881        5.06828098909133
C            3.17398140142379       -4.76659931213258        3.45468360986494
C            4.46065244699489       -4.02277692062528        3.07631325849166
C            2.87458839127759       -5.81284590519299        2.37296469675067
C            3.39051798818096       -5.48858739830845        4.79329761343368
H            2.65115124020518       -5.33248590132115        1.42984949579122
H            2.03201046709113       -6.44560736800257        2.63840720683152
H            3.73667790138578       -6.45899835765321        2.22127952448076
H            5.24843330599278       -4.73679826092754        2.84251455803468
H            4.81423201994043       -3.39721140837419        3.89333482164198
H            4.29421264150562       -3.39737827767136        2.20354535309002
H            4.22519334481998       -6.18273648221963        4.71261423549715
H            2.50397284184505       -6.05148577054440        5.07950736798944
H            3.61248836603810       -4.77476170592579        5.58482547363790
H            0.47667275385543       -5.30037130231107        3.45697062102369
H            3.19120853118575       -2.02336395464470        3.92122624422239
H           -4.15028407776156       -4.77207669455341        4.58700409655405
H           -5.34184799702940       -1.44117998266595        6.93800791515361
H           -7.59765166902463       -5.33442287120401        5.20020146457846
H           -5.90285791038074       -5.76280230646524        5.38259208068167
H           -6.42533249274397       -4.77243997151041        4.01182634813736
H           -7.35735477987332       -1.75902490928754        6.08218756517548
H           -8.41924832661050       -3.07142944681947        5.58960759243146
H           -7.27634602776030       -2.38256059147668        4.43509284227777
H           -3.35189431783837        1.04680201633950        8.36298754134239
H           -4.10069913722092       -0.55178466174428        8.56544630074765
H           -4.75785069089845        0.60535752287763        7.36746949770619
H           -5.26128303313529        1.24055733167449        4.04315431502832
H           -4.08789415159156        2.52263614781831        3.66883704775483
H           -4.49124442213746        2.13819024648046        5.37059258785809
H           -2.59460452733064        3.16221574288684        5.18597537898406
H            1.57277787049454        2.30345526470611        5.17581980380981
H           -0.88673424169929        6.36360698142175        5.42243410309281
H           -2.17178113687314        5.18547889869726        5.22994458092438
H           -0.91389856816112        5.32569275812488        4.00109938658772
H            1.88170900232248        4.11864219277146        6.25564873249626
H            1.36987908862759        5.77148405834027        5.95515071932578
H            1.54293762984319        4.65249582851217        4.60488371656960
H           -0.42715118600649        5.34572384045029        7.71789105103913
H            0.01091305988059        3.64076224806930        7.85356922671679
H           -1.64547696775867        4.09586152996120        7.45685359488986
C           -6.54995951577035       -4.04446714714708        7.38690234552655
H           -7.53389218098473       -4.47811348380364        7.55630135579648
H           -6.45867929365881       -3.16062561500975        8.01487016834398
H           -5.79936901250150       -4.76537487435048        7.70540680749099
156
 energy: -222.333739387697 gnorm: 0.013278902895 xtb: 6.7.1 (edcfbbe)
C           -1.28104145948749        1.66923924186079        0.03797580024338
C           -0.94757148564553        0.34168627339348       -0.15496658487837
C            0.29192553427955       -0.15526783760526        0.32548337787301
C            1.24170447547458        0.81187812891918        0.71800468035575
C            0.88497089466314        2.14603972110907        0.88178591769497
C           -0.39689589900982        2.58609261727844        0.60712387195492
C            0.64552498012431       -1.54134827775406        0.35218599868884
C            2.02833447596271       -1.86077341878253        0.23697682884789
C            3.03151447829388       -0.88953932953284        0.44280924830778
C            2.66929806408868        0.47511994369641        0.84949128692997
C           -0.29036807881590       -2.61611865307233        0.45537151773177
C            0.08307192475764       -3.91120919733442        0.03212566518981
C            1.46473657576278       -4.21785444391667       -0.36421127520369
C            2.45002617963664       -3.15224222711290       -0.13668817096623
C            3.80057568424203       -3.43008691711454       -0.33284216497338
C            4.79202637010629       -2.47456322626803       -0.13249364677715
C            4.37304802301463       -1.20756936635323        0.27013746280248
C           -1.59632614074710       -2.48885425088130        0.99679136250798
C           -2.49756164384446       -3.53403998901346        0.90592296104102
C           -2.15455047780167       -4.77688308898463        0.37729428812700
C           -0.83701255151818       -4.95369066892513       -0.01214821249258
O           -1.89850996765274       -1.33138099524779        1.63994067881789
O           -1.72718503104019       -0.51014383115562       -0.87716282769645
O            3.50772730780563        1.30612731230544        1.17393694647143
O            1.78891555437582       -5.32031691389251       -0.80324090117935
C           -3.24363587211005       -1.10593866333613        1.98559786043956
C           -2.87924325936507        0.01404039908881       -1.49381141212926
C           -3.21327159729028       -5.86144638240820        0.26927537626987
C           -2.62233805234097       -7.17861371696693       -0.23296856624114
C           -4.29905317672807       -5.39814076848843       -0.71320717514761
C           -0.85008776646227        4.02039650361797        0.81945723453402
C           -2.09447141928029        4.02021520929924        1.71851621888131
C            0.24104826377971        4.85826810218131        1.48644326823589
C           -1.19282752021439        4.65739852568504       -0.53472507135800
C            6.26979286123436       -2.75772507335854       -0.35937200515484
C            7.08607384234138       -2.34938459282178        0.87466337680990
C            6.73359522755006       -1.93418985615980       -1.56957095029507
C            6.53828152023271       -4.23800124465221       -0.64162870762786
H            6.60431179811360       -0.87011249634857       -1.39044445589574
H            6.16146564727831       -2.20535222373891       -2.45446970413909
H            7.78667406011201       -2.12338389330539       -1.76880345127157
H            8.14013080874686       -2.56059623580894        0.70449578942997
H            6.76118015810284       -2.90695268385185        1.74917155337523
H            6.98700944712946       -1.28959185573096        1.08849701608237
H            7.60742692394489       -4.39772165815154       -0.76715212634443
H            6.04431918863727       -4.56048217112252       -1.55470393029450
H            6.19812250321384       -4.85758910258055        0.18450014166125
H            4.04581398053914       -4.43476509539780       -0.64087131070821
H            5.08821256354723       -0.41838997087647        0.45279050254327
H           -0.47349477520949       -5.90406891132331       -0.36690251919539
H           -3.49850881647636       -3.39726357960675        1.27921396784542
H           -3.40317331558645       -7.93456892210604       -0.28415052065123
H           -1.85253207372308       -7.53264835818623        0.44733246011764
H           -2.19687358243037       -7.06296851135987       -1.22661981418251
H           -4.78272573375755       -4.48821881314612       -0.36559329728942
H           -5.05984169156007       -6.17003566194031       -0.81167489787162
H           -3.87134005733696       -5.20634388045814       -1.69478167697148
H           -3.28453239714049       -0.09342119095029        2.37941514686209
H           -3.58468336184655       -1.79403545177889        2.76580293117174
H           -3.89569037550685       -1.19380370416000        1.10996748592979
H           -3.31966728074376       -0.80293972130782       -2.06785512836649
H           -2.63053647950509        0.83736304588074       -2.17354460259658
H           -3.60746840759689        0.36711920882613       -0.75270754353978
H           -2.25214311463418        2.02041907051902       -0.27144601297113
H            1.66054258082048        2.81592781656577        1.21382985910099
H           -1.49087501646451        5.69442028129809       -0.39345626022231
H           -2.00915526534666        4.13486519790932       -1.02675637566080
H           -0.32665803220650        4.63341940681532       -1.19172727588150
H            0.54190081281445        4.40885758994812        2.42948774984649