116
 energy: -22.901508507702 gnorm: 0.380743967041 xtb: 6.6.1 (8d0f1dd)
C           -2.92005444134073        1.11286506118804       -0.36502247675473
C           -2.45582280240534       -0.11562195701928        0.13415027314136
C           -1.53783294206886       -0.13155962250360        1.16307320211219
C           -0.83238587300190        1.10863057694024        1.58663896815993
C           -1.35444511352774        2.30214929319261        1.14367046892096
C           -2.41268556539835        2.24633392033283        0.27019278214591
C           -1.10718772532706       -1.31932533619955        1.85155740081996
C            0.30063510052181       -1.33999938781286        2.32580535938522
C            0.96176336280779       -0.06577837454936        2.49166649533871
N            0.35854766115006        1.15950351778861        2.27219241168502
C           -1.82128153886536       -2.47111569974917        2.06818297201852
C           -1.04159842182890       -3.64402084868781        2.28944715890953
N            0.28336128450461       -3.80014813867561        2.38237011911867
C            0.90423213020949       -2.59348221842384        2.49870354586311
C            2.21423561843897       -2.51350242536905        3.01459368077361
C            2.84738050774979       -1.26641529314719        3.16501843676312
C            2.24316135798469       -0.07120631996719        2.99153864623395
C           -3.26121068001090       -2.62545739882647        1.83078964821490
C           -3.77361675818849       -3.85782255765072        1.80766064723593
C           -2.99646471097182       -4.92715455749071        2.09206896395851
C           -1.69068095656718       -4.83382703796224        2.31192870371223
O           -4.14711384983586       -1.51342577731209        1.68018755557790
O           -2.92694175448271       -1.28159981534581       -0.39418347034747
C           -3.06852082257378        3.47525980521239       -0.16773651341954
C           -3.68951900043711       -6.23501356771995        1.87435990257393
H           -1.04600906047714        3.23781018733282        1.66539880335818
H           -3.63128409394686        1.29968881174814       -1.13364749351523
H            2.71598795384838        0.77034703614208        3.30026136508443
H            2.72998146500717       -3.42486984391654        3.29331077035556
H           -1.14276936054837       -5.72907112856505        2.40083306219202
H           -4.77913581881856       -3.89369432084611        1.54427093420953
O           -4.28234158894986        3.41839941325755       -0.44419558613935
O           -2.37717604737370        4.62290994264744       -0.18435707246981
C           -3.31498452716279        5.62103013729217       -0.37445070308434
C            4.31170884081324       -1.29265439642651        3.60170389171075
O            4.86121305777917       -0.23642611689349        3.92898681592633
O            5.01020057507547       -2.49356614843400        3.51070142063133
C            6.33266196670697       -2.22195001015091        3.99120821389473
O           -4.16188545522979       -6.81328858691879        2.80737629475264
O           -3.87943749748064       -6.69549277178361        0.59003902065831
C           -4.20668868685159       -8.09752872884456        0.61691869731296
C           -5.36040242541871       -1.79645297138436        2.24597012248483
C           -4.12155917532523       -1.16724716540364       -1.23385233432689
H           -3.35138253888618       -8.60903895614595        0.94965122992043
H           -4.57790269547702       -8.28173246173328       -0.37988135178120
H           -4.97712342164147       -8.13024837799884        1.35102028151357
H            6.73753435029948       -3.18765756904824        3.96593671220679
H            6.32863920312959       -1.83337960339247        5.02483429755357
H            6.92704512593856       -1.51787577335461        3.24819575618120
H           -4.29465937447830       -2.16078833433825       -1.58894378028759
H           -3.93731557332088       -0.45039720263262       -2.09493709396315
H           -4.91512807033680       -0.85789290082487       -0.62040059551186
H           -5.05351698399992       -2.09198937877833        3.18857543291304
H           -6.01586598459968       -2.51831858977994        1.87831663672587
H           -5.91740300179593       -0.88094519616292        2.31164106063432
H           -3.02944094125873        6.59492435582083       -0.00836393149133
H           -4.09639305230221        5.43309374964533        0.34978318562176
H           -3.72448957436985        5.48785028681832       -1.38204809646063
C           -2.95860756539589        4.34223991759198        3.31625197135985
C           -2.55807924993512        3.05880010601402        3.80863568279820
C           -1.35928305323144        2.94866489684051        4.62468431749326
C           -0.44750438633971        3.96773333309228        4.70397908596880
C           -0.83704396437874        5.27186282963168        4.22606525079175
C           -2.11111015443340        5.45107623991268        3.60776110073507
C           -0.92361261427502        1.69582431037658        5.21100009776270
C            0.44168590345509        1.50480465396133        5.46031306414704
C            1.24239522015773        2.67150179301655        5.50837288393517
N            0.81806498214985        3.89985380879995        5.21239428447786
C           -1.86753875295603        0.73151127204048        5.42079090418094
C           -1.30956323419379       -0.57282724611298        5.60034544307068
N           -0.02382109640405       -0.78807289649595        5.87315992604665
C            0.86399246345492        0.24223087839605        5.94956469738129
C            2.17914700694553        0.14742012334695        6.30900341042441
C            3.02745941324838        1.26432313271969        6.23196469624149
C            2.55622435693259        2.53577692526198        5.91791403150431
C           -3.30523238944064        0.89851299594013        5.64575386103173
C           -4.00136891458648       -0.27294167594221        5.37228455432569
C           -3.47824411215074       -1.54940437842216        5.44993222845208
C           -2.13548259940245       -1.68217013627999        5.62227835079041
O           -4.04301564879867        1.98805393060342        6.16390470454445
O           -3.16921611014381        1.88634144614978        3.39350732282387
C           -2.32086134846747        6.85093740194537        2.98320809321933
C           -4.33282442560517       -2.81512451918627        5.50406393688842
H           -0.03050450982565        5.92628196562500        4.10012787684981
H           -3.83871494020152        4.50386603125653        2.61800852986498
H            3.25845026700145        3.32541359119493        6.03494030493585
H            2.52843583211453       -0.80164516501424        6.68459683541691
H           -1.64904218387542       -2.59711833420538        5.73741533042123
H           -5.09134928197564       -0.20752692379491        5.55507813700137
O           -3.07357845243362        6.99818994581631        2.09574396844589
O           -1.47439696428649        7.77177331730692        3.47338699155711
C           -1.67820531961176        9.04380765771861        2.82689143713276
C            4.37779355158132        1.17345744700536        6.71597747998147
O            4.68617594632139        0.30660532531610        7.45666620980062
O            5.25275349810262        2.17730458976893        6.27345483660284
C            6.54181021725193        2.00851449241823        6.67371524872448
O           -5.49367833895479       -2.71711899649097        5.26400989179825
O           -3.60867002288230       -3.94409881571020        5.84191270236419
C           -4.51194536187661       -5.01627720850238        6.01751668614145
C           -3.40026866230220        2.63269665296417        7.21797166443690
C           -4.37147248033919        2.10451544715537        2.69746342623217
H           -5.24725585233476       -4.92054455102255        5.22952039926081
H           -4.98067628151319       -4.89380224841484        7.00295854590891
H           -3.92191341093879       -5.92845004555375        6.07816239704186
H            7.17399231040863        2.81350535490178        6.39906388870146
H            6.77644584754475        1.04630259027952        6.25478068323152
H            6.62005260180926        2.02946935513388        7.82482331836466
H           -5.16694020531940        2.57724978370582        3.22695327103944
H           -4.87043445974028        1.12743972517027        2.58593928042042
H           -4.21156628535213        2.48485512140571        1.72253817228422
H           -3.24739406381296        1.80125913193719        7.91998187060928
H           -4.10290519510280        3.29821605597900        7.65433172265390
H           -2.41683117565525        2.93514294450187        6.91700648023387
H           -1.50956285011396        8.80334060150515        1.68175837367367
H           -1.04852282750105        9.81031505457314        3.32642336929281
H           -2.74279786983458        9.24308058691111        2.93550866730291
116
 energy: -22.795281246244 gnorm: 0.454100231424 xtb: 6.6.1 (8d0f1dd)
C           -2.88849000398175        1.25988223609053       -0.23403994401555
C           -2.67203349953929       -0.08253253494231        0.08461156502109
C           -1.56196269157107       -0.23284429612857        0.89713654331954
C           -0.63640346866331        0.92863433323847        1.08494057931814
C           -1.05492298837203        2.20939336203435        0.76647715652660
C           -2.19356130454395        2.38239506715399        0.07698970598963
C           -1.25858149717295       -1.44181333191989        1.58196742369546
C            0.09117692730068       -1.64085340697586        1.95382425816435
C            1.00273093377751       -0.57154647562600        1.84701304763850
N            0.57416173259243        0.66321871715053        1.53197824013356
C           -2.03979379559710       -2.64352128077042        1.82294815037660
C           -1.41162180932102       -3.89224592359212        2.19682245949430
N           -0.16537422997086       -3.93219970746427        2.71284512463125
C            0.61025109565317       -2.80976564636991        2.54399003435678
C            1.96717155826754       -2.91980745259141        2.88654250681356
C            2.81683868822548       -1.80958539509039        2.88779005630723
C            2.29485890115652       -0.59093237159543        2.39187573327192
C           -3.46480724554425       -2.75390639910445        1.76130737773223
C           -4.07746378670282       -3.99059199296578        1.73096287924956
C           -3.30995878587270       -5.19000198569676        1.94092510463723
C           -1.96138255273484       -5.11520755084668        2.27562156403344
O           -4.15680407855440       -1.51960553565431        1.73094368023871
O           -3.13943231083573       -1.17428804421876       -0.70745301589198
C           -2.62453004483456        3.62712457117983       -0.54997428522084
C           -4.08424734567462       -6.43779441887548        2.24592183300648
H           -0.35697014309288        3.02953791097020        1.16454504057032
H           -3.87253041449033        1.35683293482084       -0.67860965993303
H            2.79436410929338        0.26720718408627        2.35070973232201
H            2.26844549295362       -3.85639381405594        3.33380878268058
H           -1.31708175140843       -5.97448718866598        2.62868042868640
H           -5.14820500567941       -4.23019258628714        1.61488355243324
O           -3.00510393254244        3.70736333522857       -1.65620669913174
O           -2.43031749615160        4.79965299407278        0.16996218892750
C           -3.08679784635109        5.83869697898099       -0.56179255526293
C            4.14673828618792       -1.84126120643224        3.51021664091494
O            5.12458158786614       -1.34711949807292        2.95655455540274
O            4.35832827797541       -2.34305336715874        4.81187823329053
C            5.73532997926484       -2.34826609395143        5.16150006052956
O           -5.10497852887200       -6.59346895291524        1.54769554156966
O           -3.78035993612532       -7.31423504725711        3.27246559695673
C           -4.18702597241342       -8.61894873092801        3.06459950348096
C           -5.53898636978813       -1.64784192858375        1.73307357948119
C           -2.68956783072721       -0.95739471302841       -2.03789783549300
H           -5.33628112356303       -8.52725052262531        2.78075934821709
H           -4.23684043523428       -9.01775882510161        4.13441297859148
H           -3.80751458256854       -9.27576927026760        2.19488575287194
H            6.05300050347119       -3.43505288669426        5.07239959879708
H            5.70275055215596       -1.92757701380865        6.23992645142177
H            6.17838291912633       -1.80893655055015        4.46539470319942
H           -3.36814384222756       -0.23688864605591       -2.38771918797098
H           -2.89425552498180       -1.87349747359714       -2.53900357914695
H           -1.73151254487358       -0.53158159607235       -2.03742727331326
H           -6.01135037364178       -2.31747889646339        2.48105152424703
H           -5.90765712310383       -1.81595921207650        0.75177732855842
H           -5.95158479035989       -0.68478600039610        1.95397615584127
H           -3.76522698958060        6.43809812634207        0.16473087653969
H           -3.91270698530172        5.46961635306138       -1.20309308797827
H           -2.39191542358630        6.12543061944441       -1.37810020219729
C           -2.90454846100539        4.77172187629674        3.71818276008154
C           -2.47349406742211        3.44346778303166        3.82454092904184
C           -1.24041659153151        3.20623202610952        4.46084524387854
C           -0.39987907155937        4.33864951422183        4.73445003552686
C           -1.05206551104915        5.60281635290458        4.90758516046376
C           -2.34605237063338        5.79540291125018        4.48053797467339
C           -0.90078558032423        1.87898920874687        4.70281175371838
C            0.47783212558603        1.74008383996172        4.90073150381447
C            1.30556173939887        2.84763435062473        5.18359022848303
N            0.84820686446563        4.10518049017805        5.12945832764944
C           -1.65706065593619        0.73635308290292        4.98702317375477
C           -0.95670758698820       -0.54195621037248        5.10399570190564
N            0.40750703677212       -0.65141927924044        5.23479612034425
C            1.12830491359827        0.43861727576750        5.15975375351143
C            2.43241692645050        0.25775086809513        5.58446162254873
C            3.13605508528862        1.41053397520191        5.81795328108664
C            2.58483381403840        2.67284381170772        5.62546342271906
C           -3.08806831396583        0.62230138487377        5.22783656256939
C           -3.77372916243395       -0.59715407929214        5.13055730331163
C           -3.08516225084726       -1.76175132482463        5.08178065595375
C           -1.71147360956904       -1.74906692274506        5.17224980117074
O           -3.93386594714180        1.71881392858855        5.56582622362659
O           -3.08724455326528        2.48783852267948        3.06246966553741
C           -2.75619335811163        7.15565426856953        4.30759482010338
C           -3.93388126987949       -2.96330615844676        5.21830739452162
H           -0.69574903719164        6.53010523291126        5.26251756965380
H           -3.65890256487031        5.12557268591994        2.97507215729247
H            3.06861269756506        3.59618569107086        5.86598464563104
H            2.88528979111090       -0.71304253302067        5.68971009192266
H           -1.11241407245105       -2.57890296043512        5.07677722493469
H           -4.84148021131350       -0.47386457523178        4.92354152489097
O           -3.36538256876007        7.42183033718083        3.27846446003865
O           -2.34643948405074        8.01733897425613        5.27175162129084
C           -2.84907129786721        9.20875508536656        4.93826204789230
C            4.53510534672241        1.46956458617949        6.20332886172393
O            5.36068489888768        0.58015048603611        6.03807615610512
O            4.92471217854258        2.61188436753361        6.77814858829167
C            6.32812007347604        2.40865978738927        7.18183147532460
O           -5.06359450732149       -2.84969598223159        4.72027459731575
O           -3.31897696876945       -4.06950305482801        5.80114410928554
C           -4.14409285257904       -5.09801333565803        5.92439965433066
C           -3.35271524010209        2.33392919297534        6.74304735181571
C           -4.51348349012201        2.53056198203802        2.82975329775484
H           -4.91681080589146       -5.09600027005780        5.04335982041716
H           -4.76102453835652       -4.96498000371068        6.91541343552904
H           -3.64535020151190       -6.04177441063589        5.96025470167859
H            6.62657994196793        3.35038147471394        7.08683022093468
H            7.06634598550104        1.79542239884326        6.60955639602478
H            6.41873914404069        2.22072127679594        8.31653527488250
H           -4.83017515802282        2.14581162000149        1.81332498482203
H           -5.03397076330689        3.45161030760401        3.06954060471710
H           -4.71472523552441        1.80657150368452        3.47975506389731
H           -2.44142794841823        1.85882966339005        7.01980995330576
H           -3.98830626594840        2.31141169189706        7.52251271866638
H           -3.25115616680466        3.46438552174221        6.51725862136330
H           -2.19318871442485        9.50146130134937        4.07724307204156
H           -2.71015135144479        9.87187781951942        5.77732396848650
H           -3.85352325504801        9.09258194366524        4.64631367175610
116
 energy: -22.804685224767 gnorm: 0.401327477690 xtb: 6.6.1 (8d0f1dd)
C           -3.22597383750912        0.90766867153887       -0.58758282085431
C           -2.55152508781564       -0.35927034121667       -0.27798384971256
C           -1.48566167159812       -0.47137272509545        0.68702862242262
C           -0.82592165791578        0.81224544152569        0.92690604141863
C           -1.41776764529466        2.03816028125623        0.54617675982287
C           -2.57475222103368        2.06302389029957       -0.18090957986946
C           -1.06126814014888       -1.65445890904756        1.39296100618574
C            0.26985831997040       -1.73701497769392        1.87443822757273
C            0.98841771612748       -0.49944857118792        1.79001737137326
N            0.46555727615641        0.70857950289548        1.35544007040951
C           -1.91751797882049       -2.82358831576574        1.47868896739912
C           -1.27600858860710       -4.02153455196525        1.85730258468200
N           -0.03157701233659       -4.02978477556888        2.29911665340262
C            0.74387064193876       -2.93430924899802        2.34967833535817
C            1.94046945641603       -2.90920148236025        3.08755109107040
C            2.58734811878014       -1.65944542932115        3.13831427317226
C            2.22178026412644       -0.50438084835841        2.41447101607993
C           -3.34813030301155       -2.59015171373143        1.63043101434185
C           -4.09713867662088       -3.74544851477560        1.53426878962073
C           -3.45660172352689       -5.03502211135228        1.57600437888830
C           -2.14118298825967       -5.14560329313241        1.91265682619752
O           -3.90470473634912       -1.27529057422578        1.89637460964654
O           -3.02213381976696       -1.40094186990446       -1.11133680256393
C           -3.39360255518971        3.33947720753893       -0.35694723936511
C           -4.31918281926682       -6.16616294392343        1.82971798270775
H           -0.81663449140162        2.99296908181636        0.73243759247879
H           -4.17563814219634        0.90949512301904       -1.07021916072466
H            2.73731784946720        0.39557968515281        2.51285584810975
H            1.99290824347834       -3.60522376001611        3.83080687853222
H           -1.90713579000520       -6.15960870238567        2.37323121609453
H           -5.13958480817250       -3.68155215055407        1.86140118332403
O           -4.63195220741346        3.35792148829947       -0.30632760796646
O           -2.64979687510071        4.49914276705595       -0.51101335634140
C           -3.43906092991059        5.68786247922339       -0.46389641043392
C            3.89281946528844       -1.47432941179173        3.89267527180613
O            4.40635794927471       -0.42864268855871        3.96504545753933
O            4.43328331135386       -2.65114524139928        4.32348597972461
C            5.28984940366969       -2.76002046602333        5.43804516718369
O           -5.34815034395488       -5.93899646782711        2.36627015462299
O           -3.79629498860529       -7.35842765375590        1.48964163858876
C           -4.51653478908201       -8.52318996394829        2.01194846096229
C           -5.21650426113790       -0.87132407969034        1.56248654322489
C           -2.20518793960181       -2.35118787162202       -1.78380355995058
H           -3.76793503562317       -9.29210564422146        1.92930483917478
H           -5.45939116708076       -8.76439880828077        1.52940210303241
H           -4.59408562284947       -8.37442287221724        3.20805894544543
H            4.89368897207533       -3.47719213115012        6.24156193587784
H            5.32903767738721       -1.73523125262445        5.96878992916121
H            6.23651424841083       -2.99298959530266        4.97609692158107
H           -2.24399028665433       -2.14921316423521       -2.84582811934692
H           -2.90863222814514       -3.25904989512026       -1.72878447298225
H           -1.19818147900777       -2.30056474793668       -1.36639122447717
H           -5.75245416577455       -0.91372986605365        2.57743766908043
H           -5.60926891101159       -1.65599214824491        0.84969625312574
H           -5.38332946299160        0.20694130553822        1.12439113048831
H           -2.81104860325283        6.51802289713030       -0.91161082838568
H           -3.48210062444167        6.00420859779161        0.52549013912088
H           -4.51502322766986        5.44428702111313       -0.90628832048067
C           -2.86897663891741        4.78051010186722        3.72728918644933
C           -2.35258108313039        3.50561561360942        3.88637501069573
C           -1.23239739266199        3.26956105930014        4.82801284135517
C           -0.55902467595667        4.42778482231464        5.29547627289401
C           -1.01771576115966        5.69093113129533        4.95165962654077
C           -2.26807164585969        5.87241301314753        4.36400666217388
C           -0.68050159415929        1.94658950142527        5.20597278889515
C            0.70083697003108        1.90960321997804        5.48739038727430
C            1.26434895411925        3.13832175744645        5.82458003227760
N            0.55984231175192        4.31812604058553        6.01643715448841
C           -1.39313278928876        0.70528416799720        5.32990488454619
C           -0.67033959676013       -0.51942425809934        5.30593540987318
N            0.69596827075526       -0.50742277262023        5.33056333102393
C            1.34778562504303        0.65284353338171        5.51588156374322
C            2.66244215711906        0.69252414393959        5.93124209373653
C            3.24672574477609        1.89453362667016        6.27727939840478
C            2.57629517797889        3.16681965991893        6.23609003367361
C           -2.84295477346997        0.71486488681411        5.63297550833289
C           -3.46379518368811       -0.56349086437746        5.60942828552081
C           -2.84027904551737       -1.77736656938562        5.36873162580991
C           -1.41377795129471       -1.76433696040932        5.40279784896614
O           -3.69700446853149        1.83554317303147        5.96821832718661
O           -2.74375771462944        2.43388381902675        3.11747358466639
C           -2.76278344538250        7.17169820070467        4.01661819544843
C           -3.77325972735864       -2.98422672864265        5.21772252676938
H           -0.54654361785825        6.48787597169040        5.54330200527735
H           -3.63526368172692        4.99196860467920        2.95178215873091
H            3.17725898974073        4.02926542735714        6.51183483389135
H            3.09761519004733       -0.31397057647140        6.04483838844935
H           -0.92629982112625       -2.64338648608574        5.34910274047076
H           -4.53189984814318       -0.55648708543677        5.40622727886320
O           -3.93668472210171        7.28141041291925        3.56722862545790
O           -1.94082441999493        8.17756825456387        4.16306697024809
C           -2.68189921736190        9.42023697587162        4.09735388216432
C            4.68900268984093        1.54765457180248        6.49776282563022
O            5.19006443736622        0.54993850443679        6.98588972469276
O            5.46777240480775        2.61695435854021        6.07142373674358
C            6.74336963471826        2.38909795042111        6.61377977332832
O           -4.93064625867533       -2.69408438774358        5.46673037799857
O           -3.28387472520613       -4.22913736195523        4.88911933154058
C           -4.21728369666573       -5.34874254264288        4.92751371874358
C           -3.36908528556024        2.28028398616594        7.21443897737755
C           -4.16167255980780        2.23304340676080        3.12824061283759
H           -3.71271185394487       -6.11529678927607        4.36909474525407
H           -5.12919934111335       -5.19868506242303        4.27617924173640
H           -4.53715620479525       -5.69192615168454        5.92400102472585
H            7.36764357284224        3.27242929973009        6.34890530569043
H            7.04529340211951        1.52093201349939        6.06468292268667
H            6.79774971502834        2.26648757205268        7.63641463453492
H           -4.44389029050564        2.78870977135572        2.26946432130986
H           -4.88294501653635        2.68524651044642        3.89648786722860
H           -4.26245844253627        1.21312803708786        2.77145486584926
H           -2.43813501117368        1.86763283132121        7.59573327950400
H           -4.24126993863587        2.08239176986308        7.76165346299447
H           -3.02991377801978        3.28942430286703        7.30894586122417
H           -2.03944766674889       10.31312199275971        4.27325862067273
H           -3.56334229038165        9.32515369826303        4.87123761731266
H           -3.22325898876456        9.48102487301342        3.11341405793731
116
 energy: -22.840070661134 gnorm: 0.429684571325 xtb: 6.6.1 (8d0f1dd)
C           -3.45423459883927        1.37270717515960       -0.09319485583654
C           -2.95283092091200        0.09953329963231        0.23792608807160
C           -1.86715952808510       -0.00298232909147        1.16196504885735
C           -1.15118997875478        1.14136939500433        1.56621298446541
C           -1.62123754050675        2.37720680187604        0.94774305042115
C           -2.78583862245630        2.50970327869678        0.26158818915062
C           -1.43257052887592       -1.16615808148753        1.80489702051865
C           -0.20465807665455       -1.22748800430130        2.43873851979853
C            0.54857120327829        0.06442161233137        2.52178108800762
N           -0.01873382742240        1.23870877404396        2.26228889831761
C           -2.06964618526900       -2.41675068809457        1.82354436896644
C           -1.29126254816360       -3.62584838047996        2.09785298854686
N           -0.02656838579025       -3.66663642289251        2.61135916299305
C            0.55889804510045       -2.42525754732158        2.69145625095380
C            1.89969167988641       -2.45664544987951        3.27392731016921
C            2.58115118655788       -1.19669685494627        3.28013833070676
C            1.95136094747380        0.00278230736846        2.87780852132579
C           -3.48748036846225       -2.55433956081138        1.74810290966094
C           -4.15237897352296       -3.80884791475174        1.64384353074437
C           -3.25220380282531       -4.91939737138334        1.50274464008108
C           -1.90888772222445       -4.88039138110538        1.87738973827935
O           -4.25296213856716       -1.49597520044451        2.09196625119223
O           -3.56852054893822       -0.96522458545934       -0.40185760499353
C           -3.39310950444504        3.84952378690569        0.07330417274805
C           -3.76413861622767       -6.27331606702848        1.12637981295599
H           -1.09492873453423        3.29493366334965        1.18467900565706
H           -4.29481957450414        1.53944292336426       -0.63700154931652
H            2.49528897462018        0.81718990235904        3.20786392472979
H            2.44799595912170       -3.21867779351676        3.72053705855973
H           -1.40731111658617       -5.89961662891544        1.94853462509175
H           -5.17696618706763       -3.86285992551669        1.35342968824491
O           -4.54801857262916        4.09333849685732        0.30584633113849