116
 energy: -22.928061455056 gnorm: 0.329736929581 xtb: 6.6.1 (8d0f1dd)
C           -3.31122850772930        0.79849766164622       -0.92477639677520
C           -2.44380812530352       -0.12270372891954       -0.27661132624697
C           -1.41337090092821        0.39579727573559        0.56335275196199
C           -0.89266158675590        1.65801491088749        0.27377586709581
C           -1.72665675402493        2.51431363229076       -0.49448366572522
C           -2.95444148494349        2.13954154133227       -1.01494489940871
C           -0.74098268209890       -0.43411532818871        1.49825021926784
C            0.56872586496315        0.03782116815119        1.86248088067890
C            1.03782416582094        1.29402317993033        1.50887470833621
N            0.31238977034758        2.07067427098208        0.65193736800696
C           -1.29695700510141       -1.39996043042223        2.41574187746061
C           -0.38243517664656       -2.18060797534842        3.13232615520648
N            0.91308504082021       -1.90366887689689        3.30325166013478
C            1.37712470144904       -0.74872102533751        2.81811050966982
C            2.52149331701875       -0.17739833758153        3.39379298866852
C            2.95849061756259        1.02681208890480        2.95105897606587
C            2.24288949469137        1.78498308775960        2.03503020483770
C           -2.74860936222260       -1.74497937691422        2.38401158947411
C           -3.09416315450955       -2.91614440870436        3.00571134491758
C           -2.16786021984049       -3.77788778654213        3.63251872101904
C           -0.85708937311598       -3.40495313382985        3.68547234358092
O           -3.71994433332149       -0.94984598373544        1.67726658385724
O           -2.55702603277562       -1.47241711578389       -0.57241635275616
C           -3.84297843593025        3.13357444054366       -1.60938954875544
C           -2.68769581069131       -5.03867041417370        4.30484659386931
H           -1.39666850744143        3.51251503834900       -0.76806311868865
H           -4.27662633836220        0.55105838579656       -1.33106614114542
H            2.66329581305412        2.73912661909249        1.72562431984580
H            3.05775395548473       -0.69369546277216        4.16536137542516
H           -0.24710966264510       -4.12034095424229        4.22946223699121
H           -4.11477991332403       -3.04712728052358        3.03244694615357
O           -4.21824883374556        4.03433712717988       -0.87713382485991
O           -4.44510595673734        2.90643496899600       -2.81853501752979
C           -5.44216520282800        3.83300025693726       -3.02488532025093
C            4.23586651889298        1.50004220933226        3.59165660008449
O            5.05927614697201        0.66079890002952        3.91714215179376
O            4.47001334453535        2.86385149488593        3.72605651435371
C            5.79457498613219        3.08584475587818        4.15829123132174
O           -3.82227255313510       -5.27347675879771        4.16636005494405
O           -1.85023202017753       -5.79767454267276        5.06656077253571
C           -2.55119635829503       -6.86252441382958        5.62930343183426
C           -5.07197156564436       -1.42399175670916        1.58830531863830
C           -1.33089900128490       -2.23622472573986       -0.99264499351172
H           -2.54510546830388       -7.76426885143998        4.99136022291012
H           -3.57194749219491       -6.44405511486021        5.74196173723541
H           -2.09133598235598       -7.02043774843818        6.64022264233588
H            5.72707967266424        3.46798026205549        5.10135971236643
H            6.34060091246885        3.78468702308830        3.50069950143490
H            6.17933064298187        2.03010500085905        4.19342358084693
H           -0.91862729772622       -2.57650129080332       -0.01361370304871
H           -0.49769766914251       -1.60651221708571       -1.34094446550576
H           -1.52632419730509       -2.94569707152159       -1.75361447637286
H           -5.11788846557077       -2.41810833635233        1.17520213188926
H           -5.67929807973498       -0.69619639428435        1.04301666067831
H           -5.57598832326623       -1.42383358739762        2.57928294206544
H           -6.13050215934830        3.76035386975488       -2.23272855695873
H           -5.86615610071888        3.45938329385866       -4.02668959924245
H           -5.13479557532099        4.87790991548477       -2.98314551356402
C           -1.38192942069774        3.73616555005018        2.91232598411686
C           -1.84821468128685        2.59982427735607        3.49755545445181
C           -1.05946531454833        2.05730632010638        4.60922730982276
C            0.19893954712228        2.69376791964407        4.86302140881997
C            0.50425395911860        3.94630308659851        4.28768785650746
C           -0.26031777722226        4.46998310053134        3.25072669343212
C           -1.20488993561782        0.74454293276906        5.14851520323437
C           -0.06287609782692        0.02744069315890        5.60930570802864
C            1.19208754369866        0.71421540266195        5.78882868583885
N            1.19428660993148        2.06344359410476        5.62744624321596
C           -2.41361422770794        0.07928500213936        5.25249410304426
C           -2.45851584031083       -1.32662100968547        5.60237876023992
N           -1.29466212405906       -1.98318595734370        5.89916817085159
C           -0.14475655767527       -1.32117560077092        5.98824682881008
C            0.97209270935794       -1.98958449505532        6.53157704134458
C            2.21982707914082       -1.36973967291181        6.68703967237737
C            2.30561929262884       -0.09745313075593        6.26436900324455
C           -3.73018485967715        0.71367583494582        5.25810242262992
C           -4.89964478833448       -0.06184623426677        5.21204641615509
C           -4.82617965800088       -1.39228978090841        5.46901303780036
C           -3.67144193418464       -1.98914944386360        5.67265433266067
O           -3.75568638935321        2.07705011038914        5.52067969627343
O           -2.94192434743730        1.91263938797883        3.01658762327703
C            0.21273512614467        5.50086066357994        2.34765104514621
C           -6.06660304520411       -2.17604633098929        5.80641622556876
H            1.41756699010566        4.38133362238595        4.66974005703471
H           -1.82880610647429        4.11982501512100        2.06992133318584
H            3.26888037378556        0.32655662585251        6.31721410015598
H            0.87146188387207       -3.08471526305024        6.57830423410869
H           -3.67716811065157       -3.05999292755990        5.83019634570050
H           -5.77379677507622        0.43595144608221        4.71017130754348
O            1.34459852619901        5.82615848916894        2.44941456579099
O           -0.74718748219123        6.07961784856304        1.59848183464284
C           -0.21473095568964        7.24015934882472        1.05753806029483
C            3.53228080814219       -2.00967610361154        7.02506769044485
O            3.64093082622715       -3.14437803815732        7.50071391725347
O            4.56565258381079       -1.22937033368332        6.69086985080897
C            5.72579357310716       -1.80692399125161        7.22246151275881
O           -7.04801223588612       -1.95726935745904        5.14194115322235
O           -6.01514389321278       -2.93743591896022        6.94765316328794
C           -7.21292732384718       -3.62681918543340        7.15115816329978
C           -4.95459780685163        2.65960679932188        5.86868674392943
C           -3.68284113682406        2.59129188358641        2.05479246020704
H           -7.43119628931628       -4.22607794725959        6.20622607140901
H           -8.06548455146707       -2.91765848248592        7.29781126410398
H           -7.07314693247270       -4.33087306029711        7.91223421050944
H            6.57332189837178       -1.29353136199234        6.78341268688262
H            5.74663761932316       -2.84282155125561        6.88089468184451
H            5.69426191474290       -1.72781984964892        8.29460302186842
H           -4.10481209541493        3.44288266176275        2.60483747673152
H           -4.49244774344916        1.87419893016926        1.82433103764650
H           -3.18901540870812        2.85154642679373        1.06781919454921
H           -5.55414326821421        2.76698137191684        4.93950725322359
H           -4.78658370641210        3.62090640967288        6.25983200635257
H           -5.43485580473958        1.97242995129449        6.65265772412460
H            0.89164886030839        7.38838561720231        1.13776105146914
H           -0.62894889903848        8.04195665205089        1.64837664327952
H           -0.59282546386754        7.45699159724320        0.03719083132488
116
 energy: -22.593078247773 gnorm: 0.534163496867 xtb: 6.6.1 (8d0f1dd)
C           -2.97053682304281        0.98405558794292       -1.39565250530347
C           -2.40878442041944        0.00742390654493       -0.60516668517243
C           -1.55727959787299        0.40829756226684        0.43730193906729
C           -1.07646340804725        1.72212549900251        0.42717878260550
C           -1.80910328749690        2.74592859757572       -0.30042683463771
C           -2.82050347036030        2.39629394594315       -1.22638634988695
C           -0.90053734670234       -0.37778881587629        1.62237173170188
C            0.42066173927502       -0.03723878201323        1.91226134321721
C            0.86905885642887        1.29541373466952        1.54705727189425
N            0.09633550011021        2.17536444716468        0.89415790339377
C           -1.51910534621432       -1.43127011789776        2.43887130134017
C           -0.76880595911005       -2.16431329443238        3.44728755442679
N            0.62428009514218       -1.88636312582197        3.44108608976562
C            1.23629922699216       -0.95908272743666        2.61679241697180
C            2.56744328615878       -0.60965357261758        2.74586286448572
C            3.06950331048792        0.67367460082844        2.50261584201590
C            2.16959448799512        1.70968494606330        1.93961644710234
C           -2.75983315883045       -2.10259671919527        2.02280705640131
C           -3.19585040998960       -3.36089206355952        2.49890967453310
C           -2.24558026301196       -4.09728447116087        3.31817435962559
C           -1.10602204841827       -3.49303420543867        3.80261649998669
O           -3.65364484226566       -1.31373295378632        1.38751295313723
O           -2.74200716980550       -1.31952234561365       -0.77792834430075
C           -3.65522265841708        3.39645318999067       -2.01345121266152
C           -2.45588828761527       -5.22750896028607        3.97214185354591
H           -1.35471225858191        3.74251002424120       -0.35486119017786
H           -3.63182310536983        0.52026013796070       -2.11979651125313
H            2.59090938090976        2.69514113821036        1.75203947354377
H            2.96438129634216       -1.26979189488418        3.55256236458236
H           -0.31725941565821       -4.02909162238245        4.22429500844703
H           -4.28069156484478       -3.42793865149822        2.61243206499439
O           -3.11877637032861        4.02941842130615       -2.97082693117984
O           -5.03428969663294        3.56197879688828       -1.83996306190885
C           -5.50952920352556        4.45855813098194       -2.89479324877986
C            4.54938956361396        0.93396593002086        2.60053169130145
O            5.33005704888167        0.18694583730527        3.08474844901794
O            5.00754783237367        1.95851236455957        1.77027200840297
C            6.35611473664011        2.10781020418025        1.85665394109613
O           -3.60102110962426       -5.71619726050371        4.11788615658826
O           -1.35707533149616       -5.73808272048935        4.70620630645089
C           -1.82470627671511       -6.95347716086732        5.32134656197452
C           -4.98152189082665       -1.86949619620494        1.42957022209041
C           -1.83695347375676       -2.36831561054273       -0.77258554671282
H           -2.43495129877726       -7.42480943643349        4.68150957953110
H           -2.36952356814558       -6.59395295735496        6.13524675594275
H           -1.12254110053630       -7.66447772832387        5.62158687403324
H            6.76571146781638        2.99758959324057        1.02030111692388
H            6.87228515229134        1.18061589084475        2.03099713795813
H            6.44603656393023        2.65170382829537        2.87351005978278
H           -1.09916292921011       -2.61304813705143       -1.54127908957208
H           -2.66958676336093       -3.10046365541769       -1.12296977737190
H           -1.52373688583266       -2.43287804956322        0.26817120081412
H           -5.14155724219497       -2.78743080737486        1.06919956589574
H           -5.49713603439781       -1.28056363034749        0.70840752866455
H           -5.50179028449871       -1.61884191534711        2.35818358936014
H           -4.72464899240620        5.30123596096086       -3.04071910891404
H           -6.47067557208713        4.70915255812537       -2.34711632665473
H           -5.36068304912939        3.81006693952858       -3.65365061334132
C           -1.79984301596799        4.04863924307263        3.68230070926267
C           -1.93949296984818        2.72872930292671        4.13991485403994
C           -0.99769675880286        2.20513018836988        5.04741142899544
C            0.22629808710310        2.90235884128172        5.24873478773614
C            0.34577352876938        4.11660378066680        4.71496277780821
C           -0.63961828249386        4.75034508403850        3.93195946322983
C           -1.12300005003362        1.00820051962464        5.59354280039253
C           -0.06067501819592        0.28591845925818        6.12542382379491
C            1.23996967284204        0.93608588901110        6.14491270170469
N            1.33641193308419        2.17762878156573        5.77448563496269
C           -2.41429746828031        0.30927614037833        5.74735777394751
C           -2.38840415645631       -1.12053060724394        6.05081421584979
N           -1.37174987152516       -1.88674101986809        6.51005135421159
C           -0.23281632242462       -1.11678914364048        6.51433755203761
C            0.95841769295676       -1.68505218877959        6.87394869833445
C            2.18550906097938       -1.13752970278725        6.95234075998966
C            2.37682552620434        0.15195948483029        6.41896099740594
C           -3.63511499386330        0.99272611173440        5.95290675258956
C           -4.82261782001377        0.32595782881481        5.81982277882322
C           -4.81517866714575       -1.07120167132441        5.53806899329652
C           -3.63936142522594       -1.78715100888587        5.92418403387610
O           -3.57576255516498        2.37339506619771        6.34902605957644
O           -3.15788571775975        2.00928044957576        3.71641595199994
C           -0.23046065373166        5.42552005381456        2.74575627585328
C           -5.91772635418916       -1.86589477368018        5.09875085867047
H            1.24425182520163        4.67287339759036        4.44027146658998
H           -2.37745792476265        4.31442283260718        2.81786442729595
H            3.40951234226702        0.43644062308656        6.15699002415594
H            0.86933604279945       -2.65553289970954        7.42455454833980
H           -3.90125733804037       -2.84729443243826        6.23002710331501
H           -5.58778194293597        1.03302864426245        5.99552607185107
O            0.46176006430612        6.42260286696189        2.90699557652264
O           -0.77432225268879        4.87271475942021        1.57375279829904
C           -0.34958861081628        5.65368685179063        0.48541231140466
C            3.19216895243314       -1.60967452401574        7.81167367591549
O            3.73297835311982       -2.66684528285757        7.61841603846651
O            3.69442529754643       -0.58422553363849        8.64322152354221
C            5.15574483075801       -0.93087877679226        8.98299219668339
O           -6.78109390006761       -1.49143345573834        4.38553137270490
O           -5.76474975112675       -3.17968905555909        5.48390067190576
C           -6.33447626085351       -4.09977037106260        4.52879791246578
C           -4.64798574748701        2.84161779086943        7.18176228139425
C           -4.33399377550875        2.86978112130963        3.60138003375225
H           -6.34867013153832       -5.02499089708003        5.16439235495350
H           -5.70809703976306       -4.51417445267073        3.56820071005590
H           -7.34479433646671       -3.79061658739836        4.54329939573684
H            4.98768883175255       -1.90385749105488        9.61421570222397
H            5.41983135818768       -0.26714820188915        9.72379041924815
H            5.88067580575185       -0.95331343628194        8.01880387408051
H           -4.26240361295395        3.80393324083739        4.17349649675215
H           -5.27003074585636        2.25131492642981        3.71030780999198
H           -4.23315460277242        3.23872790654759        2.57970957948066
H           -5.45331755023579        2.64852370383455        6.58882162298969
H           -4.34959681859245        3.87953115086688        7.08221887004915
H           -4.98034581583152        2.65802282406691        8.22333648523981
H            0.79342122905741        5.78774876739656        0.24700392148693
H           -0.55075598362871        6.75918939185685        0.59792193000310
H           -0.62874985918309        5.16661169805329       -0.40459065758838
116
 energy: -22.630229104127 gnorm: 0.527377050161 xtb: 6.6.1 (8d0f1dd)
C           -3.22651000795727        0.30923120920093       -1.38938685276288
C           -2.47884595969635       -0.76937188531968       -0.78202799136378
C           -1.34609790689187       -0.50480883635118        0.12510677436166
C           -1.00031347569726        0.87865882666202       -0.22017129077268
C           -1.53633233100313        1.90081344382648       -0.96822388364004
C           -2.75615395342275        1.59503646050994       -1.53824109403124
C           -0.81956332653263       -1.09318153262419        1.33876811702306
C            0.43956362639663       -0.70983860970349        1.65982079720693
C            0.91199139816838        0.54197163605352        1.16783392927602
N            0.18457457812336        1.28770255747617        0.34179188398005
C           -1.47812095470344       -1.98267959405152        2.22962600069118
C           -0.56334061952379       -2.77698009594835        2.92085008416395
N            0.79598679594925       -2.63251377489515        3.04416073710590
C            1.18237716413484       -1.36090419480001        2.64112596292721
C            2.37690750515089       -0.79489190385515        3.04086608333448
C            2.81918452221999        0.38658765671885        2.53280675643463
C            1.93716542919506        1.18245371054777        1.76178445562108
C           -2.86379428559095       -2.27976318198598        2.24506842291984
C           -3.49796677466392       -3.42073730066855        2.78237457112992
C           -2.53385887500361       -4.27570054036433        3.29289122650155
C           -1.17048427593634       -3.95366219454706        3.22460562990791
O           -3.66574470569580       -1.35488417334574        1.54824784939056
O           -2.90092615145600       -2.03426998351825       -1.06648078126557
C           -3.74254883390192        2.55530182283226       -2.01740924834644
C           -2.77962813426887       -5.69468780344333        3.75452118107450
H           -0.79074584116609        2.77047312426119       -1.38582790545461
H           -4.18991577955847        0.11964744445100       -1.66620312824784
H            2.30579343860071        2.06422221698946        1.27402457458595
H            3.00669611896625       -1.20918164315331        3.80854052115861
H           -0.37456240105445       -4.70138344658960        3.31346739396047
H           -4.54427802750027       -3.77200382638199        2.87502214866808
O           -4.51527854416611        2.31528347436228       -2.99379464954204
O           -4.05859173758921        3.49652564693828       -1.17384604983245
C           -5.18318518312919        4.16092197829533       -1.43394701933778
C            4.26857345189838        0.84501436482038        3.03638544956789
O            4.79746767391432        0.30045080054933        3.98055341262272
O            4.85267842320652        1.76703626907568        2.28607439151192
C            6.13573952631865        2.23551951457880        2.78142389263197
O           -3.92315398560519       -6.03857124035431        3.71134512281628
O           -1.72361551496692       -6.59213758049045        4.06531890231550
C           -2.11919338759329       -7.82550425245029        4.04684214716530
C           -5.04608534246951       -1.28494922518487        2.05039378795169
C           -1.93460112352366       -3.10444644481348       -0.81648109968783
H           -3.15525895777388       -7.77231860728531        3.59328882539439
H           -2.06969150842316       -8.18776535182081        5.17945804626942
H           -1.42925887600397       -8.46474394212456        3.48721288896256
H            6.84215553128200        1.55771091785539        2.04979237177335
H            6.40703537736532        2.42254372869113        3.83437881685922
H            6.20973301062438        3.23598340906986        2.03770570083943
H           -0.94856922134786       -2.67654403075530       -0.57084356528180
H           -1.91746197783759       -3.62863914243834       -1.61756965027280
H           -2.11424181894481       -3.82223230329135        0.03824423067529
H           -5.62934112437269       -1.95006236008675        1.55345372259039
H           -5.02985160210785       -0.34440379509388        1.61460282968921
H           -4.98002872069517       -1.36916116738871        3.08283688180259
H           -4.96140454262682        4.75679760334872       -2.31132442900476
H           -5.71992781986886        4.73127614870258       -0.69291875731126
H           -5.98665617707811        3.56814037511409       -2.01375927474318
C           -1.38062098087023        4.46666570260397        3.42211688918789
C           -1.64565743970176        3.17060846702621        3.67229671088991
C           -0.76232324380201        2.48388096087293        4.63508539830535
C            0.50638360627802        3.17999589064983        4.87624033690417
C            0.69562775642261        4.63638155668184        4.59734919326131
C           -0.26237928345576        5.27681713513029        3.83186790920563
C           -1.01581313696655        1.19529773864099        5.19304171622637
C            0.25115993257359        0.53567422933613        5.57012703930255
C            1.51721546627963        1.29264910141502        5.63149382669161
N            1.67861054633335        2.53722557293035        5.10624282701791
C           -2.25233729200508        0.49365276079748        5.38197807498236
C           -2.20425540595265       -0.90591923829851        5.76248642107266
N           -0.97941382387097       -1.49704986378445        5.97578086297370
C            0.17351598080455       -0.74310011060267        5.97761172842417
C            1.18870684888306       -1.29188911376183        6.74231682796948
C            2.36249860203728       -0.57268957983238        6.89014297802098
C            2.52499184430538        0.69985605252696        6.36228364621078
C           -3.57157267640172        1.04161357869196        5.32230684873642
C           -4.70368930252202        0.27708753206947        5.43807168533111
C           -4.59787136746879       -1.09270879386293        5.91572339566821
C           -3.39096814989787       -1.67034078237494        5.76559084342508
O           -3.73472269879317        2.39033324738632        5.14197031539633
O           -2.72161046009898        2.41872130262999        3.20064216045816
C           -0.16983154423874        6.59530430535120        3.21268505639608
C           -5.91693233318226       -1.84647997058434        5.86140369567024
H            1.70356661289238        5.14295416583715        4.71045642720930
H           -1.83298128121155        4.97950338739620        2.59647206838823
H            3.42196695293262        1.34042321250637        6.51692608180902
H            1.18211631551109       -2.29117726760762        7.25059737845525
H           -3.24837752298254       -2.68576471826151        5.97041363437196
H           -5.71113508244132        0.65798862818854        5.36054518334549
O            0.27238380585448        6.42004594604127        2.03736491842587
O           -0.61943338310550        7.77646628821644        3.78189776497791
C           -1.12042397418682        8.54553312756825        2.73789334673303
C            3.26097305116089       -1.18573673240168        7.87472310833682
O            2.88901433643105       -2.29836528810528        8.30963705464634
O            4.23874465518047       -0.39545629912514        8.44801826863337
C            4.54598776075201       -0.64240923641880        9.73465413392886
O           -7.08590298704116       -1.35858014719463        6.01737401953380
O           -5.81700859748117       -3.16253953085286        5.54074624282944
C           -7.12599851076991       -3.84080633853028        5.59502794520421
C           -3.51973708514407        3.11665128106377        6.28210683596750
C           -3.58206732391267        3.11876195100555        2.28003082706576
H           -6.96032373727967       -4.78356970059726        6.05826972850857
H           -7.40917309863279       -4.06196646584985        4.58009756607598
H           -8.08862652090363       -3.71635545049751        6.16619577720203
H            3.53472045314295       -0.67816575263925       10.06539288310276
H            5.14876046549618        0.17867569684402       10.29913325307077
H            4.67403282667300       -1.64926125141440       10.10372222078648
H           -2.99048925185205        3.43492175854557        1.38924439151084
H           -4.02129098560568        3.97820887710163        2.80607705068907
H           -4.46824104554033        2.59591254026853        1.89874471658729
H           -3.56669098938296        2.44856444208753        7.22011073323159
H           -4.33797985239450        3.86167626242393        6.22760850095753
H           -2.48602091251629        3.51638438604268        6.17111026445573
H           -1.58872552746232        7.89375232322003        2.05187194755674
H           -0.23047495819054        8.82243129457639        2.12079836451997
H           -1.68582860684211        9.33355425378810        3.23172254911813
116
 energy: -22.656619990852 gnorm: 0.488790884651 xtb: 6.6.1 (8d0f1dd)
C           -2.95337246729802        0.09548877873736       -1.20025148868911
C           -2.25593720337091       -0.86338394154115       -0.41639448596491
C           -1.51737475538047       -0.26642758468764        0.70392377602646
C           -1.15871092257429        1.11728257800720        0.87125208330787
C           -1.86016097518617        1.89740341127967        0.04243131538421
C           -2.88544087282777        1.45303458060778       -0.82819037480228
C           -0.83289117555482       -1.18267214400976        1.58808971646820
C            0.38272554360534       -0.74925054250786        2.09349596899148
C            0.82288324279065        0.63438491001695        1.78830869815635
N           -0.15113493059492        1.54936304439339        1.64798924116375
C           -1.38932343163189       -2.26100949247129        2.10699618960942
C           -0.51455761380087       -3.04295735385337        2.86338795078530
N            0.68882354570472       -2.86771806388484        3.24196504430619
C            1.19195631309957       -1.65728890725814        2.75155286354163
C            2.50481913668101       -1.24665700910731        3.13314283480250
C            2.99435588496282        0.02933663677419        2.69707308443852
C            2.13257918473641        0.94605390431623        2.17145636622714
C           -2.82158810863073       -2.52206631167352        2.20260731013115
C           -3.25316471348701       -3.84706772037138        2.55693402408866
C           -2.38002241807878       -4.63202184675752        3.26483954151564
C           -1.06611714478442       -4.17327887624294        3.43704471053958
O           -3.54722500732891       -1.46758198492331        1.86145349962857
O           -2.38805346262648       -2.11645592276430       -0.99857952516433
C           -3.63133800076729        2.50648870620756       -1.62207381004434
C           -2.88605788306972       -5.89359613868953        3.84245823288186
H           -1.74226570950821        3.07744818478084        0.12339461174195
H           -3.73954173713786       -0.44528616098322       -1.73030637325054
H            2.52220053994672        1.91735430337166        2.15977937115329
H            3.09746488092813       -2.07598819095177        3.40153150551436
H           -0.36028539811985       -4.89117670503353        3.72595171668224
H           -3.95511370657635       -4.33977259160007        1.89375644508494
O           -4.63902014279481        3.07977318320530       -1.39819673022394