116
 energy: -22.928061455056 gnorm: 0.329736929581 xtb: 6.6.1 (8d0f1dd)
C           -3.31122850772930        0.79849766164622       -0.92477639677520
C           -2.44380812530352       -0.12270372891954       -0.27661132624697
C           -1.41337090092821        0.39579727573559        0.56335275196199
C           -0.89266158675590        1.65801491088749        0.27377586709581
C           -1.72665675402493        2.51431363229076       -0.49448366572522
C           -2.95444148494349        2.13954154133227       -1.01494489940871
C           -0.74098268209890       -0.43411532818871        1.49825021926784
C            0.56872586496315        0.03782116815119        1.86248088067890
C            1.03782416582094        1.29402317993033        1.50887470833621
N            0.31238977034758        2.07067427098208        0.65193736800696
C           -1.29695700510141       -1.39996043042223        2.41574187746061
C           -0.38243517664656       -2.18060797534842        3.13232615520648
N            0.91308504082021       -1.90366887689689        3.30325166013478
C            1.37712470144904       -0.74872102533751        2.81811050966982
C            2.52149331701875       -0.17739833758153        3.39379298866852
C            2.95849061756259        1.02681208890480        2.95105897606587
C            2.24288949469137        1.78498308775960        2.03503020483770
C           -2.74860936222260       -1.74497937691422        2.38401158947411
C           -3.09416315450955       -2.91614440870436        3.00571134491758
C           -2.16786021984049       -3.77788778654213        3.63251872101904
C           -0.85708937311598       -3.40495313382985        3.68547234358092
O           -3.71994433332149       -0.94984598373544        1.67726658385724
O           -2.55702603277562       -1.47241711578389       -0.57241635275616
C           -3.84297843593025        3.13357444054366       -1.60938954875544
C           -2.68769581069131       -5.03867041417370        4.30484659386931
H           -1.39666850744143        3.51251503834900       -0.76806311868865
H           -4.27662633836220        0.55105838579656       -1.33106614114542
H            2.66329581305412        2.73912661909249        1.72562431984580
H            3.05775395548473       -0.69369546277216        4.16536137542516
H           -0.24710966264510       -4.12034095424229        4.22946223699121
H           -4.11477991332403       -3.04712728052358        3.03244694615357
O           -4.21824883374556        4.03433712717988       -0.87713382485991
O           -4.44510595673734        2.90643496899600       -2.81853501752979
C           -5.44216520282800        3.83300025693726       -3.02488532025093
C            4.23586651889298        1.50004220933226        3.59165660008449
O            5.05927614697201        0.66079890002952        3.91714215179376
O            4.47001334453535        2.86385149488593        3.72605651435371
C            5.79457498613219        3.08584475587818        4.15829123132174
O           -3.82227255313510       -5.27347675879771        4.16636005494405
O           -1.85023202017753       -5.79767454267276        5.06656077253571
C           -2.55119635829503       -6.86252441382958        5.62930343183426
C           -5.07197156564436       -1.42399175670916        1.58830531863830
C           -1.33089900128490       -2.23622472573986       -0.99264499351172
H           -2.54510546830388       -7.76426885143998        4.99136022291012
H           -3.57194749219491       -6.44405511486021        5.74196173723541
H           -2.09133598235598       -7.02043774843818        6.64022264233588
H            5.72707967266424        3.46798026205549        5.10135971236643
H            6.34060091246885        3.78468702308830        3.50069950143490
H            6.17933064298187        2.03010500085905        4.19342358084693
H           -0.91862729772622       -2.57650129080332       -0.01361370304871
H           -0.49769766914251       -1.60651221708571       -1.34094446550576
H           -1.52632419730509       -2.94569707152159       -1.75361447637286
H           -5.11788846557077       -2.41810833635233        1.17520213188926
H           -5.67929807973498       -0.69619639428435        1.04301666067831
H           -5.57598832326623       -1.42383358739762        2.57928294206544
H           -6.13050215934830        3.76035386975488       -2.23272855695873
H           -5.86615610071888        3.45938329385866       -4.02668959924245
H           -5.13479557532099        4.87790991548477       -2.98314551356402
C           -1.38192942069774        3.73616555005018        2.91232598411686
C           -1.84821468128685        2.59982427735607        3.49755545445181
C           -1.05946531454833        2.05730632010638        4.60922730982276
C            0.19893954712228        2.69376791964407        4.86302140881997
C            0.50425395911860        3.94630308659851        4.28768785650746
C           -0.26031777722226        4.46998310053134        3.25072669343212
C           -1.20488993561782        0.74454293276906        5.14851520323437
C           -0.06287609782692        0.02744069315890        5.60930570802864
C            1.19208754369866        0.71421540266195        5.78882868583885
N            1.19428660993148        2.06344359410476        5.62744624321596
C           -2.41361422770794        0.07928500213936        5.25249410304426
C           -2.45851584031083       -1.32662100968547        5.60237876023992
N           -1.29466212405906       -1.98318595734370        5.89916817085159
C           -0.14475655767527       -1.32117560077092        5.98824682881008
C            0.97209270935794       -1.98958449505532        6.53157704134458
C            2.21982707914082       -1.36973967291181        6.68703967237737
C            2.30561929262884       -0.09745313075593        6.26436900324455
C           -3.73018485967715        0.71367583494582        5.25810242262992
C           -4.89964478833448       -0.06184623426677        5.21204641615509
C           -4.82617965800088       -1.39228978090841        5.46901303780036
C           -3.67144193418464       -1.98914944386360        5.67265433266067
O           -3.75568638935321        2.07705011038914        5.52067969627343
O           -2.94192434743730        1.91263938797883        3.01658762327703
C            0.21273512614467        5.50086066357994        2.34765104514621
C           -6.06660304520411       -2.17604633098929        5.80641622556876
H            1.41756699010566        4.38133362238595        4.66974005703471
H           -1.82880610647429        4.11982501512100        2.06992133318584
H            3.26888037378556        0.32655662585251        6.31721410015598
H            0.87146188387207       -3.08471526305024        6.57830423410869
H           -3.67716811065157       -3.05999292755990        5.83019634570050
H           -5.77379677507622        0.43595144608221        4.71017130754348
O            1.34459852619901        5.82615848916894        2.44941456579099
O           -0.74718748219123        6.07961784856304        1.59848183464284
C           -0.21473095568964        7.24015934882472        1.05753806029483
C            3.53228080814219       -2.00967610361154        7.02506769044485
O            3.64093082622715       -3.14437803815732        7.50071391725347
O            4.56565258381079       -1.22937033368332        6.69086985080897
C            5.72579357310716       -1.80692399125161        7.22246151275881
O           -7.04801223588612       -1.95726935745904        5.14194115322235
O           -6.01514389321278       -2.93743591896022        6.94765316328794
C           -7.21292732384718       -3.62681918543340        7.15115816329978
C           -4.95459780685163        2.65960679932188        5.86868674392943
C           -3.68284113682406        2.59129188358641        2.05479246020704
H           -7.43119628931628       -4.22607794725959        6.20622607140901
H           -8.06548455146707       -2.91765848248592        7.29781126410398
H           -7.07314693247270       -4.33087306029711        7.91223421050944
H            6.57332189837178       -1.29353136199234        6.78341268688262
H            5.74663761932316       -2.84282155125561        6.88089468184451
H            5.69426191474290       -1.72781984964892        8.29460302186842
H           -4.10481209541493        3.44288266176275        2.60483747673152
H           -4.49244774344916        1.87419893016926        1.82433103764650
H           -3.18901540870812        2.85154642679373        1.06781919454921
H           -5.55414326821421        2.76698137191684        4.93950725322359
H           -4.78658370641210        3.62090640967288        6.25983200635257
H           -5.43485580473958        1.97242995129449        6.65265772412460
H            0.89164886030839        7.38838561720231        1.13776105146914
H           -0.62894889903848        8.04195665205089        1.64837664327952
H           -0.59282546386754        7.45699159724320        0.03719083132488
116
 energy: -22.499003217550 gnorm: 0.580640195359 xtb: 6.6.1 (8d0f1dd)
C           -2.69548369791463        0.21243517173651       -2.03786051402446
C           -2.38958076824135       -0.47788456665310       -0.84353410830183
C           -1.39535705820948       -0.01617313402944        0.01432357267623
C           -0.71037017285109        1.18418780313161       -0.39824579594204
C           -1.01297204925968        1.94384618803009       -1.53414542390733
C           -2.05956256872737        1.49984116494061       -2.37091644444528
C           -0.86091291260386       -0.74749258683499        1.20191429696795
C            0.32866674184144       -0.20243849830208        1.84189360173456
C            0.97318479700967        0.88741243616103        1.18546413348674
N            0.43956548239032        1.68112373967903        0.22705633930833
C           -1.58496488643823       -1.88562106258146        1.85253501880161
C           -0.67657650901044       -2.53195075512079        2.76498045972948
N            0.56028722321124       -2.17368276001146        3.25423538311996
C            1.02223157306502       -1.02859811055581        2.80937106457477
C            2.36934038302519       -0.78327056215678        2.96189253432211
C            2.74870902118971        0.47857262865891        2.73798604147289
C            2.13974893621290        1.40229218569384        1.77606324681902
C           -2.96213547412257       -2.02499923066005        2.02563036924047
C           -3.36639482038548       -3.37291661416601        2.57852926359403
C           -2.32666113366973       -4.07692456805078        3.24889487602835
C           -1.08518210301230       -3.66514946025914        3.60409019096631
O           -3.81997951568304       -0.97170252795948        1.53599668107205
O           -2.78394955882702       -1.84150659324258       -0.54697610706924
C           -2.52245242755647        2.26888387758928       -3.50246154061722
C           -2.58678093636644       -5.54866456439912        3.54479164461654
H           -0.42922913973485        2.84467552361310       -1.72470459489409
H           -3.17964618080319       -0.29618769490948       -2.83475299506832
H            2.86543872817545        2.24262185856255        1.48458718674695
H            2.97707337898538       -1.62264575253356        3.29870258365098
H           -0.19758799192606       -4.18965290252868        3.97489105934362
H           -4.33616059484486       -3.69920459357387        2.81682927861823
O           -1.85976990423577        3.16581927467607       -4.00630050843590
O           -3.83427974985021        2.15424108114441       -3.94338836549421
C           -3.95044465513539        2.69442151268684       -5.18251129951758
C            3.93308770601045        0.93429919355964        3.43873828862504
O            4.87752637569259        0.09920928875773        3.58629298749884
O            3.89273494770936        2.14071713979313        3.94106118679339
C            5.03739592757960        2.43992398435479        4.48796853425213
O           -3.74571320436383       -5.96479121825696        3.60577517523649
O           -1.52874029109114       -6.44849687875529        3.65744288802307
C           -2.10928633053807       -7.55370514230584        4.35802535476354
C           -5.06785235648860       -1.34756090125760        0.88484398155237
C           -2.90293215885290       -2.50101334255060       -1.72524988543798
H           -1.36264473236962       -8.16375629142838        3.84662925752585
H           -3.21937292100481       -7.47009405896668        4.36621394635702
H           -1.94283205161468       -7.38300370105967        5.40032708223460
H            5.17088264867997        3.47772512958530        4.79042422279836
H            5.79327642534939        2.30295387785518        3.74048910972408
H            5.50652651547242        1.53479549444801        5.09889928042880
H           -3.97362919587722       -2.31167401218860       -2.07548881604713
H           -2.77774828188674       -3.58158652666597       -1.58311504174713
H           -2.17365032507781       -2.27779774235028       -2.53059486100907
H           -5.31884555154167       -2.19685982418414        1.27007951548007
H           -4.81021645697749       -1.24078568504003       -0.21992167635003
H           -5.83858995632716       -0.77720793071892        1.31766591182996
H           -4.19818900780471        3.64493978941016       -5.10521265828323
H           -4.73588470551768        2.12509662432971       -5.65899427299808
H           -2.93689843777898        2.88923490205159       -5.86762878489123
C           -2.12320975339299        4.54172145795479        4.25774986198418
C           -2.26660265820894        3.17577289877768        4.83481479825705
C           -1.10021782623787        2.62159666365723        5.50502318914393
C            0.10678597511477        3.35615570268565        5.77596218839811
C            0.10103580616743        4.71730290643654        5.23593227981460
C           -0.95011881510670        5.33894008538749        4.59697850063387
C           -1.12607043000909        1.47834156219065        6.38623219751303
C            0.03421516505535        0.67409782000971        6.64217852098896
C            1.26191673521572        1.38620797773940        6.40076619701648
N            1.27364645388032        2.77981359928977        6.23021864905083
C           -2.50006332099666        0.90429575236122        6.57954537750667
C           -2.44311135154577       -0.60469563753751        6.70638134654304
N           -1.29149099105507       -1.27465882625130        6.93871940279490
C           -0.00798248356179       -0.70090243212153        6.94338954334083
C            1.21356504455087       -1.49606574500069        6.79853566627690
C            2.40719769531483       -0.76598656633893        6.91616141155245
C            2.35711693371341        0.62451974545620        6.64236250639544
C           -3.63350493944197        1.54049392299536        7.22496221356049
C           -4.85602915458562        0.63136497080256        6.92651249249038
C           -4.78523349722277       -0.75049060676927        6.61156216710397
C           -3.55921399692922       -1.36866875559955        6.64164133656645
O           -3.33913421360633        2.35001118357884        8.29067145818289
O           -3.47515396717490        2.43642185070187        4.63565950983676
C           -0.51650640512955        6.30643620769130        3.56237415464674
C           -6.01190123638995       -1.46021284247188        6.20119448707361
H            1.10018833245142        5.19283167874872        5.20190530170160
H           -2.73889565519290        4.81975324441938        3.45180037396861
H            3.41665915690421        0.99929380620260        6.49909979536757
H            1.27686471585375       -2.34453267845613        7.38006473721378
H           -3.53105800913985       -2.41236115034261        6.43411754527892
H           -5.70296026016469        1.24702302015317        6.78950670558343
O           -0.07102922517717        7.39751985928439        3.72582032717228
O           -0.90515888220757        5.92727496966094        2.27711298191448
C           -1.20686464326459        7.08178350955725        1.47897901727932
C            3.54240264496699       -1.56298910296314        6.57316875502780
O            3.43969991768128       -2.72145832561831        6.30539262664564
O            4.71001905976567       -0.95269675729145        6.50710315539918
C            5.61589216386676       -1.82034232595894        5.84545417079460
O           -7.16636558070307       -1.08190909212007        6.45256525176871
O           -5.63948907352383       -2.41139281183005        5.24835578183670
C           -6.56201295579807       -3.21626940060855        4.71496925395993
C           -4.39348368453426        2.62836333982004        8.94394696470209
C           -3.89521614778096        2.33729610508129        3.28600549904555
H           -6.07597447831684       -4.26600112751860        4.51881797962908
H           -7.21945453603162       -2.82154960214058        3.71035391699716
H           -7.36260312134124       -3.22060340943017        5.31239758083477
H            5.78151056791472       -2.86595971977514        6.31909447977353
H            6.65402526906281       -1.28487901328938        5.99049620879567
H            5.42073657501497       -2.25989474411309        4.76426240313676
H           -4.51184834605337        1.43236536327207        3.15697632036061
H           -2.85782759089709        2.29546402599310        2.74019088689322
H           -4.62461527613340        3.19457939219569        3.08620224948220
H           -4.14205865268660        3.23586488520951        9.89986970804579
H           -4.75493717159663        1.58630500524888        9.08902141450792
H           -4.79857415349199        3.52408038715277        8.11161777524630
H           -2.09963373603266        6.82708088177385        0.70583511609345
H           -0.55476923249331        7.45113969211760        0.62351202242804
H           -1.14642626098748        7.82203672523404        2.40982445892663
116
 energy: -22.523002837403 gnorm: 0.565708091973 xtb: 6.6.1 (8d0f1dd)
C           -2.70312791198655        0.04544351978691       -1.86309664327064
C           -2.40008052092892       -0.43584981113392       -0.64863001850125
C           -1.43522059383600        0.25569025601121        0.08345335018497
C           -0.64015147129318        1.31289635015183       -0.47128354655551
C           -1.17020440352599        1.82952126174220       -1.77799245691496
C           -2.10448062810914        1.07962825157092       -2.51717520693066
C           -1.20335029792420       -0.45045613606979        1.30684172276465
C            0.06429701981334       -0.25050145006691        1.79813651560431
C            0.79907455734231        0.87522434639040        1.18761999611617
N            0.44689594123936        1.55982259716089        0.14695210257694
C           -1.94132671474412       -1.51055845070185        2.05164938872920
C           -1.16493545706402       -2.52887870060959        2.85749164686662
N            0.01603265371763       -2.27382995614420        3.28560233006336
C            0.59820385181794       -1.14551553830510        2.79133348485230
C            1.98509513504767       -0.86644508424749        3.10844973415978
C            2.74775220959247        0.25579136818251        2.54890981140334
C            2.15757651910143        1.05970223095382        1.66897576155144
C           -3.28648986181285       -1.71205427751325        2.05794552050472
C           -3.76337234025444       -2.99071754224772        2.27062734137750
C           -3.03836902868791       -4.07194613045420        2.99065531944184
C           -1.70625051414127       -3.78161805546430        3.24019768444242
O           -4.01116200939817       -0.50570676242221        2.15105582025013
O           -2.99184642082619       -1.69639130475676       -0.57266638367198
C           -2.40827311816825        1.23714476999027       -3.98907928736158
C           -3.62596001519354       -5.44153455444686        3.22991566369913
H           -0.96604163291971        2.72079932161066       -2.40906601171237
H           -3.43534725884815       -0.48752893149067       -2.55757296548916
H            2.80725055529316        1.82826862611410        1.46786563028328
H            2.42180426124245       -1.47579960266099        3.95257274811545
H           -1.02857920498424       -4.35995328583553        3.80712373472624
H           -4.76089629037663       -3.31102469961558        2.03350634428466
O           -2.50439069150874        2.39230585336602       -4.37526798059720
O           -2.54844138025716        0.06194539270611       -4.70689063204248
C           -2.35156577200454        0.08476898867475       -6.15378679879144
C            4.08246863365340        0.91337283740797        2.78870484749079
O            5.03637948218264        0.14875433354675        2.91073509153144
O            4.44329705708749        2.32823328308713        2.66649366961440
C            5.81180954330952        2.38243925877895        2.88185480980740
O           -4.83730681647052       -5.44622147806470        3.49521566111427
O           -2.82788726636050       -6.57051079589495        3.25355760288300
C           -3.70368704541667       -7.61640568752603        3.39334655303048
C           -5.36559916398550       -0.57336395624875        2.05439472927178
C           -2.87096956040286       -2.78045980570090       -1.63882850184055
H           -4.35184977504214       -8.09711094758427        2.41008112935588
H           -4.57143222358607       -7.57419474839333        4.11367776131539
H           -3.31632701445850       -8.55364031495544        3.83571681253690
H            6.50827499653618        1.46072018202488        2.65265006330338
H            5.75922705669795        2.57970299844560        3.96649215849968
H            5.91706527900532        3.44835901054704        2.45796673008755
H           -3.76432528356523       -3.30630564627403       -1.50163117408760
H           -1.98690667638224       -3.25207779655897       -1.05144599286462
H           -2.87966885776618       -2.68158304877219       -2.73491656096961
H           -5.57911457898781       -1.63777309516334        2.48662329306288
H           -5.23646837924971       -0.71297548762883        0.98493576406744
H           -6.09012558378874        0.20248248130979        2.38586366738359
H           -1.41648990062716       -0.09977547526358       -6.34318343419088
H           -2.58067012827898        1.06441579354150       -6.53573243966533
H           -2.89655195798645       -0.79406829547946       -6.50219797801797
C           -2.21388472070252        5.10957668797693        5.11414350528668
C           -2.39772669558823        3.71462567219418        5.25609943950869
C           -1.19544878939689        2.87666642393475        5.59088349500798
C            0.12539223045606        3.48326342217653        5.55031252794692
C            0.19013196246175        4.83963832481368        5.28622573350529
C           -0.83383909647754        5.60653148359116        4.96658887473612
C           -1.08689756949590        1.52491325585747        5.97978652358003
C            0.15461646798565        0.92189709846290        5.85376277730767
C            1.40254628901251        1.58932865499822        5.74827499414500
N            1.37520845469864        2.90009343958819        5.69354667635888
C           -2.24906155795122        0.68418419690376        6.10656833470197
C           -2.19593869363460       -0.64811214059464        5.69237575886713
N           -1.04155008385899       -1.28142349187580        5.77581609131586
C            0.16844944078163       -0.52139383103625        5.82239797940217
C            1.46455841289107       -1.27802428424945        5.86635475849491
C            2.60861743267235       -0.52324040315817        6.19799328294633
C            2.63567869341135        0.90929443857669        5.80349006386847
C           -3.54484165468967        1.06164099748891        6.55742228614702
C           -4.64366404365135        0.27515328544230        6.51897192767293
C           -4.57868331314777       -0.99427602924250        6.06663252456931
C           -3.34199480492769       -1.53875059001826        5.83290654438404
O           -3.72493726903617        2.20907695932085        7.57127099885347
O           -3.68222226862373        3.26253098429595        5.00731693538960
C           -0.77762374130169        7.11107331248649        4.52461731784878
C           -5.67115864202782       -2.09965267734975        6.00971189423370
H            1.17185919874363        5.18260589095133        5.00288744078118
H           -2.94759823642983        5.88479984850937        4.73089398246287
H            3.33405204536527        1.54682871253839        6.46969429905696
H            1.40714564823320       -2.29430296990628        6.43826521836289
H           -3.45575518247450       -2.64235355187196        5.75894637007565
H           -5.59442328278518        0.60620660922712        6.81742464728281
O           -1.48607755948591        7.52882150311003        3.62305874576064
O            0.16709504726421        7.82881914795695        5.16647062806299
C            0.13495048350173        9.36189990516008        4.94549518582254
C            3.72013131601904       -1.17110359978757        6.74978477393063
O            3.52210857820018       -2.26532469905623        7.21377840098273
O            4.96550790832227       -0.57144483272797        6.67688228760354
C            5.64103763187754       -0.98062287986129        7.91163685558387
O           -6.86464963600205       -1.94586195205045        6.28895349757346
O           -5.16188020953337       -3.35556363194161        6.00775447250197
C           -5.91444782030719       -4.40193939748074        5.63587982372123
C           -4.10495716302833        1.87959277094743        8.85403142009730
C           -3.76041545475454        2.90100478770986        3.72470893065493
H           -6.80024368437668       -4.81265321815747        6.47446197323837
H           -5.24227137391038       -5.15331536212132        5.49849587814142
H           -6.45676631460492       -4.34286355888003        4.70239985728964
H            5.28206110954409       -2.06725608144975        7.85120830008438
H            5.15354791474455       -0.35638583689648        8.62318376604117
H            6.72675641886731       -0.69682471361167        7.90696380193519
H           -2.68801125034670        2.66402378306887        3.32917663534352
H           -3.98982778612700        3.74825382872078        3.03346315878712
H           -4.34872648097507        2.03816686108343        3.53896023631863
H           -4.20879197265584        0.79478600764009        9.25493076947092
H           -5.05748588815695        2.24872925806029        9.05461488461156
H           -3.28206527118276        2.36661564527376        9.48186984275174
H            1.16985714184581        9.72483817302662        5.04712180516821
H           -0.73332002203450        9.82856972927178        5.46932110633821
H           -0.23050073052372        9.37845393618912        3.92483154292740
116
 energy: -22.524483675708 gnorm: 0.587815512879 xtb: 6.6.1 (8d0f1dd)
C           -2.77796009421073       -0.51409382605344       -2.45732739782472
C           -2.61538100729767       -1.08893423526131       -1.22152622165818
C           -2.02603148984719       -0.20394509599073       -0.19683978044122
C           -1.40661689819931        1.02995583672867       -0.77818372863519
C           -1.48278834220136        1.54979921293712       -2.07667852724430
C           -2.25864611987475        0.72128991224458       -2.87944598007417
C           -1.77923609383345       -0.74246804036696        1.09861557674908
C           -0.52682843547388       -0.24869174718540        1.63426393691202
C           -0.07917942897836        1.07675310961128        1.26873447179724
N           -0.49364633956268        1.72437656681216        0.11483205646726
C           -2.27245347820629       -1.88975281248575        1.64569832597713
C           -1.40289293319949       -2.48810498515488        2.67533586969564
N           -0.23742188750735       -1.94214050244302        3.21313496319172
C            0.23202168714493       -0.73116903603832        2.63561527256244
C            1.41815752150782       -0.15752540369061        3.20544009964029
C            2.04717626211995        0.87919335881157        2.58937276918781
C            1.26104710892068        1.51058374585208        1.61823204783357
C           -3.74790161665959       -2.28151556382789        1.54477600245047
C           -4.13559351083133       -3.35653299606610        2.43338097657805
C           -3.22435068439773       -4.05889587273159        3.17892792213382
C           -1.81882436275658       -3.62535258301918        3.43405948338119
O           -4.55556474540488       -1.41922257764852        0.80237427921635
O           -3.30528159606922       -2.31392500965332       -1.18980877168672
C           -2.78468596919928        1.29350401879428       -4.21980306771053
C           -3.60533526814757       -5.22243452872759        4.04239608022602
H           -0.92943199372695        2.40182798271299       -2.40273084840337
H           -3.38347064425874       -0.96317159263668       -3.19254423386760
H            1.80252062173187        2.28532371117846        1.18747509188042
H            2.03884057406678       -0.57994405702293        3.99056588179029
H           -1.05517589766572       -4.24104996953438        4.03609202557922
H           -5.06895063794147       -3.81774055723666        2.36471973982467
O           -2.67291884695828        2.45006660328813       -4.59043153249231