Optimization of monomers started
      -----------------------------------------------------------      
     |                   =====================                   |     
     |                           x T B                           |     
     |                   =====================                   |     
     |                         S. Grimme                         |     
     |          Mulliken Center for Theoretical Chemistry        |     
     |                    University of Bonn                     |     
      -----------------------------------------------------------      

   * xtb version 6.7.1 (edcfbbe) compiled by 'runner@Mac-1732539442253.local' on 2024-11-25

   xtb is free software: you can redistribute it and/or modify it under
   the terms of the GNU Lesser General Public License as published by
   the Free Software Foundation, either version 3 of the License, or
   (at your option) any later version.
   
   xtb is distributed in the hope that it will be useful,
   but WITHOUT ANY WARRANTY; without even the implied warranty of
   MERCHANTABILITY or FITNESS FOR A PARTICULAR PURPOSE.  See the
   GNU Lesser General Public License for more details.
   
   Cite this work as:
   * C. Bannwarth, E. Caldeweyher, S. Ehlert, A. Hansen, P. Pracht,
     J. Seibert, S. Spicher, S. Grimme, WIREs Comput. Mol. Sci., 2020, 11,
     e01493. DOI: 10.1002/wcms.1493
   
   for GFN2-xTB:
   * C. Bannwarth, S. Ehlert and S. Grimme., J. Chem. Theory Comput., 2019,
     15, 1652-1671. DOI: 10.1021/acs.jctc.8b01176
   for GFN1-xTB:
   * S. Grimme, C. Bannwarth, P. Shushkov, J. Chem. Theory Comput., 2017,
     13, 1989-2009. DOI: 10.1021/acs.jctc.7b00118
   for GFN0-xTB:
   * P. Pracht, E. Caldeweyher, S. Ehlert, S. Grimme, ChemRxiv, 2019, preprint.
     DOI: 10.26434/chemrxiv.8326202.v1
   for GFN-FF:
   * S. Spicher and S. Grimme, Angew. Chem. Int. Ed., 2020, 59, 15665-15673.
     DOI: 10.1002/anie.202004239
   
   for ALPB and GBSA implicit solvation:
   * S. Ehlert, M. Stahn, S. Spicher, S. Grimme, J. Chem. Theory Comput.,
     2021, 17, 4250-4261. DOI: 10.1021/acs.jctc.1c00471
   
   for ddCOSMO and CPCM-X implicit solvation:
   * M. Stahn, S. Ehlert, S. Grimme, J. Phys. Chem. A,
     2023, XX, XXXX-XXXX. DOI: 10.1021/acs.jpca.3c04382
   
   for DFT-D4:
   * E. Caldeweyher, C. Bannwarth and S. Grimme, J. Chem. Phys., 2017,
     147, 034112. DOI: 10.1063/1.4993215
   * E. Caldeweyher, S. Ehlert, A. Hansen, H. Neugebauer, S. Spicher,
     C. Bannwarth and S. Grimme, J. Chem. Phys., 2019, 150, 154122.
     DOI: 10.1063/1.5090222
   * E. Caldeweyher, J.-M. Mewes, S. Ehlert and S. Grimme, Phys. Chem. Chem. Phys.
     2020, 22, 8499-8512. DOI: 10.1039/D0CP00502A
   
   for sTDA-xTB:
   * S. Grimme and C. Bannwarth, J. Chem. Phys., 2016, 145, 054103.
     DOI: 10.1063/1.4959605
   
   in the mass-spec context:
   * V. Asgeirsson, C. Bauer and S. Grimme, Chem. Sci., 2017, 8, 4879.
     DOI: 10.1039/c7sc00601b
   * J. Koopman and S. Grimme, ACS Omega 2019, 4, 12, 15120-15133.
     DOI: 10.1021/acsomega.9b02011
   
   for metadynamics refer to:
   * S. Grimme, J. Chem. Theory Comput., 2019, 155, 2847-2862
     DOI: 10.1021/acs.jctc.9b00143
   
   for SPH calculations refer to:
   * S. Spicher and S. Grimme, J. Chem. Theory Comput., 2021, 17, 1701-1714
     DOI: 10.1021/acs.jctc.0c01306
   
   for ONIOM refer to:
   * C. Plett, A. Katbashev, S. Ehlert, S. Grimme, M. Bursch,
     Phys. Chem. Chem. Phys., 2023, 25, 17860-17868. DOI: 10.1039/D3CP02178E
   
   for DIPRO refer to:
   * J. Kohn, N. Gildemeister, S. Grimme, D. Fazzi, A. Hansen,
     J. Chem. Phys., 2023, just accepted.
   
   for PTB refer to:
   * S. Grimme, M. Mueller, A. Hansen, J. Chem. Phys., 2023, 158, 124111.
     DOI: 10.1063/5.0137838
   
   with help from (in alphabetical order)
   P. Atkinson, C. Bannwarth, F. Bohle, G. Brandenburg, E. Caldeweyher
   M. Checinski, S. Dohm, S. Ehlert, S. Ehrlich, I. Gerasimov, C. Hölzer
   A. Katbashev, J. Kohn, J. Koopman, C. Lavigne, S. Lehtola, F. März, M. Müller,
   F. Musil, H. Neugebauer, J. Pisarek, C. Plett, P. Pracht, F. Pultar,
   J. Seibert, P. Shushkov, S. Spicher, M. Stahn, M. Steiner, T. Strunk,
   J. Stückrath, T. Rose, and J. Unsleber
   
 * started run on 2025/03/11 at 12:43:27.789     
   ID    Z sym.   atoms
    1    6 C      1-9, 11, 12, 14-21, 23-34, 36, 37, 39-46, 48-50, 54, 56,
                  60, 63, 66, 69, 71, 72, 74, 75
    2    7 N      10, 13, 35, 38, 70, 73
    3    8 O      22, 47, 52, 53, 55, 57-59, 61, 62, 64, 65, 67, 68
    4    5 B      51
    5    1 H      76-115

           -------------------------------------------------
          |                Calculation Setup                |
           -------------------------------------------------

          program call               : xtb Base2CO2Me.mol --opt --iterations 2000 --chrg 0 --uhf 1 --gfn 2
          coordinate file            : Base2CO2Me.mol
          omp threads                :                     8


molecular fragmentation (1/2 indicates fragments):
111111111111111111111111111111111111111111111111111111111111111111111111
1111111111111111111111111111111111111112111
# atoms in fragment 1/2:   114     1
 fragment masses (1/2) :     1006.73        1.01
CMA distance (Bohr)    :   7.719
constraining FC (au)   :  0.0500
########################################################################
[WARNING] Please study the warnings concerning your input carefully
-1- prog_main: Charge in sdf/mol input was overwritten
########################################################################

           -------------------------------------------------
          |                 G F N 2 - x T B                 |
           -------------------------------------------------

        Reference                      10.1021/acs.jctc.8b01176
      * Hamiltonian:
        H0-scaling (s, p, d)           1.850000    2.230000    2.230000
        zeta-weighting                 0.500000
      * Dispersion:
        s8                             2.700000
        a1                             0.520000
        a2                             5.000000
        s9                             5.000000
      * Repulsion:
        kExp                           1.500000    1.000000
        rExp                           1.000000
      * Coulomb:
        alpha                          2.000000
        third order                    shell-resolved
        anisotropic                    true
        a3                             3.000000
        a5                             4.000000
        cn-shift                       1.200000
        cn-exp                         4.000000
        max-rad                        5.000000


          ...................................................
          :                      SETUP                      :
          :.................................................:
          :  # basis functions                 340          :
          :  # atomic orbitals                 340          :
          :  # shells                          190          :
          :  # electrons                       373          :
          :  max. iterations                  2000          :
          :  Hamiltonian                  GFN2-xTB          :
          :  restarted?                      false          :
          :  GBSA solvation                  false          :
          :  PC potential                    false          :
          :  electronic temp.          300.0000000     K    :
          :  accuracy                    1.0000000          :
          :  -> integral cutoff          0.2500000E+02      :
          :  -> integral neglect         0.1000000E-07      :
          :  -> SCF convergence          0.1000000E-05 Eh   :
          :  -> wf. convergence          0.1000000E-03 e    :
          :  Broyden damping             0.4000000          :
          :  net charge                          0          :
          :  unpaired electrons                  1          :
          ...................................................

 iter      E             dE          RMSdq      gap      omega  full diag
   1   -213.6119606 -0.213612E+03  0.531E+00    0.04       0.0  T
   2   -213.4819567  0.130004E+00  0.325E+00    0.46       1.0  T
   3   -210.7491458  0.273281E+01  0.332E+00    0.56       1.0  T
   4   -207.0748771  0.367427E+01  0.384E+00    0.05       1.0  T
   5   -213.2463962 -0.617152E+01  0.221E+00    0.30       1.0  T
   6   -213.8687474 -0.622351E+00  0.133E+00    0.36       1.0  T
   7   -213.7386577  0.130090E+00  0.129E+00    0.27       1.0  T
   8   -213.9287236 -0.190066E+00  0.878E-01    0.31       1.0  T
   9   -214.0121673 -0.834437E-01  0.688E-01    0.09       1.0  T
  10   -213.9979096  0.142577E-01  0.563E-01    0.15       1.0  T
  11   -213.8957725  0.102137E+00  0.842E-01    0.01       1.0  T
  12   -214.0234237 -0.127651E+00  0.533E-01    0.08       1.0  T
  13   -214.0542706 -0.308470E-01  0.386E-01    0.04       1.0  T
  14   -214.0717447 -0.174741E-01  0.214E-01    0.05       1.0  T
  15   -214.0129007  0.588440E-01  0.582E-01    0.06       1.0  T
  16   -214.0827589 -0.698581E-01  0.701E-02    0.04       1.0  T
  17   -214.0807195  0.203935E-02  0.102E-01    0.04       1.0  T
  18   -214.0829923 -0.227276E-02  0.455E-02    0.03       1.0  T
  19   -214.0834090 -0.416712E-03  0.255E-02    0.04       1.0  T
  20   -214.0835505 -0.141497E-03  0.515E-03    0.04       1.8  T
  21   -214.0835235  0.269726E-04  0.107E-02    0.04       1.0  T
  22   -214.0835546 -0.311207E-04  0.267E-03    0.04       3.5  T
  23   -214.0835499  0.477648E-05  0.515E-03    0.04       1.8  T
  24   -214.0835560 -0.610608E-05  0.717E-04    0.04      13.0  T
  25   -214.0835560 -0.447379E-07  0.754E-04    0.04      12.4  T
  26   -214.0835561 -0.909730E-07  0.344E-04    0.04      27.1  T

   *** convergence criteria satisfied after 26 iterations ***

         #    Occupation            Energy/Eh            Energy/eV
      -------------------------------------------------------------
         1        2.0000           -0.7653899             -20.8273
       ...           ...                  ...                  ...
       181        2.0000           -0.4018008             -10.9336
       182        2.0000           -0.3985650             -10.8455
       183        1.9998           -0.3843784             -10.4595
       184        1.9995           -0.3834381             -10.4339
       185        1.9829           -0.3799722             -10.3396
       186        1.5179           -0.3764164             -10.2428
       187        1.0193           -0.3751794             -10.2092 (HOMO)
       188        0.4806           -0.3738499             -10.1730 (LUMO)
       189                         -0.3236431              -8.8068
       190                         -0.3210214              -8.7354
       191                         -0.3117435              -8.4830
       192                         -0.3091727              -8.4130
       ...                                ...                  ...
       340                          4.7846764             130.1977
      -------------------------------------------------------------
                  HL-Gap            0.0013295 Eh            0.0362 eV
             Fermi-level           -0.3751353 Eh          -10.2080 eV

 SCC (total)                   0 d,  0 h,  0 min,  1.955 sec
 SCC setup                      ...        0 min,  0.001 sec (  0.053%)
 Dispersion                     ...        0 min,  0.003 sec (  0.156%)
 classical contributions        ...        0 min,  0.001 sec (  0.043%)
 integral evaluation            ...        0 min,  0.015 sec (  0.769%)
 iterations                     ...        0 min,  1.886 sec ( 96.511%)
 molecular gradient             ...        0 min,  0.041 sec (  2.113%)
 printout                       ...        0 min,  0.007 sec (  0.355%)

         :::::::::::::::::::::::::::::::::::::::::::::::::::::
         ::                     SUMMARY                     ::
         :::::::::::::::::::::::::::::::::::::::::::::::::::::
         :: total energy            -209.104664220463 Eh    ::
         :: gradient norm              5.289507709923 Eh/a0 ::
         :: HOMO-LUMO gap              0.036178707675 eV    ::
         ::.................................................::
         :: SCC energy              -214.079520735860 Eh    ::
         :: -> isotropic ES            0.388026093426 Eh    ::
         :: -> anisotropic ES          0.012509475169 Eh    ::
         :: -> anisotropic XC          0.070966598055 Eh    ::
         :: -> dispersion             -0.173531070862 Eh    ::
         :: repulsion energy           4.974856515396 Eh    ::
         :: add. restraining           0.000000000000 Eh    ::
         :: total charge               0.000000000000 e     ::
         :::::::::::::::::::::::::::::::::::::::::::::::::::::

      ----------------------------------------------------------- 
     |                   =====================                   |
     |                        A N C O P T                        |
     |                   =====================                   |
     |               Approximate Normal Coordinate               |
     |                Rational Function Optimizer                |
      ----------------------------------------------------------- 
      ----------------------------------------------------------- 
     |                   =====================                   |
     |                        A N C O P T                        |
     |                   =====================                   |
     |               Approximate Normal Coordinate               |
     |                Rational Function Optimizer                |
      ----------------------------------------------------------- 

          ...................................................
          :                      SETUP                      :
          :.................................................:
          :   optimization level            normal          :
          :   max. optcycles                   345          :
          :   ANC micro-cycles                  20          :
          :   degrees of freedom               339          :
          :.................................................:
          :   RF solver                   davidson          :
          :   write xtbopt.log                true          :
          :   linear?                        false          :
          :   energy convergence         0.5000000E-05 Eh   :
          :   grad. convergence          0.1000000E-02 Eh/α :
          :   maxmium RF displ.          1.0000000          :
          :   Hlow (freq-cutoff)         0.1000000E-01      :
          :   Hmax (freq-cutoff)         5.0000000          :
          :   S6 in model hess.         20.0000000          :
          ...................................................

generating ANC from exact Hessian ...
Using Lindh-Hessian (1995)
 Shifting diagonal of input Hessian by    9.9632819011645016E-003
 Lowest  eigenvalues of input Hessian
    0.000000    0.000000    0.000000    0.000000    0.000000    0.000000
    0.010000    0.010007    0.010099    0.010131    0.010189    0.010323
    0.010407    0.010528    0.010593    0.010749    0.010792    0.010946
 Highest eigenvalues
    3.381068    3.757807    3.933868    4.002226    4.910103    7.669671


........................................................................
.............................. CYCLE    1 ..............................
........................................................................

 iter      E             dE          RMSdq      gap      omega  full diag
   1   -214.0835561 -0.214084E+03  0.370E-04    0.04       0.0  T
   2   -214.0835468  0.928833E-05  0.602E-03    0.04       1.5  T
   3   -214.0835558 -0.902658E-05  0.990E-04    0.04       9.4  T
   4   -214.0835561 -0.272947E-06  0.263E-04    0.04      35.5  T
   5   -214.0835561  0.738865E-08  0.294E-04    0.04      31.7  T
     SCC iter.                  ...        0 min,  0.294 sec
     gradient                   ...        0 min,  0.043 sec
 * total energy  :  -209.1046642 Eh     change        0.5006086E-08 Eh
   gradient norm :     5.2895095 Eh/α   predicted     0.0000000E+00 (-100.00%)
   displ. norm   :     0.7811057 α      lambda       -0.4046058E+01
   maximum displ.:     0.4146387 α      in ANC's #307, #284, #339, ...

........................................................................
.............................. CYCLE    2 ..............................
........................................................................

 iter      E             dE          RMSdq      gap      omega  full diag
   1   -213.7770275 -0.213777E+03  0.120E+00    0.21       0.0  T
   2   -213.1779895  0.599038E+00  0.171E+00    0.33       1.0  T
   3   -213.4360262 -0.258037E+00  0.146E+00    0.31       1.0  T
   4   -213.6528517 -0.216825E+00  0.144E+00    0.24       1.0  T
   5   -213.9756549 -0.322803E+00  0.776E-01    0.03       1.0  T
   6   -214.0203676 -0.447126E-01  0.555E-01    0.03       1.0  T
   7   -214.0651991 -0.448315E-01  0.325E-01    0.03       1.0  T
   8   -213.8631213  0.202078E+00  0.964E-01    0.08       1.0  T
   9   -214.0565719 -0.193451E+00  0.340E-01    0.03       1.0  T
  10   -214.0731613 -0.165894E-01  0.191E-01    0.04       1.0  T
  11   -214.0729927  0.168637E-03  0.191E-01    0.04       1.0  T
  12   -214.0734993 -0.506647E-03  0.178E-01    0.04       1.0  T
  13   -214.0807585 -0.725916E-02  0.383E-02    0.04       1.0  T
  14   -214.0809079 -0.149425E-03  0.273E-02    0.05       1.0  T
  15   -214.0808810  0.268697E-04  0.252E-02    0.05       1.0  T
  16   -214.0810664 -0.185333E-03  0.118E-02    0.04       1.0  T
  17   -214.0810983 -0.319312E-04  0.551E-03    0.05       1.7  T
  18   -214.0811023 -0.399256E-05  0.417E-03    0.05       2.2  T
  19   -214.0811056 -0.327872E-05  0.158E-03    0.04       5.9  T
  20   -214.0811060 -0.482106E-06  0.565E-04    0.05      16.5  T
  21   -214.0811061 -0.826414E-07  0.257E-04    0.05      36.2  T
     SCC iter.                  ...        0 min,  1.284 sec
     gradient                   ...        0 min,  0.041 sec
 * total energy  :  -210.9459717 Eh     change       -0.1841308E+01 Eh
   gradient norm :     1.1361323 Eh/α   predicted    -0.3257332E+01 (  76.90%)
   displ. norm   :     0.5857469 α      lambda       -0.5566718E+00
   maximum displ.:     0.1837630 α      in ANC's #261, #284, #231, ...

........................................................................
.............................. CYCLE    3 ..............................
........................................................................

 iter      E             dE          RMSdq      gap      omega  full diag
   1   -214.1288132 -0.214129E+03  0.383E-01    0.05       0.0  T
   2   -213.9965185  0.132295E+00  0.717E-01    0.16       1.0  T
   3   -213.8830917  0.113427E+00  0.987E-01    0.08       1.0  T
   4   -214.0421097 -0.159018E+00  0.671E-01    0.09       1.0  T
   5   -214.0988771 -0.567674E-01  0.405E-01    0.05       1.0  T
   6   -214.0293893  0.694878E-01  0.667E-01    0.13       1.0  T
   7   -214.1079942 -0.786049E-01  0.351E-01    0.04       1.0  T
   8   -214.1264598 -0.184656E-01  0.236E-01    0.05       1.0  T
   9   -214.1383170 -0.118571E-01  0.611E-02    0.05       1.0  T
  10   -214.1386175 -0.300533E-03  0.448E-02    0.05       1.0  T
  11   -214.1386115  0.601544E-05  0.375E-02    0.05       1.0  T
  12   -214.1388082 -0.196720E-03  0.280E-02    0.05       1.0  T
  13   -214.1389694 -0.161167E-03  0.785E-03    0.05       1.2  T
  14   -214.1389805 -0.110823E-04  0.468E-03    0.05       2.0  T
  15   -214.1389842 -0.374535E-05  0.332E-03    0.05       2.8  T
  16   -214.1389864 -0.217441E-05  0.150E-03    0.05       6.2  T
  17   -214.1389868 -0.451845E-06  0.418E-04    0.05      22.3  T
  18   -214.1389869 -0.370056E-07  0.271E-04    0.05      34.4  T
     SCC iter.                  ...        0 min,  1.032 sec
     gradient                   ...        0 min,  0.040 sec
 * total energy  :  -211.3474191 Eh     change       -0.4014474E+00 Eh
   gradient norm :     0.5823894 Eh/α   predicted    -0.3738332E+00 (  -6.88%)
   displ. norm   :     0.6154492 α      lambda       -0.2766460E+00
   maximum displ.:     0.1368864 α      in ANC's #195, #240, #196, ...

........................................................................
.............................. CYCLE    4 ..............................
........................................................................

 iter      E             dE          RMSdq      gap      omega  full diag
   1   -214.2350618 -0.214235E+03  0.368E-01    0.05       0.0  T
   2   -213.8848103  0.350251E+00  0.979E-01    0.26       1.0  T
   3   -214.0454631 -0.160653E+00  0.801E-01    0.12       1.0  T
   4   -214.0920874 -0.466244E-01  0.840E-01    0.13       1.0  T
   5   -214.1547481 -0.626607E-01  0.546E-01    0.15       1.0  T
   6   -214.0914219  0.633262E-01  0.781E-01    0.10       1.0  T
   7   -214.2304370 -0.139015E+00  0.224E-01    0.05       1.0  T
   8   -214.2368257 -0.638869E-02  0.174E-01    0.05       1.0  T
   9   -214.2406563 -0.383061E-02  0.108E-01    0.05       1.0  T
  10   -214.2416229 -0.966563E-03  0.542E-02    0.05       1.0  T
  11   -214.2416886 -0.657459E-04  0.504E-02    0.05       1.0  T
  12   -214.2420750 -0.386347E-03  0.140E-02    0.05       1.0  T
  13   -214.2420852 -0.101814E-04  0.825E-03    0.05       1.1  T
  14   -214.2420977 -0.125050E-04  0.268E-03    0.05       3.5  T
  15   -214.2420967  0.988293E-06  0.292E-03    0.05       3.2  T
  16   -214.2420985 -0.182290E-05  0.114E-03    0.05       8.2  T
  17   -214.2420988 -0.264618E-06  0.261E-04    0.05      35.7  T
  18   -214.2420987  0.365918E-07  0.434E-04    0.05      21.5  T
     SCC iter.                  ...        0 min,  1.112 sec
     gradient                   ...        0 min,  0.038 sec
 * total energy  :  -211.5638842 Eh     change       -0.2164651E+00 Eh
   gradient norm :     0.3381096 Eh/α   predicted    -0.1907167E+00 ( -11.89%)
   displ. norm   :     0.6376378 α      lambda       -0.1604579E+00
   maximum displ.:     0.1382374 α      in ANC's #95, #195, #240, ...

........................................................................
.............................. CYCLE    5 ..............................
........................................................................

 iter      E             dE          RMSdq      gap      omega  full diag
   1   -214.3274158 -0.214327E+03  0.349E-01    0.05       0.0  T
   2   -214.0019235  0.325492E+00  0.938E-01    0.27       1.0  T
   3   -214.1624860 -0.160563E+00  0.726E-01    0.16       1.0  T
   4   -214.1638575 -0.137141E-02  0.859E-01    0.14       1.0  T
   5   -214.2792015 -0.115344E+00  0.439E-01    0.11       1.0  T
   6   -214.1854391  0.937625E-01  0.786E-01    0.14       1.0  T
   7   -214.3207890 -0.135350E+00  0.210E-01    0.05       1.0  T
   8   -214.3302428 -0.945376E-02  0.136E-01    0.05       1.0  T
   9   -214.3318996 -0.165678E-02  0.104E-01    0.05       1.0  T
  10   -214.3326170 -0.717425E-03  0.615E-02    0.05       1.0  T
  11   -214.3325098  0.107225E-03  0.530E-02    0.05       1.0  T
  12   -214.3331323 -0.622556E-03  0.137E-02    0.05       1.0  T
  13   -214.3331302  0.212858E-05  0.110E-02    0.05       1.0  T
  14   -214.3331475 -0.173471E-04  0.100E-02    0.05       1.0  T
  15   -214.3331621 -0.145827E-04  0.282E-03    0.05       3.3  T
  16   -214.3331634 -0.126824E-05  0.156E-03    0.05       6.0  T
  17   -214.3331640 -0.611906E-06  0.404E-04    0.05      23.1  T
  18   -214.3331640  0.504801E-08  0.339E-04    0.05      27.5  T
     SCC iter.                  ...        0 min,  1.016 sec
     gradient                   ...        0 min,  0.049 sec
 * total energy  :  -211.6821382 Eh     change       -0.1182540E+00 Eh
   gradient norm :     0.1928229 Eh/α   predicted    -0.1128485E+00 (  -4.57%)
   displ. norm   :     0.6430860 α      lambda       -0.7981077E-01
   maximum displ.:     0.1598434 α      in ANC's #66, #95, #64, ...

........................................................................
.............................. CYCLE    6 ..............................
........................................................................

 iter      E             dE          RMSdq      gap      omega  full diag
   1   -214.3923938 -0.214392E+03  0.295E-01    0.05       0.0  T
   2   -214.3444776  0.479161E-01  0.438E-01    0.05       1.0  T
   3   -214.2466026  0.978751E-01  0.754E-01    0.01       1.0  T
   4   -214.3801693 -0.133567E+00  0.278E-01    0.04       1.0  T
   5   -214.3728821  0.728726E-02  0.284E-01    0.06       1.0  T
   6   -214.3837449 -0.108629E-01  0.181E-01    0.05       1.0  T
   7   -214.3733106  0.104343E-01  0.259E-01    0.09       1.0  T
   8   -214.3927862 -0.194756E-01  0.732E-02    0.05       1.0  T
   9   -214.3937687 -0.982510E-03  0.343E-02    0.05       1.0  T
  10   -214.3940539 -0.285207E-03  0.111E-02    0.05       1.0  T
  11   -214.3940633 -0.936912E-05  0.708E-03    0.05       1.3  T
  12   -214.3940792 -0.158716E-04  0.132E-03    0.05       7.1  T
  13   -214.3940792 -0.259855E-07  0.113E-03    0.05       8.3  T
  14   -214.3940795 -0.276579E-06  0.389E-04    0.05      24.0  T
  15   -214.3940795 -0.260555E-07  0.142E-04    0.05      65.5  T
     SCC iter.                  ...        0 min,  1.109 sec
     gradient                   ...        0 min,  0.042 sec
 * total energy  :  -211.7414237 Eh     change       -0.5928547E-01 Eh
   gradient norm :     0.1392000 Eh/α   predicted    -0.5640868E-01 (  -4.85%)
   displ. norm   :     0.6524318 α      lambda       -0.4946499E-01
   maximum displ.:     0.1502837 α      in ANC's #64, #95, #66, ...

........................................................................
.............................. CYCLE    7 ..............................
........................................................................

 iter      E             dE          RMSdq      gap      omega  full diag
   1   -214.4530428 -0.214453E+03  0.259E-01    0.05       0.0  T
   2   -214.4352121  0.178307E-01  0.283E-01    0.09       1.0  T
   3   -214.3083169  0.126895E+00  0.707E-01    0.17       1.0  T
   4   -214.3885417 -0.802248E-01  0.501E-01    0.08       1.0  T
   5   -214.4170906 -0.285489E-01  0.338E-01    0.09       1.0  T
   6   -214.4366840 -0.195935E-01  0.258E-01    0.05       1.0  T
   7   -214.4525178 -0.158338E-01  0.624E-02    0.05       1.0  T
   8   -214.4532006 -0.682788E-03  0.375E-02    0.05       1.0  T
   9   -214.4535340 -0.333358E-03  0.129E-02    0.05       1.0  T
  10   -214.4535211  0.128787E-04  0.135E-02    0.05       1.0  T
  11   -214.4535517 -0.306651E-04  0.725E-03    0.05       1.3  T
  12   -214.4535647 -0.129812E-04  0.301E-03    0.05       3.1  T
  13   -214.4535672 -0.251747E-05  0.135E-03    0.05       6.9  T
  14   -214.4535678 -0.515199E-06  0.528E-04    0.05      17.7  T
  15   -214.4535678 -0.792461E-07  0.270E-04    0.05      34.6  T
     SCC iter.                  ...        0 min,  1.014 sec
     gradient                   ...        0 min,  0.041 sec
 * total energy  :  -211.7762110 Eh     change       -0.3478738E-01 Eh
   gradient norm :     0.1203787 Eh/α   predicted    -0.3526038E-01 (   1.36%)
   displ. norm   :     0.6963842 α      lambda       -0.3944361E-01
   maximum displ.:     0.2133010 α      in ANC's #66, #64, #73, ...

........................................................................
.............................. CYCLE    8 ..............................
........................................................................

 iter      E             dE          RMSdq      gap      omega  full diag
   1   -214.4806354 -0.214481E+03  0.287E-01    0.05       0.0  T
   2   -214.4169191  0.637163E-01  0.504E-01    0.15       1.0  T
   3   -214.3895602  0.273589E-01  0.545E-01    0.17       1.0  T
   4   -214.3502105  0.393497E-01  0.705E-01    0.06       1.0  T
   5   -214.4479471 -0.977367E-01  0.376E-01    0.05       1.0  T
   6   -214.4717656 -0.238185E-01  0.209E-01    0.04       1.0  T
   7   -214.4769647 -0.519904E-02  0.155E-01    0.05       1.0  T
   8   -214.4813369 -0.437223E-02  0.710E-02    0.05       1.0  T
   9   -214.4825650 -0.122809E-02  0.180E-02    0.05       1.0  T
  10   -214.4825783 -0.132601E-04  0.138E-02    0.05       1.0  T
  11   -214.4825880 -0.969430E-05  0.107E-02    0.05       1.0  T
  12   -214.4826121 -0.241106E-04  0.381E-03    0.05       2.4  T
  13   -214.4826160 -0.388988E-05  0.149E-03    0.05       6.3  T
  14   -214.4826163 -0.350988E-06  0.824E-04    0.05      11.3  T
  15   -214.4826164 -0.135427E-06  0.275E-04    0.05      33.9  T
     SCC iter.                  ...        0 min,  0.756 sec
     gradient                   ...        0 min,  0.047 sec
 * total energy  :  -211.8006858 Eh     change       -0.2447477E-01 Eh
   gradient norm :     0.0935383 Eh/α   predicted    -0.2928592E-01 (  19.66%)
   displ. norm   :     0.6038027 α      lambda       -0.2333122E-01
   maximum displ.:     0.1561405 α      in ANC's #59, #64, #23, ...

........................................................................
.............................. CYCLE    9 ..............................
........................................................................

 iter      E             dE          RMSdq      gap      omega  full diag
   1   -214.5202010 -0.214520E+03  0.225E-01    0.05       0.0  T
   2   -214.4037142  0.116487E+00  0.675E-01    0.04       1.0  T
   3   -214.5049427 -0.101229E+00  0.272E-01    0.05       1.0  T
   4   -214.4677734  0.371693E-01  0.414E-01    0.09       1.0  T
   5   -214.5043020 -0.365286E-01  0.227E-01    0.07       1.0  T
   6   -214.5067203 -0.241828E-02  0.231E-01    0.09       1.0  T
   7   -214.5199563 -0.132360E-01  0.784E-02    0.05       1.0  T
   8   -214.5212130 -0.125667E-02  0.355E-02    0.05       1.0  T
   9   -214.5215023 -0.289280E-03  0.117E-02    0.05       1.0  T
  10   -214.5215260 -0.237729E-04  0.463E-03    0.05       2.0  T
  11   -214.5215288 -0.279345E-05  0.258E-03    0.05       3.6  T
  12   -214.5215307 -0.189136E-05  0.811E-04    0.05      11.5  T
  13   -214.5215308 -0.128692E-06  0.280E-04    0.05      33.2  T
  14   -214.5215308  0.104225E-07  0.280E-04    0.05      33.3  T
     SCC iter.                  ...        0 min,  0.959 sec
     gradient                   ...        0 min,  0.042 sec
 * total energy  :  -211.8190943 Eh     change       -0.1840844E-01 Eh
   gradient norm :     0.0699154 Eh/α   predicted    -0.1591863E-01 ( -13.53%)
   displ. norm   :     0.6436347 α      lambda       -0.1884783E-01
   maximum displ.:     0.1840321 α      in ANC's #32, #23, #64, ...

........................................................................
.............................. CYCLE   10 ..............................
........................................................................

 iter      E             dE          RMSdq      gap      omega  full diag
   1   -214.5665796 -0.214567E+03  0.217E-01    0.05       0.0  T
   2   -214.4289061  0.137673E+00  0.725E-01    0.05       1.0  T
   3   -214.5558587 -0.126953E+00  0.233E-01    0.05       1.0  T
   4   -214.4973810  0.584777E-01  0.490E-01    0.18       1.0  T
   5   -214.5649737 -0.675927E-01  0.108E-01    0.05       1.0  T
   6   -214.5529310  0.120427E-01  0.231E-01    0.06       1.0  T
   7   -214.5650930 -0.121620E-01  0.114E-01    0.05       1.0  T
   8   -214.5677693 -0.267623E-02  0.392E-02    0.05       1.0  T
   9   -214.5680683 -0.299057E-03  0.167E-02    0.05       1.0  T
  10   -214.5680886 -0.202535E-04  0.111E-02    0.05       1.0  T
  11   -214.5681072 -0.186110E-04  0.557E-03    0.05       1.7  T
  12   -214.5681140 -0.681273E-05  0.223E-03    0.05       4.2  T
  13   -214.5681152 -0.116428E-05  0.118E-03    0.05       7.9  T
  14   -214.5681155 -0.354506E-06  0.417E-04    0.05      22.3  T
  15   -214.5681155 -0.232792E-07  0.287E-04    0.05      32.5  T
     SCC iter.                  ...        0 min,  1.017 sec
     gradient                   ...        0 min,  0.040 sec
 * total energy  :  -211.8326066 Eh     change       -0.1351236E-01 Eh
   gradient norm :     0.0610724 Eh/α   predicted    -0.1332798E-01 (  -1.36%)
   displ. norm   :     0.7176298 α      lambda       -0.1522125E-01
   maximum displ.:     0.2261508 α      in ANC's #32, #23, #74, ...

........................................................................
.............................. CYCLE   11 ..............................
........................................................................

 iter      E             dE          RMSdq      gap      omega  full diag
   1   -214.5794893 -0.214579E+03  0.237E-01    0.05       0.0  T
   2   -214.4811715  0.983178E-01  0.592E-01    0.06       1.0  T
   3   -214.5371574 -0.559860E-01  0.389E-01    0.08       1.0  T
   4   -214.4776149  0.595425E-01  0.569E-01    0.20       1.0  T
   5   -214.5758753 -0.982604E-01  0.138E-01    0.05       1.0  T
   6   -214.5734106  0.246468E-02  0.172E-01    0.06       1.0  T
   7   -214.5782456 -0.483501E-02  0.962E-02    0.05       1.0  T
   8   -214.5800836 -0.183800E-02  0.441E-02    0.04       1.0  T
   9   -214.5805468 -0.463192E-03  0.139E-02    0.05       1.0  T
  10   -214.5805670 -0.202261E-04  0.688E-03    0.05       1.4  T
  11   -214.5805511  0.159487E-04  0.967E-03    0.05       1.0  T
  12   -214.5805725 -0.214175E-04  0.351E-03    0.05       2.7  T
  13   -214.5805758 -0.330309E-05  0.149E-03    0.05       6.2  T
  14   -214.5805764 -0.543479E-06  0.368E-04    0.05      25.4  T
  15   -214.5805764 -0.134658E-07  0.237E-04    0.05      39.3  T
     SCC iter.                  ...        0 min,  0.806 sec
     gradient                   ...        0 min,  0.041 sec
 * total energy  :  -211.8414456 Eh     change       -0.8839006E-02 Eh
   gradient norm :     0.0779836 Eh/α   predicted    -0.1153007E-01 (  30.45%)
   displ. norm   :     0.5989367 α      lambda       -0.1156084E-01
   maximum displ.:     0.2231735 α      in ANC's #32, #23, #8, ...

........................................................................
.............................. CYCLE   12 ..............................
........................................................................

 iter      E             dE          RMSdq      gap      omega  full diag
   1   -214.5932086 -0.214593E+03  0.151E-01    0.05       0.0  T
   2   -214.5161697  0.770389E-01  0.567E-01    0.05       1.0  T
   3   -214.5869127 -0.707430E-01  0.181E-01    0.04       1.0  T
   4   -214.5416444  0.452682E-01  0.476E-01    0.08       1.0  T
   5   -214.5897755 -0.481310E-01  0.116E-01    0.04       1.0  T
   6   -214.5670886  0.226868E-01  0.281E-01    0.09       1.0  T
   7   -214.5924961 -0.254075E-01  0.704E-02    0.05       1.0  T
   8   -214.5931168 -0.620711E-03  0.484E-02    0.05       1.0  T
   9   -214.5935958 -0.478963E-03  0.211E-02    0.05       1.0  T
  10   -214.5936821 -0.863073E-04  0.815E-03    0.05       1.1  T
  11   -214.5936944 -0.122419E-04  0.353E-03    0.05       2.6  T
  12   -214.5936972 -0.279898E-05  0.102E-03    0.05       9.1  T
  13   -214.5936974 -0.266499E-06  0.187E-04    0.05      50.0  T
  14   -214.5936974  0.480640E-09  0.160E-04    0.05      58.2  T
     SCC iter.                  ...        0 min,  0.873 sec
     gradient                   ...        0 min,  0.041 sec
 * total energy  :  -211.8502123 Eh     change       -0.8766698E-02 Eh
   gradient norm :     0.0600371 Eh/α   predicted    -0.7854022E-02 ( -10.41%)
   displ. norm   :     0.6746716 α      lambda       -0.1116589E-01
   maximum displ.:     0.2598396 α      in ANC's #23, #32, #37, ...

........................................................................
.............................. CYCLE   13 ..............................
........................................................................

 iter      E             dE          RMSdq      gap      omega  full diag
   1   -214.6112237 -0.214611E+03  0.185E-01    0.04       0.0  T
   2   -214.4644679  0.146756E+00  0.735E-01    0.03       1.0  T
   3   -214.6053620 -0.140894E+00  0.191E-01    0.04       1.0  T
   4   -214.5860891  0.192728E-01  0.294E-01    0.08       1.0  T
   5   -214.5942581 -0.816900E-02  0.243E-01    0.08       1.0  T
   6   -214.6020030 -0.774482E-02  0.216E-01    0.05       1.0  T
   7   -214.6108301 -0.882709E-02  0.886E-02    0.04       1.0  T
   8   -214.6123197 -0.148961E-02  0.446E-02    0.04       1.0  T
   9   -214.6125877 -0.268080E-03  0.281E-02    0.04       1.0  T
  10   -214.6126983 -0.110582E-03  0.175E-02    0.04       1.0  T
  11   -214.6127474 -0.490847E-04  0.573E-03    0.04       1.6  T
  12   -214.6127553 -0.786214E-05  0.200E-03    0.04       4.7  T
  13   -214.6127560 -0.737295E-06  0.722E-04    0.04      12.9  T
  14   -214.6127561 -0.119474E-06  0.414E-04    0.04      22.5  T
     SCC iter.                  ...        0 min,  0.935 sec
     gradient                   ...        0 min,  0.044 sec
 * total energy  :  -211.8582146 Eh     change       -0.8002324E-02 Eh
   gradient norm :     0.0489971 Eh/α   predicted    -0.8124209E-02 (   1.52%)
   displ. norm   :     0.7091833 α      lambda       -0.8714564E-02
   maximum displ.:     0.2632679 α      in ANC's #23, #32, #22, ...

........................................................................
.............................. CYCLE   14 ..............................
........................................................................

 iter      E             dE          RMSdq      gap      omega  full diag
   1   -214.6148372 -0.214615E+03  0.172E-01    0.04       0.0  T
   2   -214.5142746  0.100563E+00  0.614E-01    0.03       1.0  T
   3   -214.6008023 -0.865278E-01  0.237E-01    0.04       1.0  T
   4   -214.5214269  0.793754E-01  0.557E-01    0.24       1.0  T
   5   -214.6135164 -0.920895E-01  0.101E-01    0.04       1.0  T
   6   -214.6059221  0.759437E-02  0.186E-01    0.05       1.0  T
   7   -214.6137089 -0.778685E-02  0.837E-02    0.04       1.0  T
   8   -214.6152158 -0.150691E-02  0.352E-02    0.04       1.0  T
   9   -214.6154301 -0.214276E-03  0.193E-02    0.04       1.0  T
  10   -214.6154798 -0.496954E-04  0.895E-03    0.04       1.0  T
  11   -214.6154850 -0.517692E-05  0.791E-03    0.04       1.2  T
  12   -214.6154997 -0.146801E-04  0.276E-03    0.04       3.4  T
  13   -214.6155012 -0.151523E-05  0.991E-04    0.04       9.4  T
  14   -214.6155014 -0.232858E-06  0.539E-04    0.04      17.3  T
  15   -214.6155015 -0.597673E-07  0.285E-04    0.04      32.7  T
     SCC iter.                  ...        0 min,  0.867 sec
     gradient                   ...        0 min,  0.040 sec
 * total energy  :  -211.8655886 Eh     change       -0.7374009E-02 Eh
   gradient norm :     0.0417561 Eh/α   predicted    -0.6548745E-02 ( -11.19%)
   displ. norm   :     0.7415944 α      lambda       -0.7772407E-02
   maximum displ.:     0.2616599 α      in ANC's #23, #22, #32, ...

........................................................................
.............................. CYCLE   15 ..............................
........................................................................

 iter      E             dE          RMSdq      gap      omega  full diag
   1   -214.6167492 -0.214617E+03  0.186E-01    0.04       0.0  T
   2   -214.4402798  0.176469E+00  0.826E-01    0.02       1.0  T
   3   -214.6119395 -0.171660E+00  0.185E-01    0.04       1.0  T
   4   -214.5005974  0.111342E+00  0.596E-01    0.13       1.0  T
   5   -214.6031759 -0.102578E+00  0.224E-01    0.07       1.0  T
   6   -214.6163276 -0.131517E-01  0.871E-02    0.04       1.0  T
   7   -214.6169738 -0.646132E-03  0.726E-02    0.04       1.0  T
   8   -214.6176023 -0.628582E-03  0.480E-02    0.04       1.0  T
   9   -214.6181427 -0.540417E-03  0.140E-02    0.04       1.0  T
  10   -214.6181653 -0.225006E-04  0.897E-03    0.04       1.0  T
  11   -214.6181771 -0.118005E-04  0.353E-03    0.04       2.6  T
  12   -214.6181796 -0.253271E-05  0.210E-03    0.04       4.4  T
  13   -214.6181809 -0.135392E-05  0.549E-04    0.04      17.0  T
  14   -214.6181810 -0.701066E-07  0.238E-04    0.04      39.1  T
  15   -214.6181810  0.144614E-07  0.292E-04    0.04      31.9  T
     SCC iter.                  ...        0 min,  0.968 sec
     gradient                   ...        0 min,  0.049 sec
 * total energy  :  -211.8720450 Eh     change       -0.6456398E-02 Eh
   gradient norm :     0.0371629 Eh/α   predicted    -0.6023489E-02 (  -6.71%)
   displ. norm   :     0.7469495 α      lambda       -0.6268159E-02
   maximum displ.:     0.2403090 α      in ANC's #22, #23, #32, ...

........................................................................
.............................. CYCLE   16 ..............................
........................................................................

 iter      E             dE          RMSdq      gap      omega  full diag
   1   -214.6168018 -0.214617E+03  0.179E-01    0.04       0.0  T
   2   -214.4284873  0.188315E+00  0.865E-01    0.05       1.0  T
   3   -214.6135146 -0.185027E+00  0.164E-01    0.03       1.0  T
   4   -214.5512960  0.622186E-01  0.505E-01    0.11       1.0  T
   5   -214.5886820 -0.373860E-01  0.300E-01    0.06       1.0  T
   6   -214.5899821 -0.130006E-02  0.297E-01    0.08       1.0  T
   7   -214.6172294 -0.272473E-01  0.648E-02    0.04       1.0  T
   8   -214.6177638 -0.534380E-03  0.420E-02    0.04       1.0  T
   9   -214.6180104 -0.246648E-03  0.271E-02    0.04       1.0  T
  10   -214.6181634 -0.152955E-03  0.107E-02    0.04       1.0  T
  11   -214.6181819 -0.184785E-04  0.209E-03    0.04       4.5  T
  12   -214.6181803  0.155102E-05  0.281E-03    0.04       3.3  T
  13   -214.6181823 -0.199303E-05  0.799E-04    0.04      11.7  T
  14   -214.6181825 -0.187261E-06  0.258E-04    0.04      36.1  T
  15   -214.6181825 -0.597382E-08  0.206E-04    0.04      45.2  T
     SCC iter.                  ...        0 min,  0.934 sec
     gradient                   ...        0 min,  0.041 sec
 * total energy  :  -211.8771858 Eh     change       -0.5140714E-02 Eh
   gradient norm :     0.0353419 Eh/α   predicted    -0.4882693E-02 (  -5.02%)
   displ. norm   :     0.7212070 α      lambda       -0.5329666E-02
   maximum displ.:     0.2228493 α      in ANC's #22, #23, #9, ...

........................................................................
.............................. CYCLE   17 ..............................
........................................................................

 iter      E             dE          RMSdq      gap      omega  full diag
   1   -214.6273596 -0.214627E+03  0.165E-01    0.03       0.0  T
   2   -214.4225505  0.204809E+00  0.899E-01    0.04       1.0  T
   3   -214.6251506 -0.202600E+00  0.150E-01    0.04       1.0  T
   4   -214.5379052  0.872454E-01  0.520E-01    0.12       1.0  T
   5   -214.6016854 -0.637802E-01  0.297E-01    0.09       1.0  T
   6   -214.6223146 -0.206292E-01  0.169E-01    0.04       1.0  T
   7   -214.6282087 -0.589417E-02  0.550E-02    0.04       1.0  T
   8   -214.6285211 -0.312359E-03  0.389E-02    0.04       1.0  T
   9   -214.6288498 -0.328651E-03  0.144E-02    0.04       1.0  T
  10   -214.6288832 -0.334377E-04  0.724E-03    0.04       1.3  T
  11   -214.6288937 -0.105443E-04  0.200E-03    0.04       4.7  T
  12   -214.6288941 -0.401881E-06  0.137E-03    0.04       6.8  T
  13   -214.6288946 -0.463873E-06  0.259E-04    0.04      36.0  T
  14   -214.6288946 -0.129594E-07  0.121E-04    0.04      76.9  T
     SCC iter.                  ...        0 min,  0.881 sec
     gradient                   ...        0 min,  0.039 sec
 * total energy  :  -211.8811759 Eh     change       -0.3990143E-02 Eh
   gradient norm :     0.0302664 Eh/α   predicted    -0.4050921E-02 (   1.52%)
   displ. norm   :     0.7343217 α      lambda       -0.4773466E-02
   maximum displ.:     0.2514678 α      in ANC's #22, #8, #9, ...

........................................................................
.............................. CYCLE   18 ..............................
........................................................................

 iter      E             dE          RMSdq      gap      omega  full diag
   1   -214.6226725 -0.214623E+03  0.169E-01    0.03       0.0  T
   2   -214.4550490  0.167624E+00  0.802E-01    0.01       1.0  T
   3   -214.6187685 -0.163719E+00  0.168E-01    0.03       1.0  T
   4   -214.5473019  0.714666E-01  0.483E-01    0.09       1.0  T
   5   -214.5958916 -0.485897E-01  0.300E-01    0.09       1.0  T
   6   -214.6188827 -0.229911E-01  0.150E-01    0.04       1.0  T
   7   -214.6232330 -0.435026E-02  0.551E-02    0.04       1.0  T
   8   -214.6235092 -0.276209E-03  0.428E-02    0.04       1.0  T
   9   -214.6239381 -0.428942E-03  0.124E-02    0.04       1.0  T
  10   -214.6239648 -0.266363E-04  0.633E-03    0.04       1.5  T
  11   -214.6239725 -0.772009E-05  0.221E-03    0.04       4.2  T
  12   -214.6239731 -0.646339E-06  0.135E-03    0.04       6.9  T
  13   -214.6239734 -0.280974E-06  0.566E-04    0.04      16.5  T
  14   -214.6239735 -0.771803E-07  0.191E-04    0.04      48.7  T
     SCC iter.                  ...        0 min,  0.749 sec
     gradient                   ...        0 min,  0.041 sec
 * total energy  :  -211.8841238 Eh     change       -0.2947906E-02 Eh
   gradient norm :     0.0362270 Eh/α   predicted    -0.3673733E-02 (  24.62%)
   displ. norm   :     0.5674432 α      lambda       -0.3649053E-02
   maximum displ.:     0.1968320 α      in ANC's #9, #11, #22, ...

........................................................................
.............................. CYCLE   19 ..............................
........................................................................

 iter      E             dE          RMSdq      gap      omega  full diag
   1   -214.6387231 -0.214639E+03  0.108E-01    0.04       0.0  T
   2   -214.5898050  0.489181E-01  0.450E-01    0.05       1.0  T
   3   -214.6321478 -0.423428E-01  0.165E-01    0.03       1.0  T
   4   -214.5860645  0.460833E-01  0.426E-01    0.11       1.0  T
   5   -214.6093516 -0.232871E-01  0.306E-01    0.05       1.0  T
   6   -214.6353847 -0.260331E-01  0.122E-01    0.04       1.0  T
   7   -214.6385814 -0.319667E-02  0.474E-02    0.04       1.0  T
   8   -214.6386783 -0.969137E-04  0.400E-02    0.04       1.0  T
   9   -214.6389854 -0.307042E-03  0.199E-02    0.04       1.0  T
  10   -214.6390670 -0.816437E-04  0.805E-03    0.04       1.2  T
  11   -214.6390784 -0.113631E-04  0.271E-03    0.04       3.4  T
  12   -214.6390798 -0.144548E-05  0.154E-03    0.04       6.1  T
  13   -214.6390803 -0.505854E-06  0.360E-04    0.04      25.9  T
  14   -214.6390803 -0.229274E-07  0.207E-04    0.04      44.9  T
     SCC iter.                  ...        0 min,  0.891 sec
     gradient                   ...        0 min,  0.040 sec
 * total energy  :  -211.8864041 Eh     change       -0.2280266E-02 Eh
   gradient norm :     0.0332537 Eh/α   predicted    -0.2412012E-02 (   5.78%)
   displ. norm   :     0.6169604 α      lambda       -0.3668288E-02
   maximum displ.:     0.2378429 α      in ANC's #9, #8, #11, ...

........................................................................
.............................. CYCLE   20 ..............................
........................................................................

 iter      E             dE          RMSdq      gap      omega  full diag
   1   -214.6422852 -0.214642E+03  0.119E-01    0.03       0.0  T
   2   -214.5906105  0.516747E-01  0.433E-01    0.05       1.0  T
   3   -214.6259553 -0.353447E-01  0.236E-01    0.05       1.0  T
   4   -214.6036043  0.223510E-01  0.363E-01    0.12       1.0  T
   5   -214.5988396  0.476468E-02  0.417E-01    0.05       1.0  T
   6   -214.6411628 -0.423232E-01  0.829E-02    0.03       1.0  T
   7   -214.6416777 -0.514929E-03  0.646E-02    0.04       1.0  T
   8   -214.6420201 -0.342382E-03  0.473E-02    0.03       1.0  T
   9   -214.6425733 -0.553200E-03  0.136E-02    0.04       1.0  T
  10   -214.6426070 -0.336897E-04  0.510E-03    0.04       1.8  T
  11   -214.6426101 -0.314877E-05  0.268E-03    0.04       3.5  T
  12   -214.6426110 -0.849330E-06  0.205E-03    0.04       4.5  T
  13   -214.6426119 -0.893931E-06  0.500E-04    0.04      18.6  T
  14   -214.6426119 -0.375533E-07  0.256E-04    0.04      36.5  T
     SCC iter.                  ...        0 min,  0.891 sec
     gradient                   ...        0 min,  0.042 sec
 * total energy  :  -211.8879455 Eh     change       -0.1541455E-02 Eh
   gradient norm :     0.0395857 Eh/α   predicted    -0.2532291E-02 (  64.28%)
   displ. norm   :     0.4756981 α      lambda       -0.3123770E-02
   maximum displ.:     0.1792155 α      in ANC's #9, #8, #22, ...
 * RMSD in coord.:     0.8440574 α      energy gain  -0.2783281E+01 Eh

generating ANC from exact Hessian ...
Using Lindh-Hessian (1995)
 Shifting diagonal of input Hessian by    9.9308352250388494E-003
 Lowest  eigenvalues of input Hessian
    0.000000    0.000000    0.000000    0.000000    0.000000    0.000000
    0.010000    0.010039    0.010061    0.010136    0.010201    0.010321
    0.010443    0.010488    0.010537    0.010856    0.010958    0.011016
 Highest eigenvalues
    2.381108    2.384392    2.388990    2.411950    2.412810    2.413286


........................................................................
.............................. CYCLE   21 ..............................
........................................................................

 iter      E             dE          RMSdq      gap      omega  full diag
   1   -214.6391256 -0.214639E+03  0.103E-01    0.03       0.0  T
   2   -214.5648307  0.742948E-01  0.507E-01    0.07       1.0  T
   3   -214.6316234 -0.667927E-01  0.166E-01    0.04       1.0  T
   4   -214.6018525  0.297710E-01  0.344E-01    0.10       1.0  T
   5   -214.6299860 -0.281336E-01  0.188E-01    0.04       1.0  T
   6   -214.6377590 -0.777299E-02  0.893E-02    0.04       1.0  T
   7   -214.6389441 -0.118505E-02  0.453E-02    0.04       1.0  T
   8   -214.6393176 -0.373526E-03  0.282E-02    0.03       1.0  T
   9   -214.6395122 -0.194611E-03  0.611E-03    0.04       1.5  T
  10   -214.6395149 -0.263409E-05  0.413E-03    0.04       2.3  T
  11   -214.6395154 -0.571936E-06  0.368E-03    0.04       2.5  T
  12   -214.6395194 -0.400934E-05  0.831E-04    0.04      11.2  T
  13   -214.6395195 -0.671930E-07  0.563E-04    0.04      16.6  T
  14   -214.6395196 -0.836575E-07  0.174E-04    0.04      53.7  T
     SCC iter.                  ...        0 min,  0.813 sec
     gradient                   ...        0 min,  0.043 sec
 * total energy  :  -211.8898602 Eh     change       -0.1914634E-02 Eh
   gradient norm :     0.0308819 Eh/α   predicted     0.0000000E+00 (-100.00%)
   displ. norm   :     0.2700799 α      lambda       -0.3132492E-02
   maximum displ.:     0.0960662 α      in ANC's #9, #7, #16, ...

........................................................................
.............................. CYCLE   22 ..............................
........................................................................

 iter      E             dE          RMSdq      gap      omega  full diag
   1   -214.6467373 -0.214647E+03  0.793E-02    0.03       0.0  T
   2   -214.6383826  0.835463E-02  0.182E-01    0.05       1.0  T
   3   -214.6374208  0.961796E-03  0.180E-01    0.04       1.0  T
   4   -214.5999152  0.375057E-01  0.378E-01    0.13       1.0  T
   5   -214.6465487 -0.466335E-01  0.351E-02    0.03       1.0  T
   6   -214.6461803  0.368424E-03  0.500E-02    0.03       1.0  T
   7   -214.6465772 -0.396951E-03  0.294E-02    0.03       1.0  T
   8   -214.6467141 -0.136920E-03  0.163E-02    0.03       1.0  T
   9   -214.6467811 -0.669449E-04  0.422E-03    0.03       2.2  T
  10   -214.6467815 -0.380975E-06  0.339E-03    0.04       2.8  T
  11   -214.6467851 -0.364452E-05  0.995E-04    0.03       9.4  T
  12   -214.6467854 -0.262871E-06  0.355E-04    0.03      26.3  T
  13   -214.6467854 -0.290086E-07  0.111E-04    0.03      84.1  T
     SCC iter.                  ...        0 min,  0.720 sec
     gradient                   ...        0 min,  0.041 sec
 * total energy  :  -211.8921052 Eh     change       -0.2245061E-02 Eh
   gradient norm :     0.0118043 Eh/α   predicted    -0.1680663E-02 ( -25.14%)
   displ. norm   :     0.4286807 α      lambda       -0.1939816E-02
   maximum displ.:     0.1858899 α      in ANC's #9, #7, #16, ...

........................................................................
.............................. CYCLE   23 ..............................
........................................................................

 iter      E             dE          RMSdq      gap      omega  full diag
   1   -214.6498070 -0.214650E+03  0.833E-02    0.03       0.0  T
   2   -214.6389280  0.108790E-01  0.214E-01    0.05       1.0  T
   3   -214.6428059 -0.387785E-02  0.162E-01    0.03       1.0  T
   4   -214.5911791  0.516268E-01  0.418E-01    0.12       1.0  T
   5   -214.6465544 -0.553753E-01  0.111E-01    0.03       1.0  T
   6   -214.6485636 -0.200919E-02  0.734E-02    0.03       1.0  T
   7   -214.6495274 -0.963756E-03  0.377E-02    0.03       1.0  T
   8   -214.6497368 -0.209390E-03  0.235E-02    0.03       1.0  T
   9   -214.6498521 -0.115335E-03  0.920E-03    0.03       1.0  T
  10   -214.6498710 -0.189240E-04  0.177E-03    0.03       5.3  T
  11   -214.6498708  0.229105E-06  0.173E-03    0.03       5.4  T
  12   -214.6498716 -0.781578E-06  0.830E-04    0.03      11.2  T
  13   -214.6498718 -0.176630E-06  0.133E-04    0.03      70.2  T
     SCC iter.                  ...        0 min,  0.672 sec
     gradient                   ...        0 min,  0.042 sec
 * total energy  :  -211.8935615 Eh     change       -0.1456295E-02 Eh
   gradient norm :     0.0092158 Eh/α   predicted    -0.1148663E-02 ( -21.12%)
   displ. norm   :     0.5608126 α      lambda       -0.1666118E-02
   maximum displ.:     0.2487468 α      in ANC's #9, #7, #16, ...

........................................................................
.............................. CYCLE   24 ..............................
........................................................................

 iter      E             dE          RMSdq      gap      omega  full diag
   1   -214.6491564 -0.214649E+03  0.938E-02    0.03       0.0  T
   2   -214.6308889  0.182675E-01  0.269E-01    0.05       1.0  T
   3   -214.6407176 -0.982876E-02  0.176E-01    0.04       1.0  T
   4   -214.5916692  0.490484E-01  0.416E-01    0.15       1.0  T
   5   -214.6481851 -0.565159E-01  0.709E-02    0.03       1.0  T
   6   -214.6476005  0.584617E-03  0.826E-02    0.03       1.0  T
   7   -214.6487614 -0.116087E-02  0.450E-02    0.03       1.0  T
   8   -214.6490519 -0.290546E-03  0.281E-02    0.03       1.0  T
   9   -214.6492234 -0.171504E-03  0.102E-02    0.03       1.0  T
  10   -214.6492388 -0.153714E-04  0.520E-03    0.03       1.8  T
  11   -214.6492461 -0.732721E-05  0.223E-03    0.03       4.2  T
  12   -214.6492470 -0.943177E-06  0.127E-03    0.03       7.4  T
  13   -214.6492475 -0.484230E-06  0.232E-04    0.03      40.2  T
  14   -214.6492475  0.708576E-08  0.287E-04    0.03      32.5  T
     SCC iter.                  ...        0 min,  0.824 sec
     gradient                   ...        0 min,  0.043 sec
 * total energy  :  -211.8949924 Eh     change       -0.1430877E-02 Eh
   gradient norm :     0.0157591 Eh/α   predicted    -0.1095185E-02 ( -23.46%)
   displ. norm   :     0.7011739 α      lambda       -0.2005465E-02
   maximum displ.:     0.3127041 α      in ANC's #9, #7, #16, ...

........................................................................
.............................. CYCLE   25 ..............................
........................................................................

 iter      E             dE          RMSdq      gap      omega  full diag
   1   -214.6469662 -0.214647E+03  0.111E-01    0.03       0.0  T
   2   -214.6198026  0.271635E-01  0.332E-01    0.04       1.0  T
   3   -214.6385009 -0.186983E-01  0.184E-01    0.03       1.0  T
   4   -214.5746579  0.638430E-01  0.465E-01    0.19       1.0  T
   5   -214.6455778 -0.709199E-01  0.818E-02    0.03       1.0  T
   6   -214.6459445 -0.366680E-03  0.678E-02    0.03       1.0  T
   7   -214.6466512 -0.706721E-03  0.444E-02    0.03       1.0  T
   8   -214.6467139 -0.627291E-04  0.397E-02    0.03       1.0  T
   9   -214.6470207 -0.306757E-03  0.188E-02    0.03       1.0  T
  10   -214.6470842 -0.635056E-04  0.774E-03    0.03       1.2  T
  11   -214.6471000 -0.157669E-04  0.271E-03    0.03       3.4  T
  12   -214.6471012 -0.126618E-05  0.126E-03    0.03       7.4  T
  13   -214.6471016 -0.428873E-06  0.358E-04    0.03      26.0  T
  14   -214.6471016  0.126582E-08  0.333E-04    0.03      28.0  T
     SCC iter.                  ...        0 min,  0.729 sec
     gradient                   ...        0 min,  0.039 sec
 * total energy  :  -211.8967533 Eh     change       -0.1760876E-02 Eh
   gradient norm :     0.0176664 Eh/α   predicted    -0.1495721E-02 ( -15.06%)
   displ. norm   :     0.7286727 α      lambda       -0.2044031E-02
   maximum displ.:     0.3350504 α      in ANC's #9, #7, #16, ...

........................................................................
.............................. CYCLE   26 ..............................
........................................................................

 iter      E             dE          RMSdq      gap      omega  full diag
   1   -214.6478749 -0.214648E+03  0.109E-01    0.03       0.0  T
   2   -214.5978587  0.500162E-01  0.457E-01    0.03       1.0  T
   3   -214.6446072 -0.467485E-01  0.130E-01    0.03       1.0  T
   4   -214.5775576  0.670496E-01  0.457E-01    0.16       1.0  T
   5   -214.6435801 -0.660225E-01  0.122E-01    0.03       1.0  T
   6   -214.6465135 -0.293347E-02  0.771E-02    0.04       1.0  T
   7   -214.6474127 -0.899161E-03  0.528E-02    0.03       1.0  T
   8   -214.6478381 -0.425364E-03  0.336E-02    0.03       1.0  T
   9   -214.6480113 -0.173264E-03  0.197E-02    0.03       1.0  T
  10   -214.6480885 -0.771785E-04  0.737E-03    0.03       1.3  T
  11   -214.6480999 -0.113496E-04  0.274E-03    0.03       3.4  T
  12   -214.6481015 -0.167554E-05  0.157E-03    0.03       5.9  T
  13   -214.6481023 -0.746786E-06  0.202E-04    0.03      46.1  T
  14   -214.6481023 -0.344585E-09  0.174E-04    0.03      53.7  T
     SCC iter.                  ...        0 min,  0.847 sec
     gradient                   ...        0 min,  0.043 sec
 * total energy  :  -211.8984708 Eh     change       -0.1717568E-02 Eh
   gradient norm :     0.0129223 Eh/α   predicted    -0.1564669E-02 (  -8.90%)
   displ. norm   :     0.7314295 α      lambda       -0.1597400E-02
   maximum displ.:     0.3442976 α      in ANC's #9, #7, #5, ...

........................................................................
.............................. CYCLE   27 ..............................
........................................................................

 iter      E             dE          RMSdq      gap      omega  full diag
   1   -214.6500772 -0.214650E+03  0.104E-01    0.03       0.0  T
   2   -214.5712999  0.787773E-01  0.581E-01    0.03       1.0  T
   3   -214.6488871 -0.775873E-01  0.970E-02    0.03       1.0  T
   4   -214.6112471  0.376401E-01  0.341E-01    0.10       1.0  T
   5   -214.6375651 -0.263181E-01  0.196E-01    0.04       1.0  T
   6   -214.6489878 -0.114227E-01  0.766E-02    0.03       1.0  T
   7   -214.6500181 -0.103024E-02  0.404E-02    0.03       1.0  T
   8   -214.6502667 -0.248648E-03  0.245E-02    0.03       1.0  T
   9   -214.6503488 -0.820470E-04  0.158E-02    0.03       1.0  T
  10   -214.6504009 -0.521509E-04  0.509E-03    0.03       1.8  T
  11   -214.6504037 -0.283918E-05  0.243E-03    0.03       3.8  T
  12   -214.6504054 -0.161800E-05  0.117E-03    0.03       8.0  T
  13   -214.6504058 -0.437673E-06  0.139E-04    0.03      67.0  T
  14   -214.6504058 -0.283424E-08  0.787E-05    0.03     118.5  T
     SCC iter.                  ...        0 min,  0.881 sec
     gradient                   ...        0 min,  0.042 sec
 * total energy  :  -211.8998116 Eh     change       -0.1340719E-02 Eh
   gradient norm :     0.0099164 Eh/α   predicted    -0.1226004E-02 (  -8.56%)
   displ. norm   :     0.7234011 α      lambda       -0.1278591E-02
   maximum displ.:     0.3421226 α      in ANC's #9, #7, #5, ...

........................................................................
.............................. CYCLE   28 ..............................
........................................................................

 iter      E             dE          RMSdq      gap      omega  full diag
   1   -214.6536650 -0.214654E+03  0.977E-02    0.03       0.0  T
   2   -214.5547169  0.989481E-01  0.659E-01    0.04       1.0  T
   3   -214.6531230 -0.984061E-01  0.816E-02    0.03       1.0  T
   4   -214.6457229  0.740008E-02  0.178E-01    0.04       1.0  T
   5   -214.6337873  0.119356E-01  0.241E-01    0.06       1.0  T
   6   -214.6484930 -0.147057E-01  0.142E-01    0.04       1.0  T
   7   -214.6538851 -0.539212E-02  0.286E-02    0.03       1.0  T
   8   -214.6539852 -0.100078E-03  0.186E-02    0.03       1.0  T
   9   -214.6540204 -0.351794E-04  0.135E-02    0.03       1.0  T
  10   -214.6540568 -0.364030E-04  0.496E-03    0.03       1.9  T
  11   -214.6540609 -0.413477E-05  0.138E-03    0.03       6.8  T
  12   -214.6540612 -0.264550E-06  0.796E-04    0.03      11.7  T
  13   -214.6540614 -0.183899E-06  0.203E-04    0.03      45.9  T
     SCC iter.                  ...        0 min,  0.808 sec
     gradient                   ...        0 min,  0.055 sec
 * total energy  :  -211.9008999 Eh     change       -0.1088392E-02 Eh
   gradient norm :     0.0081427 Eh/α   predicted    -0.9738480E-03 ( -10.52%)
   displ. norm   :     0.7276829 α      lambda       -0.1110252E-02
   maximum displ.:     0.3388069 α      in ANC's #9, #7, #5, ...

........................................................................
.............................. CYCLE   29 ..............................
........................................................................

 iter      E             dE          RMSdq      gap      omega  full diag
   1   -214.6564735 -0.214656E+03  0.963E-02    0.03       0.0  T
   2   -214.5603905  0.960830E-01  0.654E-01    0.04       1.0  T
   3   -214.6557544 -0.953639E-01  0.852E-02    0.03       1.0  T
   4   -214.6430484  0.127060E-01  0.244E-01    0.04       1.0  T
   5   -214.6521191 -0.907072E-02  0.122E-01    0.03       1.0  T
   6   -214.6411508  0.109682E-01  0.218E-01    0.06       1.0  T
   7   -214.6566821 -0.155312E-01  0.285E-02    0.03       1.0  T
   8   -214.6567690 -0.869207E-04  0.197E-02    0.03       1.0  T
   9   -214.6568136 -0.445855E-04  0.139E-02    0.03       1.0  T
  10   -214.6568525 -0.389766E-04  0.513E-03    0.03       1.8  T
  11   -214.6568567 -0.416984E-05  0.160E-03    0.03       5.8  T
  12   -214.6568572 -0.458941E-06  0.687E-04    0.03      13.6  T
  13   -214.6568573 -0.124272E-06  0.258E-04    0.03      36.2  T
     SCC iter.                  ...        0 min,  0.729 sec
     gradient                   ...        0 min,  0.042 sec
 * total energy  :  -211.9018375 Eh     change       -0.9375999E-03 Eh
   gradient norm :     0.0086869 Eh/α   predicted    -0.8490848E-03 (  -9.44%)
   displ. norm   :     0.7106349 α      lambda       -0.1015231E-02
   maximum displ.:     0.3203690 α      in ANC's #7, #9, #5, ...

........................................................................
.............................. CYCLE   30 ..............................
........................................................................

 iter      E             dE          RMSdq      gap      omega  full diag
   1   -214.6649918 -0.214665E+03  0.876E-02    0.03       0.0  T
   2   -214.5786295  0.863623E-01  0.626E-01    0.04       1.0  T
   3   -214.6640557 -0.854262E-01  0.869E-02    0.03       1.0  T
   4   -214.6422778  0.217779E-01  0.319E-01    0.03       1.0  T
   5   -214.6639684 -0.216907E-01  0.765E-02    0.02       1.0  T
   6   -214.6604497  0.351873E-02  0.120E-01    0.04       1.0  T
   7   -214.6650684 -0.461871E-02  0.334E-02    0.03       1.0  T
   8   -214.6652533 -0.184871E-03  0.205E-02    0.03       1.0  T
   9   -214.6653141 -0.607918E-04  0.131E-02    0.03       1.0  T
  10   -214.6653471 -0.330370E-04  0.552E-03    0.03       1.7  T
  11   -214.6653523 -0.520587E-05  0.211E-03    0.03       4.4  T
  12   -214.6653532 -0.836311E-06  0.569E-04    0.03      16.4  T
  13   -214.6653532 -0.555095E-07  0.294E-04    0.03      31.7  T
     SCC iter.                  ...        0 min,  0.756 sec
     gradient                   ...        0 min,  0.041 sec
 * total energy  :  -211.9025997 Eh     change       -0.7621911E-03 Eh
   gradient norm :     0.0129056 Eh/α   predicted    -0.7639633E-03 (   0.23%)
   displ. norm   :     0.7366607 α      lambda       -0.9372587E-03
   maximum displ.:     0.3255051 α      in ANC's #7, #9, #5, ...

........................................................................
.............................. CYCLE   31 ..............................
........................................................................

 iter      E             dE          RMSdq      gap      omega  full diag
   1   -214.6577901 -0.214658E+03  0.969E-02    0.02       0.0  T
   2   -214.6013396  0.564505E-01  0.495E-01    0.02       1.0  T
   3   -214.6553330 -0.539934E-01  0.114E-01    0.03       1.0  T
   4   -214.5942071  0.611259E-01  0.438E-01    0.14       1.0  T
   5   -214.6525314 -0.583243E-01  0.137E-01    0.03       1.0  T
   6   -214.6551326 -0.260124E-02  0.107E-01    0.03       1.0  T
   7   -214.6577864 -0.265377E-02  0.343E-02    0.03       1.0  T
   8   -214.6579257 -0.139325E-03  0.232E-02    0.02       1.0  T
   9   -214.6580021 -0.763920E-04  0.146E-02    0.02       1.0  T
  10   -214.6580450 -0.428814E-04  0.477E-03    0.02       2.0  T
  11   -214.6580475 -0.251964E-05  0.190E-03    0.02       4.9  T
  12   -214.6580481 -0.564529E-06  0.136E-03    0.02       6.9  T
  13   -214.6580486 -0.493873E-06  0.331E-04    0.02      28.2  T
  14   -214.6580486 -0.244630E-07  0.123E-04    0.02      75.6  T
     SCC iter.                  ...        0 min,  0.817 sec
     gradient                   ...        0 min,  0.043 sec
 * total energy  :  -211.9031820 Eh     change       -0.5822675E-03 Eh
   gradient norm :     0.0151304 Eh/α   predicted    -0.7229498E-03 (  24.16%)
   displ. norm   :     0.5269828 α      lambda       -0.7328436E-03
   maximum displ.:     0.2276187 α      in ANC's #7, #9, #5, ...

........................................................................
.............................. CYCLE   32 ..............................
........................................................................

 iter      E             dE          RMSdq      gap      omega  full diag
   1   -214.6608775 -0.214661E+03  0.688E-02    0.02       0.0  T
   2   -214.6483331  0.125444E-01  0.236E-01    0.03       1.0  T
   3   -214.6585303 -0.101972E-01  0.104E-01    0.03       1.0  T
   4   -214.6341766  0.243537E-01  0.312E-01    0.04       1.0  T
   5   -214.6455118 -0.113352E-01  0.217E-01    0.06       1.0  T
   6   -214.6597512 -0.142394E-01  0.669E-02    0.02       1.0  T
   7   -214.6607748 -0.102365E-02  0.292E-02    0.03       1.0  T
   8   -214.6609032 -0.128349E-03  0.176E-02    0.02       1.0  T
   9   -214.6609606 -0.574502E-04  0.826E-03    0.02       1.1  T
  10   -214.6609744 -0.137049E-04  0.275E-03    0.02       3.4  T
  11   -214.6609754 -0.107187E-05  0.107E-03    0.02       8.7  T
  12   -214.6609756 -0.196111E-06  0.432E-04    0.02      21.6  T
  13   -214.6609757 -0.426323E-07  0.903E-05    0.02     103.3  T
     SCC iter.                  ...        0 min,  0.775 sec
     gradient                   ...        0 min,  0.043 sec
 * total energy  :  -211.9036264 Eh     change       -0.4443592E-03 Eh
   gradient norm :     0.0161964 Eh/α   predicted    -0.4681827E-03 (   5.36%)
   displ. norm   :     0.5080708 α      lambda       -0.7546379E-03
   maximum displ.:     0.1968779 α      in ANC's #7, #5, #2, ...

........................................................................
.............................. CYCLE   33 ..............................
........................................................................

 iter      E             dE          RMSdq      gap      omega  full diag
   1   -214.6675882 -0.214668E+03  0.682E-02    0.02       0.0  T
   2   -214.6547530  0.128353E-01  0.228E-01    0.03       1.0  T
   3   -214.6640245 -0.927149E-02  0.114E-01    0.03       1.0  T
   4   -214.6331799  0.308445E-01  0.322E-01    0.10       1.0  T
   5   -214.6658028 -0.326228E-01  0.932E-02    0.02       1.0  T
   6   -214.6669312 -0.112844E-02  0.557E-02    0.02       1.0  T
   7   -214.6675282 -0.597020E-03  0.246E-02    0.02       1.0  T
   8   -214.6676219 -0.937060E-04  0.135E-02    0.02       1.0  T
   9   -214.6676599 -0.379454E-04  0.545E-03    0.02       1.7  T
  10   -214.6676667 -0.685089E-05  0.178E-03    0.02       5.2  T
  11   -214.6676669 -0.125670E-06  0.150E-03    0.02       6.2  T
  12   -214.6676675 -0.688784E-06  0.440E-04    0.02      21.2  T
  13   -214.6676676 -0.457491E-07  0.131E-04    0.02      70.9  T
     SCC iter.                  ...        0 min,  0.753 sec
     gradient                   ...        0 min,  0.039 sec
 * total energy  :  -211.9040927 Eh     change       -0.4663702E-03 Eh
   gradient norm :     0.0119476 Eh/α   predicted    -0.4747367E-03 (   1.79%)
   displ. norm   :     0.5620536 α      lambda       -0.5269560E-03
   maximum displ.:     0.2303022 α      in ANC's #7, #9, #5, ...

........................................................................
.............................. CYCLE   34 ..............................
........................................................................

 iter      E             dE          RMSdq      gap      omega  full diag
   1   -214.6617329 -0.214662E+03  0.722E-02    0.02       0.0  T
   2   -214.6544796  0.725330E-02  0.180E-01    0.02       1.0  T
   3   -214.6587409 -0.426126E-02  0.120E-01    0.02       1.0  T
   4   -214.6509937  0.774720E-02  0.192E-01    0.05       1.0  T
   5   -214.6561413 -0.514762E-02  0.132E-01    0.03       1.0  T
   6   -214.6610025 -0.486119E-02  0.565E-02    0.02       1.0  T
   7   -214.6615837 -0.581215E-03  0.300E-02    0.02       1.0  T
   8   -214.6617213 -0.137641E-03  0.166E-02    0.02       1.0  T
   9   -214.6617757 -0.543324E-04  0.650E-03    0.02       1.4  T
  10   -214.6617845 -0.883802E-05  0.122E-03    0.02       7.7  T
  11   -214.6617845  0.242207E-07  0.912E-04    0.02      10.2  T
  12   -214.6617847 -0.211097E-06  0.224E-04    0.02      41.5  T
     SCC iter.                  ...        0 min,  0.781 sec
     gradient                   ...        0 min,  0.040 sec
 * total energy  :  -211.9044663 Eh     change       -0.3735446E-03 Eh
   gradient norm :     0.0089071 Eh/α   predicted    -0.3467285E-03 (  -7.18%)
   displ. norm   :     0.4798955 α      lambda       -0.5091474E-03
   maximum displ.:     0.1462789 α      in ANC's #1, #18, #7, ...

........................................................................
.............................. CYCLE   35 ..............................
........................................................................

 iter      E             dE          RMSdq      gap      omega  full diag
   1   -214.6621223 -0.214662E+03  0.822E-02    0.02       0.0  T
   2   -214.6594895  0.263275E-02  0.109E-01    0.02       1.0  T
   3   -214.6419304  0.175591E-01  0.265E-01    0.06       1.0  T
   4   -214.6226135  0.193169E-01  0.345E-01    0.09       1.0  T
   5   -214.6591200 -0.365065E-01  0.125E-01    0.03       1.0  T
   6   -214.6608235 -0.170344E-02  0.754E-02    0.02       1.0  T
   7   -214.6618130 -0.989470E-03  0.381E-02    0.02       1.0  T
   8   -214.6620750 -0.262028E-03  0.178E-02    0.02       1.0  T
   9   -214.6621531 -0.781665E-04  0.219E-03    0.02       4.3  T
  10   -214.6621532 -0.768308E-07  0.146E-03    0.02       6.4  T
  11   -214.6621533 -0.828219E-07  0.131E-03    0.02       7.1  T
  12   -214.6621536 -0.331473E-06  0.426E-04    0.02      21.9  T
  13   -214.6621536  0.164734E-07  0.488E-04    0.02      19.1  T
     SCC iter.                  ...        0 min,  0.790 sec
     gradient                   ...        0 min,  0.039 sec
 * total energy  :  -211.9047758 Eh     change       -0.3095158E-03 Eh
   gradient norm :     0.0085624 Eh/α   predicted    -0.3132040E-03 (   1.19%)
   displ. norm   :     0.4163186 α      lambda       -0.3694445E-03
   maximum displ.:     0.1310285 α      in ANC's #1, #7, #12, ...

........................................................................
.............................. CYCLE   36 ..............................
........................................................................

 iter      E             dE          RMSdq      gap      omega  full diag
   1   -214.6592855 -0.214659E+03  0.667E-02    0.02       0.0  T
   2   -214.6543613  0.492423E-02  0.142E-01    0.02       1.0  T
   3   -214.6530185  0.134277E-02  0.152E-01    0.04       1.0  T
   4   -214.6183345  0.346841E-01  0.355E-01    0.10       1.0  T
   5   -214.6588491 -0.405146E-01  0.437E-02    0.02       1.0  T
   6   -214.6589996 -0.150541E-03  0.388E-02    0.02       1.0  T
   7   -214.6591912 -0.191597E-03  0.233E-02    0.02       1.0  T
   8   -214.6592845 -0.932855E-04  0.121E-02    0.02       1.0  T
   9   -214.6593198 -0.352562E-04  0.194E-03    0.02       4.8  T
  10   -214.6593200 -0.209263E-06  0.113E-03    0.02       8.3  T
  11   -214.6593202 -0.246293E-06  0.484E-04    0.02      19.3  T
  12   -214.6593203 -0.595027E-07  0.196E-04    0.02      47.6  T
     SCC iter.                  ...        0 min,  0.656 sec
     gradient                   ...        0 min,  0.046 sec
 * total energy  :  -211.9050007 Eh     change       -0.2249430E-03 Eh
   gradient norm :     0.0088963 Eh/α   predicted    -0.2167426E-03 (  -3.65%)
   displ. norm   :     0.2641139 α      lambda       -0.2725066E-03
   maximum displ.:     0.1008404 α      in ANC's #1, #17, #23, ...

........................................................................
.............................. CYCLE   37 ..............................
........................................................................

 iter      E             dE          RMSdq      gap      omega  full diag
   1   -214.6619147 -0.214662E+03  0.487E-02    0.02       0.0  T
   2   -214.6587110  0.320363E-02  0.108E-01    0.03       1.0  T
   3   -214.6558552  0.285584E-02  0.139E-01    0.04       1.0  T
   4   -214.6453385  0.105166E-01  0.235E-01    0.05       1.0  T
   5   -214.6617047 -0.163661E-01  0.337E-02    0.02       1.0  T
   6   -214.6616310  0.737097E-04  0.376E-02    0.02       1.0  T
   7   -214.6618920 -0.261084E-03  0.134E-02    0.02       1.0  T
   8   -214.6619258 -0.337745E-04  0.658E-03    0.02       1.4  T
   9   -214.6619362 -0.103557E-04  0.983E-04    0.02       9.5  T
  10   -214.6619358  0.341446E-06  0.132E-03    0.02       7.1  T
  11   -214.6619362 -0.385617E-06  0.489E-04    0.02      19.1  T
  12   -214.6619362 -0.162599E-07  0.355E-04    0.02      26.3  T
     SCC iter.                  ...        0 min,  0.680 sec
     gradient                   ...        0 min,  0.041 sec
 * total energy  :  -211.9051840 Eh     change       -0.1832988E-03 Eh
   gradient norm :     0.0080886 Eh/α   predicted    -0.1457588E-03 ( -20.48%)
   displ. norm   :     0.4150103 α      lambda       -0.3006982E-03
   maximum displ.:     0.1555405 α      in ANC's #1, #2, #8, ...

........................................................................
.............................. CYCLE   38 ..............................
........................................................................

 iter      E             dE          RMSdq      gap      omega  full diag
   1   -214.6617858 -0.214662E+03  0.643E-02    0.02       0.0  T
   2   -214.6521099  0.967590E-02  0.199E-01    0.03       1.0  T
   3   -214.6584405 -0.633056E-02  0.112E-01    0.03       1.0  T
   4   -214.6274750  0.309655E-01  0.333E-01    0.08       1.0  T
   5   -214.6596000 -0.321250E-01  0.978E-02    0.03       1.0  T
   6   -214.6610919 -0.149193E-02  0.522E-02    0.02       1.0  T
   7   -214.6617167 -0.624808E-03  0.241E-02    0.02       1.0  T
   8   -214.6617919 -0.751985E-04  0.147E-02    0.02       1.0  T
   9   -214.6618369 -0.449615E-04  0.517E-03    0.02       1.8  T
  10   -214.6618418 -0.488810E-05  0.157E-03    0.02       6.0  T
  11   -214.6618420 -0.199716E-06  0.113E-03    0.02       8.3  T
  12   -214.6618422 -0.227174E-06  0.474E-04    0.02      19.7  T
  13   -214.6618423 -0.572770E-07  0.173E-04    0.02      53.9  T
     SCC iter.                  ...        0 min,  0.853 sec
     gradient                   ...        0 min,  0.041 sec
 * total energy  :  -211.9053904 Eh     change       -0.2063936E-03 Eh
   gradient norm :     0.0058363 Eh/α   predicted    -0.1762479E-03 ( -14.61%)
   displ. norm   :     0.3662680 α      lambda       -0.2416329E-03
   maximum displ.:     0.1571335 α      in ANC's #1, #4, #2, ...

........................................................................
.............................. CYCLE   39 ..............................
........................................................................

 iter      E             dE          RMSdq      gap      omega  full diag
   1   -214.6632945 -0.214663E+03  0.592E-02    0.02       0.0  T
   2   -214.6618771  0.141742E-02  0.772E-02    0.02       1.0  T
   3   -214.6454931  0.163840E-01  0.230E-01    0.07       1.0  T
   4   -214.6505337 -0.504064E-02  0.224E-01    0.03       1.0  T
   5   -214.6632207 -0.126870E-01  0.216E-02    0.02       1.0  T
   6   -214.6631397  0.810405E-04  0.273E-02    0.02       1.0  T
   7   -214.6632747 -0.135073E-03  0.117E-02    0.02       1.0  T
   8   -214.6632951 -0.204145E-04  0.847E-03    0.02       1.1  T
   9   -214.6633118 -0.166829E-04  0.146E-03    0.02       6.4  T
  10   -214.6633115  0.329380E-06  0.172E-03    0.02       5.4  T
  11   -214.6633120 -0.528249E-06  0.810E-04    0.02      11.5  T
  12   -214.6633122 -0.191950E-06  0.211E-04    0.02      44.2  T
     SCC iter.                  ...        0 min,  0.760 sec
     gradient                   ...        0 min,  0.040 sec
 * total energy  :  -211.9055697 Eh     change       -0.1792436E-03 Eh
   gradient norm :     0.0063687 Eh/α   predicted    -0.1370276E-03 ( -23.55%)
   displ. norm   :     0.4420089 α      lambda       -0.2745763E-03
   maximum displ.:     0.1886028 α      in ANC's #1, #4, #2, ...

........................................................................
.............................. CYCLE   40 ..............................
........................................................................

 iter      E             dE          RMSdq      gap      omega  full diag
   1   -214.6641177 -0.214664E+03  0.628E-02    0.02       0.0  T
   2   -214.6610439  0.307382E-02  0.113E-01    0.03       1.0  T
[...]
          | GRADIENT NORM               0.000861861095 Eh/α |
           -------------------------------------------------
########################################################################
[WARNING] Runtime exception occurred
-2- gfnff_ini: Could not initialize fragment charges from file
-1- gfnff_setup: Could not read topology file.
########################################################################

------------------------------------------------------------------------
 * finished run on 2025/03/11 at 12:56:08.905     
------------------------------------------------------------------------
 total:
 * wall-time:     0 d,  0 h,  0 min, 14.851 sec
 *  cpu-time:     0 d,  0 h,  0 min, 33.570 sec
 * ratio c/w:     2.260 speedup
 SCF:
 * wall-time:     0 d,  0 h,  0 min,  0.037 sec
 *  cpu-time:     0 d,  0 h,  0 min,  0.031 sec
 * ratio c/w:     0.836 speedup
 ANC optimizer:
 * wall-time:     0 d,  0 h,  0 min, 14.757 sec
 *  cpu-time:     0 d,  0 h,  0 min, 33.481 sec
 * ratio c/w:     2.269 speedup

Optimizing stacked_dimer.mol using GFNFF
      -----------------------------------------------------------      
     |                   =====================                   |     
     |                           x T B                           |     
     |                   =====================                   |     
     |                         S. Grimme                         |     
     |          Mulliken Center for Theoretical Chemistry        |     
     |                    University of Bonn                     |     
      -----------------------------------------------------------      

   * xtb version 6.7.1 (edcfbbe) compiled by 'runner@Mac-1732539442253.local' on 2024-11-25

   xtb is free software: you can redistribute it and/or modify it under
   the terms of the GNU Lesser General Public License as published by
   the Free Software Foundation, either version 3 of the License, or
   (at your option) any later version.
   
   xtb is distributed in the hope that it will be useful,
   but WITHOUT ANY WARRANTY; without even the implied warranty of
   MERCHANTABILITY or FITNESS FOR A PARTICULAR PURPOSE.  See the
   GNU Lesser General Public License for more details.
   
   Cite this work as:
   * C. Bannwarth, E. Caldeweyher, S. Ehlert, A. Hansen, P. Pracht,
     J. Seibert, S. Spicher, S. Grimme, WIREs Comput. Mol. Sci., 2020, 11,
     e01493. DOI: 10.1002/wcms.1493
   
   for GFN2-xTB:
   * C. Bannwarth, S. Ehlert and S. Grimme., J. Chem. Theory Comput., 2019,
     15, 1652-1671. DOI: 10.1021/acs.jctc.8b01176
   for GFN1-xTB:
   * S. Grimme, C. Bannwarth, P. Shushkov, J. Chem. Theory Comput., 2017,
     13, 1989-2009. DOI: 10.1021/acs.jctc.7b00118
   for GFN0-xTB:
   * P. Pracht, E. Caldeweyher, S. Ehlert, S. Grimme, ChemRxiv, 2019, preprint.
     DOI: 10.26434/chemrxiv.8326202.v1
   for GFN-FF:
   * S. Spicher and S. Grimme, Angew. Chem. Int. Ed., 2020, 59, 15665-15673.
     DOI: 10.1002/anie.202004239
   
   for ALPB and GBSA implicit solvation:
   * S. Ehlert, M. Stahn, S. Spicher, S. Grimme, J. Chem. Theory Comput.,
     2021, 17, 4250-4261. DOI: 10.1021/acs.jctc.1c00471
   
   for ddCOSMO and CPCM-X implicit solvation:
   * M. Stahn, S. Ehlert, S. Grimme, J. Phys. Chem. A,
     2023, XX, XXXX-XXXX. DOI: 10.1021/acs.jpca.3c04382
   
   for DFT-D4:
   * E. Caldeweyher, C. Bannwarth and S. Grimme, J. Chem. Phys., 2017,
     147, 034112. DOI: 10.1063/1.4993215
   * E. Caldeweyher, S. Ehlert, A. Hansen, H. Neugebauer, S. Spicher,
     C. Bannwarth and S. Grimme, J. Chem. Phys., 2019, 150, 154122.
     DOI: 10.1063/1.5090222
   * E. Caldeweyher, J.-M. Mewes, S. Ehlert and S. Grimme, Phys. Chem. Chem. Phys.
     2020, 22, 8499-8512. DOI: 10.1039/D0CP00502A
   
   for sTDA-xTB:
   * S. Grimme and C. Bannwarth, J. Chem. Phys., 2016, 145, 054103.
     DOI: 10.1063/1.4959605
   
   in the mass-spec context:
   * V. Asgeirsson, C. Bauer and S. Grimme, Chem. Sci., 2017, 8, 4879.
     DOI: 10.1039/c7sc00601b
   * J. Koopman and S. Grimme, ACS Omega 2019, 4, 12, 15120-15133.
     DOI: 10.1021/acsomega.9b02011
   
   for metadynamics refer to:
   * S. Grimme, J. Chem. Theory Comput., 2019, 155, 2847-2862
     DOI: 10.1021/acs.jctc.9b00143
   
   for SPH calculations refer to:
   * S. Spicher and S. Grimme, J. Chem. Theory Comput., 2021, 17, 1701-1714
     DOI: 10.1021/acs.jctc.0c01306
   
   for ONIOM refer to:
   * C. Plett, A. Katbashev, S. Ehlert, S. Grimme, M. Bursch,
     Phys. Chem. Chem. Phys., 2023, 25, 17860-17868. DOI: 10.1039/D3CP02178E
   
   for DIPRO refer to:
   * J. Kohn, N. Gildemeister, S. Grimme, D. Fazzi, A. Hansen,
     J. Chem. Phys., 2023, just accepted.
   
   for PTB refer to:
   * S. Grimme, M. Mueller, A. Hansen, J. Chem. Phys., 2023, 158, 124111.
     DOI: 10.1063/5.0137838
   
   with help from (in alphabetical order)
   P. Atkinson, C. Bannwarth, F. Bohle, G. Brandenburg, E. Caldeweyher
   M. Checinski, S. Dohm, S. Ehlert, S. Ehrlich, I. Gerasimov, C. Hölzer
   A. Katbashev, J. Kohn, J. Koopman, C. Lavigne, S. Lehtola, F. März, M. Müller,
   F. Musil, H. Neugebauer, J. Pisarek, C. Plett, P. Pracht, F. Pultar,
   J. Seibert, P. Shushkov, S. Spicher, M. Stahn, M. Steiner, T. Strunk,
   J. Stückrath, T. Rose, and J. Unsleber
   
 * started run on 2025/03/11 at 12:56:08.945     
   ID    Z sym.   atoms
    1    6 C      1-9, 11, 12, 14-21, 23-34, 36, 37, 39-46, 48-50, 54, 56,
                  60, 63, 66, 69, 71, 72, 74, 75, 116-124, 126, 127, 129-136,
                  138-149, 151, 152, 154-161, 163-165, 169, 171, 175, 178,
                  181, 184, 186, 187, 189, 190
    2    7 N      10, 13, 35, 38, 70, 73, 125, 128, 150, 153, 185, 188
    3    8 O      22, 47, 52, 53, 55, 57-59, 61, 62, 64, 65, 67, 68, 137,
                  162, 167, 168, 170, 172-174, 176, 177, 179, 180, 182, 183
    4    5 B      51, 166
    5    1 H      76-115, 191-230

           -------------------------------------------------
          |                Calculation Setup                |
           -------------------------------------------------

          program call               : xtb loose_opt_dimer.mol --dipro 0.3 --chrg 0 --uhf 2 --gfn 2
          coordinate file            : loose_opt_dimer.mol
          omp threads                :                     8


molecular fragmentation (1/2 indicates fragments):
111111111111111111111111111111111111111111111111111111111111111111111111
111111111111111111111111111111111111111111122222222222222222222222222222
222222222222222222222222222222222222222222222222222222222222222222222222
22222222222222
# atoms in fragment 1/2:   115   115
 fragment masses (1/2) :     1007.74     1007.74
CMA distance (Bohr)    :  11.970
constraining FC (au)   :  0.0500

           -------------------------------------------------
          |                 G F N 2 - x T B                 |
           -------------------------------------------------

        Reference                      10.1021/acs.jctc.8b01176
      * Hamiltonian:
        H0-scaling (s, p, d)           1.850000    2.230000    2.230000
        zeta-weighting                 0.500000
      * Dispersion:
        s8                             2.700000
        a1                             0.520000
        a2                             5.000000
        s9                             5.000000
      * Repulsion:
        kExp                           1.500000    1.000000
        rExp                           1.000000
      * Coulomb:
        alpha                          2.000000
        third order                    shell-resolved
        anisotropic                    true
        a3                             3.000000
        a5                             4.000000
        cn-shift                       1.200000
        cn-exp                         4.000000
        max-rad                        5.000000

           -------------------------------------------------
          |                    D I P R O                    |
           -------------------------------------------------
Calculation for dimer 
--------------------- 
  
charge of dimer :   0.
unpaired e- of dimer :  2
repulsion energy          5.4567620507883E+00 Eh
dispersion energy         3.7256119016873E-02 Eh
number of electrons       7.4600000000000E+02 e
integral cutoff           1.9311100799991E+01 bohr

------------------------------------------------------------
  cycle        total energy    energy error   density error
------------------------------------------------------------
      1     -420.1619851331  -4.2565600E+02   2.0596050E-01
      2     -421.9959097409  -1.8339246E+00   9.6723424E-02
      3     -417.7210328953   4.2748768E+00   9.7328831E-02
      4     -414.9826438952   2.7383890E+00   9.3321751E-02
      5     -420.1304835392  -5.1478396E+00   6.3915570E-02
      6     -422.1759705198  -2.0454870E+00   4.8966709E-02
      7     -422.6335351595  -4.5756464E-01   4.1317294E-02
      8     -422.8972408023  -2.6370564E-01   3.8803560E-02
      9     -423.4341724249  -5.3693162E-01   2.7709644E-02
     10     -423.5937774843  -1.5960506E-01   2.2309585E-02
     11     -423.6255187170  -3.1741233E-02   1.9480842E-02
     12     -423.3322851280   2.9323359E-01   2.8248946E-02
     13     -423.3087691187   2.3516009E-02   2.4736370E-02
     14     -423.6509408497  -3.4217173E-01   1.5633054E-02
     15     -423.5253349077   1.2560594E-01   2.3817057E-02
     16     -423.5640022162  -3.8667308E-02   1.6641167E-02
     17     -423.6573339283  -9.3331712E-02   1.2392220E-02
     18     -423.6880060530  -3.0672125E-02   1.0146034E-02
     19     -423.6522068566   3.5799196E-02   1.2356705E-02
     20     -423.6596274831  -7.4206265E-03   1.0974756E-02
     21     -423.7232543140  -6.3626831E-02   6.2065295E-03
     22     -423.7163184227   6.9358914E-03   7.3039054E-03
     23     -423.7380562008  -2.1737778E-02   3.3734315E-03
     24     -423.7422644520  -4.2082511E-03   2.5918160E-03
     25     -423.7433473681  -1.0829161E-03   1.8086084E-03
     26     -423.7450556784  -1.7083103E-03   6.7516577E-04
     27     -423.7442268494   8.2882900E-04   1.2406093E-03
     28     -423.7451162423  -8.8939299E-04   4.9166403E-04
     29     -423.7452288017  -1.1255931E-04   2.8770684E-04
     30     -423.7452669410  -3.8139303E-05   9.1371573E-05
     31     -423.7452696325  -2.6915693E-06   5.8876899E-05
     32     -423.7452692678   3.6467236E-07   5.1204607E-05
     33     -423.7452706848  -1.4169154E-06   2.5359117E-05
     34     -423.7452709746  -2.8986898E-07   1.5773668E-05
------------------------------------------------------------

electronic energy        -4.2923928914444E+02 Eh
total energy             -4.2374527097463E+02 Eh

 total:                                  26.941 sec
 - repulsion                              0.000 sec (  0%)
 - dispersion                             0.022 sec (  0%)
 - coulomb                                0.009 sec (  0%)
 - hamiltonian                            0.037 sec (  0%)
 - scc                                   26.873 sec ( 99%)

Found 2 fragments!
Fragment 1:  1-115
Fragment 2:  116-230

[Info] Fragment spin read from .UHFfrag
Calculation for fragment 1
 ------------------------------
   
charge of fragment :   0.
unpaired e- of fragment :  1
------------------------------------------------------------
  cycle        total energy    energy error   density error
------------------------------------------------------------
      1     -210.0732077445  -2.1280685E+02   2.0662003E-01
      2     -211.1254134548  -1.0522057E+00   9.4325823E-02
      3     -210.8534654375   2.7194802E-01   8.3944806E-02
      4     -211.4107786227  -5.5731319E-01   5.3704804E-02
      5     -211.1736454379   2.3713318E-01   4.7168480E-02
      6     -211.6098119565  -4.3616652E-01   3.0821607E-02
      7     -211.6122522021  -2.4402456E-03   3.1529451E-02
      8     -211.7391240467  -1.2687184E-01   2.4005008E-02
      9     -211.7809048236  -4.1780777E-02   1.9371811E-02
     10     -211.8463973548  -6.5492531E-02   9.8279640E-03
     11     -211.8272555410   1.9141814E-02   1.3527463E-02
     12     -211.8410593913  -1.3803850E-02   1.0113765E-02
     13     -211.8458496581  -4.7902668E-03   9.1287646E-03
     14     -211.8615546664  -1.5705008E-02   3.2935516E-03
     15     -211.8625422873  -9.8762085E-04   2.7164376E-03
     16     -211.8643230762  -1.7807890E-03   1.5788057E-03
     17     -211.8648092445  -4.8616822E-04   7.5931344E-04
     18     -211.8648826804  -7.3435997E-05   6.5221535E-04
     19     -211.8649181359  -3.5455412E-05   4.4086912E-04
     20     -211.8649780644  -5.9928516E-05   1.2210738E-04
     21     -211.8649818997  -3.8353449E-06   5.7254439E-05
     22     -211.8649823714  -4.7167515E-07   4.2427589E-05
     23     -211.8649828850  -5.1361511E-07   1.7479174E-05
------------------------------------------------------------

 total:                                   1.284 sec
Calculation for fragment 2
 ------------------------------
   
charge of fragment :   0.
unpaired e- of fragment :  1
------------------------------------------------------------
  cycle        total energy    energy error   density error
------------------------------------------------------------
      1     -210.0525981838  -2.1278539E+02   2.0551823E-01
      2     -211.0544316399  -1.0018335E+00   9.5780274E-02
      3     -210.8178751435   2.3655650E-01   8.4998211E-02
      4     -211.5613443991  -7.4346926E-01   5.1407463E-02
      5     -211.1958005167   3.6554388E-01   4.6341435E-02
      6     -211.3441670607  -1.4836654E-01   3.8904317E-02
      7     -211.2031407561   1.4102630E-01   5.2542902E-02
      8     -211.7696982699  -5.6655751E-01   2.1971569E-02
      9     -211.7609201673   8.7781025E-03   1.9425067E-02
     10     -211.7646809575  -3.7607902E-03   2.0353461E-02
     11     -211.7716129936  -6.9320361E-03   1.7678557E-02
     12     -211.7866433612  -1.5030368E-02   1.5897992E-02
     13     -211.8033416829  -1.6698322E-02   1.4814537E-02
     14     -211.8299918589  -2.6650176E-02   8.0670241E-03
     15     -211.7154189814   1.1457288E-01   2.4756005E-02
     16     -211.8378261761  -1.2240719E-01   5.5533728E-03
     17     -211.8438122028  -5.9860267E-03   3.2163820E-03
     18     -211.8445668305  -7.5462767E-04   2.0562199E-03
     19     -211.8443437832   2.2304726E-04   2.4584044E-03
     20     -211.8457547272  -1.4109440E-03   9.4324988E-04
     21     -211.8459466749  -1.9194769E-04   4.4112392E-04
     22     -211.8459706783  -2.4003404E-05   2.8474356E-04
     23     -211.8459863746  -1.5696352E-05   7.5243193E-05
     24     -211.8459870577  -6.8303541E-07   4.6289622E-05
     25     -211.8459875607  -5.0302009E-07   1.9319753E-05
------------------------------------------------------------

 total:                                   1.237 sec
   
   ::::::::::::::::::::::::::::::::::::::::::::::
   ::     D I P R O      C O U P L I N G S     ::
   ::::::::::::::::::::::::::::::::::::::::::::::
   
energy threshhold for near-degenerate orbitals near HOMO and LUMO considered for DIPRO:  0.300 eV
no. of orbitals within energy window of frag 1         4
no. of orbitals within energy window of frag 2         4
   
  Fragment 1 SOMO-1  Fragment 2 SOMO-1
--------------------------------------
E_mon(orb) frag1 frag2             -10.318   -10.205 eV
J(AB):               -0.015 eV
S(AB):             0.00061960 Eh
|J(AB,eff)|:            0.008 eV
   
  Fragment 1 SOMO-1  Fragment 2 SOMO 
--------------------------------------
E_mon(orb) frag1 frag2             -10.318   -10.172 eV
J(AB):               -0.007 eV
S(AB):             0.00024803 Eh
|J(AB,eff)|:            0.004 eV
   
  Fragment 1 SOMO-1  Fragment 2 LUMO 
--------------------------------------
E_mon(orb) frag1 frag2             -10.318   -10.117 eV
J(AB):               -0.004 eV
S(AB):             0.00019834 Eh
|J(AB,eff)|:            0.002 eV
   
  Fragment 1 SOMO-1  Fragment 2 LUMO+1
--------------------------------------
E_mon(orb) frag1 frag2             -10.318   -10.113 eV
J(AB):                0.025 eV
S(AB):            -0.00094031 Eh
|J(AB,eff)|:            0.015 eV
   
  Fragment 1 SOMO   Fragment 2 SOMO-1
--------------------------------------
E_mon(orb) frag1 frag2             -10.167   -10.205 eV
J(AB):                0.011 eV
S(AB):            -0.00038009 Eh
|J(AB,eff)|:            0.007 eV
   
  Fragment 1 SOMO   Fragment 2 SOMO 
--------------------------------------
E_mon(orb) frag1 frag2             -10.167   -10.172 eV
J(AB):               -0.002 eV
S(AB):             0.00020701 Eh
|J(AB,eff)|:            0.001 eV
   
  Fragment 1 SOMO   Fragment 2 LUMO 
--------------------------------------
E_mon(orb) frag1 frag2             -10.167   -10.117 eV
J(AB):                0.003 eV
S(AB):            -0.00008151 Eh
|J(AB,eff)|:            0.002 eV
   
  Fragment 1 SOMO   Fragment 2 LUMO+1
--------------------------------------
E_mon(orb) frag1 frag2             -10.167   -10.113 eV
J(AB):                0.011 eV
S(AB):            -0.00045419 Eh
|J(AB,eff)|:            0.007 eV
   
  Fragment 1 LUMO   Fragment 2 SOMO-1
--------------------------------------
E_mon(orb) frag1 frag2             -10.131   -10.205 eV
J(AB):               -0.001 eV
S(AB):             0.00006129 Eh
|J(AB,eff)|:            0.001 eV
   
  Fragment 1 LUMO   Fragment 2 SOMO 
--------------------------------------
E_mon(orb) frag1 frag2             -10.131   -10.172 eV
J(AB):               -0.005 eV
S(AB):             0.00025721 Eh
|J(AB,eff)|:            0.003 eV
   
  Fragment 1 LUMO   Fragment 2 LUMO 
--------------------------------------
E_mon(orb) frag1 frag2             -10.131   -10.117 eV
J(AB):                0.005 eV
S(AB):            -0.00018646 Eh
|J(AB,eff)|:            0.003 eV
   
  Fragment 1 LUMO   Fragment 2 LUMO+1
--------------------------------------
E_mon(orb) frag1 frag2             -10.131   -10.113 eV
J(AB):               -0.009 eV
S(AB):             0.00035939 Eh
|J(AB,eff)|:            0.006 eV
   
  Fragment 1 LUMO+1  Fragment 2 SOMO-1
--------------------------------------
E_mon(orb) frag1 frag2             -10.122   -10.205 eV
J(AB):                0.007 eV
S(AB):            -0.00035429 Eh
|J(AB,eff)|:            0.003 eV
   
  Fragment 1 LUMO+1  Fragment 2 SOMO 
--------------------------------------
E_mon(orb) frag1 frag2             -10.122   -10.172 eV
J(AB):               -0.006 eV
S(AB):             0.00028009 Eh
|J(AB,eff)|:            0.003 eV
   
  Fragment 1 LUMO+1  Fragment 2 LUMO 
--------------------------------------
E_mon(orb) frag1 frag2             -10.122   -10.117 eV
J(AB):                0.024 eV
S(AB):            -0.00088484 Eh
|J(AB,eff)|:            0.015 eV
   
  Fragment 1 LUMO+1  Fragment 2 LUMO+1
--------------------------------------
E_mon(orb) frag1 frag2             -10.122   -10.113 eV
J(AB):               -0.005 eV
S(AB):             0.00019008 Eh
|J(AB,eff)|:            0.003 eV
   
..............................................................................
:  total |J(AB,eff)| for hole transport (occ. MOs) :               0.012 eV  :
:  total |J(AB,eff)| for charge transport (unocc. MOs) :           0.016 eV  :
:  total |J(AB,eff)| for charge transfer (CT) :                    0.018 eV  :
..............................................................................
  
 Please remember, DIPRO is not available for restart!
   
normal termination of dipro
----------------------------------------------------------
 * finished run on 2025/03/11 at 12:56:38.458     
----------------------------------------------------------
 dipro:
 * wall-time:     0 d,  0 h,  0 min, 29.501 sec
 *  cpu-time:     0 d,  0 h,  2 min,  6.861 sec
 * ratio c/w:     4.300 speedup
Reorganization energy (electron): 0.15504904868151825 eV
Reorganization energy (hole): 0.1381631116107532 eV
Electron Transfer integral J: 0.016 eV
Hole Transfer integral J: 0.012 eV
