230
 energy: -436.752322404393 gnorm: 0.357505227110 xtb: 6.7.1 (edcfbbe)
C            0.14440000000000        4.15260000000000        3.18770000000000
C            0.76140000000000        2.90890000000000        3.26020000000000
C            2.09910000000000        2.76730000000000        2.76630000000000
C            2.74590000000000        3.93980000000000        2.26550000000000
C            2.01300000000000        5.12710000000000        2.10430000000000
C            0.73860000000000        5.23150000000000        2.56860000000000
C            2.89110000000000        1.57060000000000        2.90790000000000
C            4.28940000000000        1.78330000000000        2.88630000000000
C            4.83340000000000        3.01430000000000        2.41720000000000
N            4.06650000000000        4.03380000000000        2.00680000000000
C            2.45750000000000        0.20940000000000        3.06550000000000
C            3.44810000000000       -0.72040000000000        3.53450000000000
N            4.74480000000000       -0.41940000000000        3.76800000000000
C            5.18120000000000        0.76890000000000        3.32970000000000
C            6.56350000000000        0.99950000000000        3.28690000000000
C            7.07020000000000        2.17460000000000        2.78560000000000
C            6.22390000000000        3.17260000000000        2.36670000000000
C            1.19820000000000       -0.35120000000000        2.57510000000000
C            1.04360000000000       -1.75270000000000        2.61960000000000
C            1.96550000000000       -2.58950000000000        3.18590000000000
C            3.14360000000000       -2.08450000000000        3.65770000000000
O            0.04760000000000        1.87070000000000        3.83280000000000
S           -0.17700000000000        6.77560000000000        2.35310000000000
S            1.65930000000000       -4.37980000000000        3.26090000000000
S            8.85850000000000        2.42110000000000        2.66160000000000
C           -1.68840000000000       -2.23460000000000        3.60920000000000
C           -2.21080000000000       -1.03380000000000        3.13030000000000
C           -3.16840000000000       -1.07590000000000        2.05020000000000
C           -3.33460000000000       -2.32910000000000        1.37870000000000
C           -2.64760000000000       -3.47010000000000        1.82920000000000
C           -1.86060000000000       -3.42940000000000        2.94070000000000
C           -4.10300000000000       -0.02650000000000        1.71330000000000
C           -5.13410000000000       -0.36900000000000        0.81650000000000
C           -5.07260000000000       -1.58120000000000        0.07180000000000
N           -4.16020000000000       -2.53000000000000        0.32720000000000
C           -4.23020000000000        1.26780000000000        2.31280000000000
C           -5.51460000000000        1.90530000000000        2.28230000000000
N           -6.51250000000000        1.52970000000000        1.46030000000000
C           -6.27500000000000        0.47420000000000        0.66740000000000
C           -7.24390000000000        0.13710000000000       -0.28550000000000
C           -7.12770000000000       -0.99320000000000       -1.05650000000000
C           -6.06210000000000       -1.84730000000000       -0.88530000000000
C           -3.11500000000000        2.05140000000000        2.81700000000000
C           -3.42690000000000        3.19620000000000        3.58560000000000
C           -4.71170000000000        3.64570000000000        3.75370000000000
C           -5.74220000000000        3.04050000000000        3.07790000000000
O           -1.66520000000000        0.10470000000000        3.70300000000000
S           -0.96980000000000       -4.92460000000000        3.47690000000000
S           -5.04660000000000        5.08900000000000        4.79760000000000
S           -8.43290000000000       -1.37770000000000       -2.25250000000000
B           -0.82790000000000        1.07960000000000        2.93590000000000
O            8.89420000000000        3.90670000000000        2.93770000000000
O            9.23450000000000        1.78540000000000        4.16940000000000
C            8.87620000000000        2.63800000000000        5.20180000000000
O            1.10360000000000       -4.51640000000000        1.66750000000000
C            2.13200000000000       -4.42180000000000        0.73830000000000
O            3.09390000000000       -4.85100000000000        3.12150000000000
O           -0.64100000000000       -4.47110000000000        4.89030000000000
O           -2.33730000000000       -5.89270000000000        3.71040000000000
C           -2.91940000000000       -5.69920000000000        4.94870000000000
O           -9.42620000000000       -0.31350000000000       -1.85000000000000
O           -9.05900000000000       -2.71410000000000       -1.44860000000000
C           -9.60680000000000       -2.38130000000000       -0.21820000000000
O           -5.55370000000000        5.99040000000000        3.69560000000000
O           -3.43350000000000        5.57010000000000        4.92330000000000
C           -3.11960000000000        6.54770000000000        3.98880000000000
O            0.61370000000000        7.26420000000000        1.15400000000000
O           -1.51620000000000        6.05640000000000        1.60430000000000
C           -1.71750000000000        6.55710000000000        0.32340000000000
N            0.15650000000000        0.36110000000000        1.98310000000000
C            0.43850000000000        0.09850000000000       -0.42870000000000
C           -0.47110000000000       -0.07340000000000        0.76870000000000
N           -1.85540000000000        1.96690000000000        2.20650000000000
C           -2.39190000000000        2.83100000000000       -0.03860000000000
C           -1.46760000000000        2.87750000000000        1.16320000000000
H           -2.22640000000000       -6.03500000000000        5.72460000000000
H           -3.85600000000000       -6.26080000000000        5.00470000000000
H           -3.10410000000000       -4.63150000000000        5.06230000000000
H            2.88880000000000       -5.17500000000000        0.98020000000000
H            2.57850000000000       -3.42510000000000        0.78280000000000
H            1.72880000000000       -4.60540000000000       -0.26110000000000
H            9.19320000000000        2.17980000000000        6.14190000000000
H            7.79270000000000        2.78510000000000        5.20670000000000
H            9.38220000000000        3.59840000000000        5.05650000000000
H           -0.04040000000000       -0.21570000000000       -1.35780000000000
H            1.35080000000000       -0.48710000000000       -0.30870000000000
H            0.74190000000000        1.13950000000000       -0.54300000000000
H           -0.77840000000000       -1.11660000000000        0.87370000000000
H           -1.40400000000000        0.47740000000000        0.64500000000000
H           -2.08770000000000        3.53670000000000       -0.81340000000000
H           -3.41440000000000        3.07850000000000        0.24990000000000
H           -2.42270000000000        1.84090000000000       -0.49200000000000
H           -1.49020000000000        3.88570000000000        1.58800000000000
H           -0.42960000000000        2.67520000000000        0.88540000000000
H           -2.09850000000000        6.89920000000000        4.15370000000000
H           -3.82310000000000        7.37860000000000        4.10160000000000
H           -3.21830000000000        6.12500000000000        2.98330000000000
H          -10.09880000000000       -3.26340000000000        0.20150000000000
H          -10.33440000000000       -1.57540000000000       -0.36190000000000
H           -8.80800000000000       -2.05180000000000        0.45130000000000
H           -2.60300000000000        6.08920000000000       -0.11490000000000
H           -0.83270000000000        6.33840000000000       -0.28230000000000
H           -1.85800000000000        7.64010000000000        0.38130000000000
H           -8.12340000000000        0.75030000000000       -0.38200000000000
H           -6.01450000000000       -2.76570000000000       -1.44290000000000
H           -6.72680000000000        3.47410000000000        3.10270000000000
H           -2.79280000000000       -4.40170000000000        1.31130000000000
H            3.90680000000000       -2.76330000000000        3.99750000000000
H            7.23260000000000        0.23650000000000        3.64270000000000
H            6.63560000000000        4.10910000000000        2.03270000000000
H            2.47690000000000        5.97880000000000        1.63730000000000
H           -1.04370000000000       -2.22280000000000        4.46690000000000
H            0.16140000000000       -2.19760000000000        2.20390000000000
H           -0.84790000000000        4.27070000000000        3.57080000000000
H           -2.63600000000000        3.80060000000000        3.97970000000000
C            0.27520000000000        3.24960000000000        9.62500000000000
C            0.74330000000000        1.94120000000000        9.55430000000000
C            2.03720000000000        1.67170000000000        8.98960000000000
C            2.78760000000000        2.79550000000000        8.52410000000000
C            2.20250000000000        4.07250000000000        8.51390000000000
C            0.96780000000000        4.29190000000000        9.04410000000000
C            2.69710000000000        0.38540000000000        9.00610000000000
C            4.10080000000000        0.42980000000000        8.85560000000000
C            4.74330000000000        1.61340000000000        8.39160000000000
N            4.07730000000000        2.74700000000000        8.13120000000000
C            2.13730000000000       -0.92160000000000        9.20820000000000
C            3.03530000000000       -1.97200000000000        9.59500000000000
N            4.37740000000000       -1.84870000000000        9.63660000000000
C            4.90110000000000       -0.70360000000000        9.17690000000000
C            6.29370000000000       -0.62310000000000        9.03500000000000
C            6.89250000000000        0.51810000000000        8.55700000000000
C            6.13310000000000        1.61410000000000        8.22760000000000
C            0.77850000000000       -1.31570000000000        8.86610000000000
C            0.39840000000000       -2.65520000000000        9.07090000000000
C            1.23770000000000       -3.58960000000000        9.61300000000000
C            2.54300000000000       -3.26040000000000        9.86490000000000
O           -0.13370000000000        0.97410000000000       10.00190000000000
S            0.19770000000000        5.91630000000000        8.90310000000000
S            0.62320000000000       -5.27290000000000        9.94160000000000
S            8.69270000000000        0.59520000000000        8.38990000000000
C           -2.37970000000000       -2.64070000000000       10.05810000000000
C           -2.64900000000000       -1.55800000000000        9.22510000000000
C           -3.32040000000000       -1.76070000000000        7.96870000000000
C           -3.48840000000000       -3.12060000000000        7.56090000000000
C           -3.09240000000000       -4.17470000000000        8.40470000000000
C           -2.56560000000000       -3.94040000000000        9.64000000000000
C           -3.95160000000000       -0.73450000000000        7.16400000000000
C           -4.69400000000000       -1.19100000000000        6.05350000000000
C           -4.64520000000000       -2.55940000000000        5.66070000000000
N           -4.03950000000000       -3.50080000000000        6.39290000000000
C           -4.08000000000000        0.66750000000000        7.44720000000000
C           -5.14700000000000        1.38290000000000        6.80600000000000
N           -5.81980000000000        0.93790000000000        5.72860000000000
C           -5.54760000000000       -0.30930000000000        5.32340000000000
C           -6.22810000000000       -0.79160000000000        4.19530000000000
C           -6.11300000000000       -2.10050000000000        3.79850000000000
C           -5.33560000000000       -2.97510000000000        4.51460000000000
C           -3.17140000000000        1.47170000000000        8.27040000000000
C           -3.65180000000000        2.71410000000000        8.76210000000000
C           -4.80970000000000        3.27450000000000        8.28440000000000
C           -5.51070000000000        2.65220000000000        7.28300000000000
O           -2.13670000000000       -0.36610000000000        9.68380000000000
S           -2.02420000000000       -5.33610000000000       10.67690000000000
S           -5.40270000000000        4.86400000000000        8.90430000000000
S           -7.01840000000000       -2.72640000000000        2.36450000000000
B           -1.04320000000000        0.36620000000000        8.99870000000000
O            8.82290000000000        2.06130000000000        8.04230000000000
O            9.04610000000000        0.61470000000000       10.03390000000000
C            8.65290000000000        1.79720000000000       10.64600000000000
O           -0.24000000000000       -5.44160000000000        8.50160000000000
C            0.58530000000000       -5.47450000000000        7.38480000000000
O            1.88580000000000       -6.03620000000000        9.60390000000000
O           -1.39920000000000       -4.53670000000000       11.80470000000000
O           -3.54120000000000       -5.69330000000000       11.33060000000000
C           -3.97070000000000       -4.74200000000000       12.24720000000000
O           -8.05840000000000       -1.63670000000000        2.24190000000000
O           -7.89970000000000       -3.91150000000000        3.16530000000000
C           -8.76790000000000       -3.37420000000000        4.10780000000000
O           -5.90550000000000        5.40430000000000        7.58190000000000
O           -3.88110000000000        5.58000000000000        9.02870000000000
C           -3.49250000000000        6.19430000000000        7.84790000000000
O            1.34890000000000        6.64640000000000        8.24190000000000
O           -0.74440000000000        5.50540000000000        7.56200000000000
C           -0.02490000000000        5.53100000000000        6.37370000000000
N           -0.11410000000000       -0.51610000000000        8.15080000000000
C            0.59110000000000       -0.42410000000000        5.82770000000000
C           -0.50170000000000       -0.80570000000000        6.80280000000000
N           -1.78460000000000        1.36550000000000        8.10850000000000
C           -1.64580000000000        2.37570000000000        5.91130000000000
C           -1.06520000000000        2.29620000000000        7.29620000000000
H           -4.88410000000000       -5.10160000000000       12.72830000000000
H           -4.17120000000000       -3.79880000000000       11.73300000000000
H           -3.18550000000000       -4.59960000000000       12.99670000000000
H            1.28600000000000       -6.30870000000000        7.49100000000000
H            1.13670000000000       -4.53530000000000        7.29720000000000
H           -0.03780000000000       -5.60900000000000        6.49760000000000
H            9.01800000000000        1.79940000000000       11.67680000000000
H            7.56210000000000        1.87160000000000       10.64100000000000
H            9.08740000000000        2.63790000000000       10.09540000000000
H            0.26370000000000       -0.51560000000000        4.79330000000000
H            1.47630000000000       -1.04640000000000        5.96450000000000
H            0.90440000000000        0.60970000000000        5.96770000000000
H           -0.73780000000000       -1.87190000000000        6.73020000000000
H           -1.43330000000000       -0.27890000000000        6.58820000000000
H           -1.08970000000000        3.07730000000000        5.29380000000000
H           -2.68830000000000        2.69290000000000        5.94740000000000
H           -1.62080000000000        1.41030000000000        5.40620000000000
H           -1.12630000000000        3.27910000000000        7.77440000000000
H           -0.01070000000000        2.01230000000000        7.27550000000000
H           -2.51910000000000        6.67030000000000        7.99420000000000
H           -4.24350000000000        6.94170000000000        7.57390000000000
H           -3.42380000000000        5.44120000000000        7.05940000000000
H           -9.40380000000000       -4.17310000000000        4.49880000000000
H           -9.38610000000000       -2.61090000000000        3.62480000000000
H           -8.19770000000000       -2.92610000000000        4.92600000000000
H           -0.71820000000000        5.41780000000000        5.53880000000000
H            0.70480000000000        4.71780000000000        6.36220000000000
H            0.49350000000000        6.49130000000000        6.29560000000000
H           -6.88410000000000       -0.13480000000000        3.65180000000000
H           -5.30370000000000       -4.01140000000000        4.22870000000000
H           -6.34830000000000        3.15740000000000        6.83540000000000
H           -3.22640000000000       -5.18710000000000        8.06720000000000
H            3.22780000000000       -4.02960000000000       10.17750000000000
H            6.89440000000000       -1.47180000000000        9.31040000000000
H            6.62250000000000        2.51080000000000        7.89130000000000
H            2.75430000000000        4.90280000000000        8.10810000000000
H           -1.88820000000000       -2.45810000000000       10.99770000000000
H           -0.57450000000000       -2.96690000000000        8.74470000000000
H           -0.69070000000000        3.42610000000000       10.06330000000000
H           -3.03020000000000        3.29270000000000        9.42290000000000
230
 energy: -436.838422909251 gnorm: 0.220195588796 xtb: 6.7.1 (edcfbbe)
C            0.14596111394003        4.14340804816710        3.19724428630904
C            0.75461791236209        2.89487851128061        3.25198848138615
C            2.08978972906041        2.75979437080109        2.77571784679384
C            2.74462189009590        3.93482138578149        2.27282702068756
C            2.01847576918812        5.12882842885669        2.10247046917688
C            0.74909814730511        5.22723825332750        2.58033940288085
C            2.88241651952752        1.56804892183856        2.90789042720805
C            4.28052529243148        1.78081499766311        2.88497694258393
C            4.82579792370003        3.01404848487898        2.41794638465243
N            4.05587361131897        4.02457543324039        2.01670822675804
C            2.44472629441753        0.20738689320594        3.04717876632361
C            3.44119575255082       -0.71715055484348        3.52817980948888
N            4.72816311119963       -0.41347029291748        3.76198830077490
C            5.17325891938084        0.76526842968843        3.32983079952119
C            6.56259100260120        0.99076234435744        3.28629514555861
C            7.06484078613853        2.16918762053672        2.77910651957170
C            6.22176567086494        3.17530196148227        2.36113656573766
C            1.20284680208852       -0.34959375733949        2.55343314861713
C            1.04663314018424       -1.74450555969422        2.60935090087955
C            1.96988151320168       -2.58538556149066        3.19140983710701
C            3.14811749768673       -2.08732681142293        3.66387018628344
O            0.05867438743208        1.87032688931516        3.82438481913976
S           -0.15449618820615        6.77349330271777        2.32490438628533
S            1.68716817711192       -4.38069213990801        3.25377598120774
S            8.86000646056338        2.44166958591028        2.67295146077539
C           -1.68505160182736       -2.22572458442140        3.60543118072503
C           -2.19410212864388       -1.02270746057604        3.12126029394582
C           -3.16584399461587       -1.06618201856387        2.06195527216826
C           -3.34067319535876       -2.32434065706664        1.38628987425467
C           -2.64827177958471       -3.47279744124338        1.81928062972055
C           -1.87488122382537       -3.42643968639704        2.93868423276973
C           -4.09849667078530       -0.02363835252968        1.71702449542749
C           -5.13220662261259       -0.36902542504178        0.82184019847642
C           -5.07526929703633       -1.58575347949253        0.08261526005161
N           -4.16377266073789       -2.52191894003386        0.34350184227347
C           -4.21572597686381        1.27558966774397        2.30606713783317
C           -5.51055987431385        1.89841726179045        2.28953884503238
N           -6.49517828873006        1.52031362837889        1.46719264709827
C           -6.27261617203852        0.47486306730547        0.67177509450618
C           -7.24608361891337        0.14221975835580       -0.28447928805721
C           -7.12087733289525       -0.98915215913850       -1.05897249464351
C           -6.05973965681245       -1.85208663888655       -0.88871393565024
C           -3.12185863102810        2.07631661689973        2.77337624660322
C           -3.42261949442552        3.19218163295380        3.55998029442877
C           -4.71895641705648        3.62310975614916        3.76719997600280
C           -5.74935671518815        3.03673971002882        3.08534789256654
O           -1.67087671940153        0.10058402331053        3.70107449680931
S           -0.98433009710487       -4.91335823710932        3.48455689048274
S           -5.05328713719628        5.09725039304221        4.78402176652705
S           -8.45426297116372       -1.36779005156985       -2.24011049936438
B           -0.82460957214465        1.07719448822660        2.94153912383055
O            8.91258734732840        3.91003364167714        2.90170243122063
O            9.23460371060256        1.77836105725783        4.16210528898176
C            8.87939999141613        2.63779732403731        5.20323260360021
O            1.09804305167214       -4.51265314347046        1.67597789783406
C            2.12939105190764       -4.42215673623818        0.73382516079784
O            3.09177237200179       -4.86522483317893        3.14550849658162
O           -0.61353137740142       -4.48033188479342        4.86843202229293
O           -2.32797017179579       -5.90008685369519        3.69822415128846
C           -2.91946406699290       -5.70606311555166        4.94656328385478
O           -9.42884573573834       -0.30109874170404       -1.89279196420541
O           -9.04804595684504       -2.72117315490759       -1.45379244118172
C           -9.61208948569002       -2.38833169878567       -0.21831058009379
O           -5.58568836436261        5.98877322825482        3.71948604802286
O           -3.44061098184457        5.57578793468705        4.93039210872106
C           -3.11938680383236        6.55610148046270        3.98940558429772
O            0.61940368781789        7.30709984200631        1.16928593174050
O           -1.51000426150248        6.05569133977424        1.60310403369899
C           -1.72076449568076        6.55917372192225        0.31628024298109
N            0.15956402162131        0.37475097908320        1.97968890438759
C            0.44847073784416        0.09562132964181       -0.43350537156745
C           -0.46365379007288       -0.09248660863852        0.76563523184765
N           -1.84642939985018        1.94786306057978        2.20488960450175
C           -2.40032738522496        2.82959906405441       -0.04165504536185
C           -1.47552401971234        2.87999018913798        1.16813476370071
H           -2.23848438788019       -6.03848221487624        5.73330579970514
H           -3.85174417204901       -6.26699112600915        4.99489460229589
H           -3.11383508502760       -4.64223675446522        5.08123489572804
H            2.89328761074423       -5.16873444970583        0.96999642943547
H            2.58267525253296       -3.42692547421279        0.77175704581682
H            1.71891119115536       -4.60755968971339       -0.25794287888575
H            9.19861356513613        2.18338616097496        6.13682833135734
H            7.79522999104179        2.78981630088096        5.21678972157775
H            9.37551268153845        3.60221207997590        5.06623239235737
H           -0.04311449075268       -0.21780637099033       -1.35286957580468
H            1.35643377307876       -0.49139181898820       -0.31044935407668
H            0.73953544203587        1.13992755752402       -0.54059059894549
H           -0.77234560684514       -1.13974001435952        0.85490551516415
H           -1.38805651851582        0.47223002454454        0.64134728768058
H           -2.08192399469865        3.53728449059375       -0.80539378206500
H           -3.41847519203032        3.08185363469227        0.25046709544250
H           -2.42133545700376        1.83917225345374       -0.49345548732353
H           -1.50079852025767        3.89674800146713        1.57502241361860
H           -0.44126946893640        2.66780382116013        0.88593983244001
H           -2.09988651999986        6.89714764318968        4.16518343144003
H           -3.81450461410712        7.39144245151747        4.09092273130897
H           -3.21278876920418        6.13963780828451        2.98300085940312
H          -10.10130151728959       -3.26974220883997        0.19200956675206
H          -10.33957616782665       -1.58219425617918       -0.35422649442475
H           -8.82713233419681       -2.05234118163870        0.46054935092247
H           -2.60473957997195        6.08414899396847       -0.10634502780683
H           -0.84242166582762        6.34431140514714       -0.29779034061478
H           -1.86542308885298        7.64080353746135        0.36552347324938
H           -8.12679108694346        0.75597550366572       -0.38213929694572
H           -6.00809624177853       -2.77143437899199       -1.44708363903158
H           -6.73242167188654        3.47481013868700        3.09723709246337
H           -2.79335552724387       -4.40261717113052        1.29721366166822
H            3.91365914106566       -2.76303454972326        4.00559584621451
H            7.23155656723316        0.22613980194595        3.64403568115261
H            6.63431100603493        4.11333063305720        2.02756915652702
H            2.48491437978659        5.97940097358507        1.63431417717752
H           -1.04384828563665       -2.21926596462479        4.46986857601074
H            0.16214502485576       -2.19204848984348        2.19502223358950
H           -0.84860097073367        4.26505213995266        3.58157088821342
H           -2.62947068313803        3.78883270606502        3.96897062045683
C            0.27202999368735        3.24243744406004        9.62962485035179
C            0.72887858778337        1.92942150263947        9.55090695873000
C            2.02371041046973        1.66255537142518        9.00211149430057
C            2.78393470783334        2.78789509648468        8.53142952401438
C            2.20605096583484        4.07274857175821        8.50982321627979
C            0.97921550449606        4.29020526226071        9.05800963248275
C            2.68811009776112        0.38366539370859        9.01004750201508
C            4.09249832418349        0.42802144701564        8.85676378880938
C            4.73674358346766        1.61412908079316        8.39661886125144
N            4.06562961187740        2.73771913710371        8.14412602170846
C            2.12479529647907       -0.92274921769925        9.19554097685441
C            3.02887991902981       -1.96788374584377        9.59784156127306
N            4.36192519033602       -1.84052983879146        9.63508438581605
C            4.89369714404627       -0.70789520166598        9.17537401149854
C            6.29282308821265       -0.63220692536657        9.03466283548715
C            6.88647108729902        0.51447359243151        8.55428909463478
C            6.13138508379030        1.61794426981968        8.22491394975613
C            0.79302639604352       -1.32344842598715        8.83254958405725
C            0.40505580809588       -2.64818450174920        9.05365477189179
C            1.24208849396924       -3.58364395732762        9.62611107014721
C            2.54568923497892       -3.26431179879887        9.87468961860298
O           -0.13391748564933        0.97942966370455       10.00506740931999
S            0.22216142000097        5.92398388829708        8.89199734995212
S            0.64746909229447       -5.27979525121809        9.93050544796836
S            8.69372085329529        0.61505545888344        8.40000009541503
C           -2.37545434228139       -2.63491965456851       10.05675120960431
C           -2.63226008784194       -1.54807836822131        9.22414703178838
C           -3.31530935859653       -1.74699531062179        7.98026898663942
C           -3.49269041503134       -3.11247141007973        7.56882683264231
C           -3.09466251349681       -4.18049380718441        8.40059832901965
C           -2.57852663625649       -3.93942357792516        9.63860002448476
C           -3.94364096619716       -0.72868487138617        7.16697295165172
C           -4.68966656890784       -1.18746147105967        6.05544956102193
C           -4.64826298898228       -2.55763430829533        5.66812893160892
N           -4.05018707743669       -3.48497624375448        6.41069276546975
C           -4.06356992292217        0.67235346924472        7.44898921854236
C           -5.14499936450151        1.37817545238946        6.81559989502919