156
 energy: -253.999136590825 gnorm: 0.139818592937 xtb: 6.7.1 (edcfbbe)
C            1.21340000000000        3.10460000000000       -2.96240000000000
C            1.95830000000000       -2.76760000000000        1.51540000000000
C           -3.53580000000000        1.96360000000000       -1.67200000000000
C           -2.77090000000000        0.95600000000000       -1.09840000000000
C           -1.35540000000000        1.16860000000000       -0.96920000000000
C           -0.75250000000000        2.20740000000000       -1.73090000000000
C           -1.57430000000000        3.19820000000000       -2.26540000000000
C           -2.94910000000000        3.09990000000000       -2.20570000000000
C           -0.51030000000000        0.31190000000000       -0.18030000000000
C            0.84520000000000        0.18230000000000       -0.57490000000000
C            1.40190000000000        1.09330000000000       -1.51410000000000
N            0.62050000000000        2.14630000000000       -2.00770000000000
C           -0.94980000000000       -0.38820000000000        0.99390000000000
C           -0.16240000000000       -1.46230000000000        1.48890000000000
N            1.10950000000000       -1.70120000000000        0.94710000000000
C            1.63830000000000       -0.87310000000000       -0.05020000000000
C            2.92300000000000       -1.04780000000000       -0.55350000000000
C            3.46780000000000       -0.16490000000000       -1.46720000000000
C            2.71900000000000        0.90610000000000       -1.91430000000000
C           -2.08410000000000        0.05020000000000        1.75880000000000
C           -2.52420000000000       -0.74290000000000        2.80940000000000
C           -1.82170000000000       -1.86770000000000        3.20440000000000
C           -0.64670000000000       -2.20220000000000        2.56540000000000
O           -2.63210000000000        1.30610000000000        1.49550000000000
O           -3.29940000000000       -0.26880000000000       -0.69900000000000
C           -3.78150000000000        4.18320000000000       -2.76970000000000
C           -2.26670000000000       -2.63540000000000        4.38750000000000
C            4.83970000000000       -0.35470000000000       -1.98800000000000
O            5.28320000000000        0.43410000000000       -2.80240000000000
O            5.53420000000000       -1.43740000000000       -1.52290000000000
C            6.78610000000000       -1.47520000000000       -2.12890000000000
O           -3.24520000000000        5.15880000000000       -3.26180000000000
O           -5.13600000000000        4.01030000000000       -2.69720000000000
C           -5.77420000000000        5.11400000000000       -3.25260000000000
O           -3.40330000000000       -2.50160000000000        4.80160000000000
O           -1.32590000000000       -3.44700000000000        4.96450000000000
C           -1.81250000000000       -3.93240000000000        6.17360000000000
H           -4.60500000000000        1.88410000000000       -1.71210000000000
H           -1.16060000000000        4.07490000000000       -2.72650000000000
H           -3.38610000000000       -0.46480000000000        3.38490000000000
H           -0.11060000000000       -3.05220000000000        2.93980000000000
H            3.52700000000000       -1.87900000000000       -0.24740000000000
H            3.19530000000000        1.58090000000000       -2.59910000000000
C            1.80290000000000       -4.08230000000000        0.77020000000000
C            2.72170000000000       -5.16870000000000        1.30140000000000
C            1.90930000000000        4.25640000000000       -2.25460000000000
C            2.57160000000000        5.22650000000000       -3.21740000000000
C           -3.90030000000000        1.54510000000000        2.05610000000000
C           -4.64930000000000       -0.47680000000000       -1.03520000000000
H           -6.85520000000000        4.97130000000000       -3.19590000000000
H           -5.46220000000000        5.21600000000000       -4.29460000000000
H           -5.48350000000000        6.00750000000000       -2.69490000000000
H           -1.11380000000000       -4.66530000000000        6.58080000000000
H           -2.78920000000000       -4.39300000000000        6.00770000000000
H           -1.91190000000000       -3.08990000000000        6.86260000000000
H            7.34630000000000       -2.33370000000000       -1.75330000000000
H            7.31830000000000       -0.54890000000000       -1.89970000000000
H            6.65250000000000       -1.55870000000000       -3.21000000000000
H            1.73510000000000       -2.88970000000000        2.57630000000000
H            3.00050000000000       -2.44170000000000        1.50900000000000
H            1.99220000000000       -3.91170000000000       -0.29710000000000
H            0.75520000000000       -4.40410000000000        0.82250000000000
H            3.76780000000000       -4.86490000000000        1.23640000000000
H            2.61450000000000       -6.10310000000000        0.74730000000000
H            2.51340000000000       -5.38330000000000        2.35020000000000
H           -4.25850000000000        2.51110000000000        1.69670000000000
H           -3.82650000000000        1.58430000000000        3.14040000000000
H           -4.59270000000000        0.76070000000000        1.74970000000000
H           -4.92430000000000       -1.48930000000000       -0.73740000000000
H           -4.78160000000000       -0.37420000000000       -2.11310000000000
H           -5.28190000000000        0.23300000000000       -0.50160000000000
H            3.06570000000000        6.04810000000000       -2.69520000000000
H            1.84180000000000        5.66260000000000       -3.90120000000000
H            3.32500000000000        4.72400000000000       -3.82600000000000
H            2.64970000000000        3.85070000000000       -1.55360000000000
H            1.18040000000000        4.78210000000000       -1.62530000000000
H            0.44170000000000        3.47500000000000       -3.64050000000000
H            1.90490000000000        2.57570000000000       -3.62200000000000
C            0.01420000000000        2.28160000000000        2.74780000000000
C            2.87600000000000       -3.50620000000000        6.32210000000000
C           -3.40130000000000        1.19970000000000        6.27040000000000
C           -2.37470000000000        0.29700000000000        6.51450000000000
C           -1.09060000000000        0.54000000000000        5.91490000000000
C           -0.99680000000000        1.52020000000000        4.88870000000000
C           -2.05730000000000        2.40370000000000        4.70700000000000
C           -3.24110000000000        2.26220000000000        5.39890000000000
C            0.05990000000000       -0.27070000000000        6.20120000000000
C            1.09170000000000       -0.34720000000000        5.23240000000000
C            1.12860000000000        0.58310000000000        4.15930000000000
N            0.09130000000000        1.50730000000000        4.00480000000000
C            0.21810000000000       -1.03890000000000        7.40570000000000
C            1.05890000000000       -2.18450000000000        7.37910000000000
N            1.99040000000000       -2.32620000000000        6.34190000000000
C            2.08680000000000       -1.35930000000000        5.33080000000000
C            3.11140000000000       -1.37070000000000        4.39170000000000
C            3.18710000000000       -0.41800000000000        3.39350000000000
C            2.20180000000000        0.54130000000000        3.27970000000000
C           -0.39460000000000       -0.66150000000000        8.64880000000000
C           -0.43080000000000       -1.59970000000000        9.67210000000000
C            0.20380000000000       -2.82510000000000        9.54850000000000
C            0.97250000000000       -3.09140000000000        8.43380000000000
O           -0.87020000000000        0.64020000000000        8.78430000000000
O           -2.58300000000000       -0.86660000000000        7.25500000000000
C           -4.37290000000000        3.16600000000000        5.10230000000000
C            0.10370000000000       -3.82280000000000       10.63400000000000
C            4.30220000000000       -0.43190000000000        2.42550000000000
O            4.43390000000000        0.49480000000000        1.64700000000000
O            5.11970000000000       -1.52870000000000        2.45880000000000
C            6.09800000000000       -1.40050000000000        1.48050000000000
O           -4.30380000000000        3.91700000000000        4.14670000000000
O           -5.46010000000000        3.07340000000000        5.92630000000000
C           -6.43140000000000        3.98070000000000        5.51660000000000
O           -0.54570000000000       -3.56910000000000       11.63150000000000
O            0.76540000000000       -5.00300000000000       10.43150000000000
C            0.57760000000000       -5.83300000000000       11.53180000000000
H           -4.35670000000000        1.08090000000000        6.74350000000000
H           -1.98910000000000        3.20800000000000        3.99900000000000
H           -0.94550000000000       -1.39340000000000       10.59100000000000
H            1.48940000000000       -4.03110000000000        8.40080000000000
H            3.88300000000000       -2.11450000000000        4.41750000000000
H            2.30190000000000        1.26060000000000        2.48950000000000
C            2.26200000000000       -4.64460000000000        5.52320000000000
C            3.15760000000000       -5.86850000000000        5.45090000000000
C            0.69680000000000        3.63490000000000        2.83190000000000
C            0.65640000000000        4.37510000000000        1.50580000000000
C           -1.59500000000000        0.88950000000000        9.96230000000000
C           -3.93020000000000       -1.24050000000000        7.41710000000000
H           -7.29350000000000        3.91070000000000        6.18290000000000
H           -6.72890000000000        3.74490000000000        4.49240000000000
H           -6.01080000000000        4.98850000000000        5.55160000000000
H            1.11090000000000       -6.77200000000000       11.37120000000000
H           -0.49110000000000       -6.02420000000000       11.65310000000000
H            0.96110000000000       -5.33070000000000       12.42300000000000
H            6.75330000000000       -2.27340000000000        1.50360000000000
H            6.67210000000000       -0.49020000000000        1.66800000000000
H            5.60400000000000       -1.32600000000000        0.51000000000000
H            3.09410000000000       -3.81830000000000        7.34560000000000
H            3.85280000000000       -3.23160000000000        5.92080000000000
H            2.02450000000000       -4.28300000000000        4.51570000000000
H            1.29040000000000       -4.90560000000000        5.96030000000000
H            4.11250000000000       -5.63060000000000        4.97970000000000
H            2.69980000000000       -6.67760000000000        4.87850000000000
H            3.37690000000000       -6.25440000000000        6.44760000000000
H           -1.98070000000000        1.90870000000000        9.91720000000000
H           -0.93970000000000        0.79360000000000       10.82900000000000
H           -2.43340000000000        0.19480000000000       10.03000000000000
H           -3.96260000000000       -2.22010000000000        7.89460000000000
H           -4.39840000000000       -1.31210000000000        6.43300000000000
H           -4.44870000000000       -0.52210000000000        8.05240000000000
H            1.15020000000000        5.34700000000000        1.56190000000000
H           -0.37150000000000        4.54370000000000        1.18060000000000
H            1.14920000000000        3.79730000000000        0.72240000000000
H            1.73390000000000        3.49720000000000        3.16260000000000
H            0.22490000000000        4.23180000000000        3.62230000000000
H           -1.03260000000000        2.39480000000000        2.45630000000000
H            0.44550000000000        1.68550000000000        1.94010000000000
156
 energy: -254.028267024980 gnorm: 0.062815540512 xtb: 6.7.1 (edcfbbe)
C            1.20853691980643        3.09503443326637       -2.95126488197299
C            1.94863020659587       -2.75989847010132        1.50658593116487
C           -3.53808266178861        1.95381636977687       -1.66950729575575
C           -2.76586697745226        0.96330658880600       -1.09198287779574
C           -1.35479079186106        1.15505456535371       -0.97941452903521
C           -0.75082316288417        2.18741653875221       -1.74775092208271
C           -1.56277882907958        3.19222798567535       -2.26776362682137
C           -2.94446565113153        3.09583235385343       -2.19665003340572
C           -0.51432319905576        0.31249927830581       -0.18024000559067
C            0.84271353630615        0.18443468525952       -0.57231827802909
C            1.39580229990550        1.09315825142797       -1.51739122146356
N            0.61813385507515        2.14176433661968       -2.00505116291916
C           -0.94367286243976       -0.38033682497464        0.99685730208822
C           -0.14679904290365       -1.44795626448082        1.49571810062226
N            1.10873718031771       -1.69833518985918        0.94494061791190
C            1.63661892952959       -0.87012628163131       -0.04193913037803
C            2.91591214239835       -1.05913888693756       -0.54760217369671
C            3.45677481219694       -0.16828449142005       -1.46600765621897
C            2.71283209823103        0.91395056479957       -1.91577851071070
C           -2.08362145277632        0.03429362934527        1.75262877737915
C           -2.51990454873555       -0.73980976265830        2.80952416739887
C           -1.80777103234710       -1.86637267736936        3.20118451232817
C           -0.62392159722113       -2.20073201992859        2.56357056616292
O           -2.63836400882344        1.26576456112926        1.47306550494267
O           -3.28786023126234       -0.24797654659323       -0.69376181035906
C           -3.75407001332888        4.18784653060766       -2.76414835331890
C           -2.27971234638484       -2.62226106623252        4.37210154240958
C            4.81924614051682       -0.33373462839621       -2.00462007249656
O            5.28381899605437        0.44259515758282       -2.81073939728084
O            5.50925635955327       -1.41386570183978       -1.55476821629375
C            6.78932092214027       -1.47676882483241       -2.13586987827195
O           -3.24255283928882        5.16656830610779       -3.26519308068484
O           -5.09831747160263        4.01687228719352       -2.69681592041276
C           -5.77677615023124        5.11647802943790       -3.25343374934149
O           -3.40941155914775       -2.50368006415362        4.79594896949768
O           -1.34916787822066       -3.42248983335040        4.95276155352935
C           -1.81340794196307       -3.93604571811335        6.17817524239252
H           -4.60972434758064        1.87627285568100       -1.71639524623273
H           -1.15355904767402        4.07459272183243       -2.72801699586080
H           -3.38798543379353       -0.46810089001944        3.38502980233749
H           -0.09687955345923       -3.06029262323926        2.93321616967294
H            3.52211584665659       -1.89309043285476       -0.24651526523013
H            3.19811676613233        1.58701881839898       -2.59940039865514
C            1.79383916911550       -4.08179166894647        0.76060463303132
C            2.72002123483951       -5.16128789670756        1.30346796651461
C            1.90716562545829        4.25392801241987       -2.24375898433410
C            2.56658009178493        5.21845945234059       -3.21951463896325
C           -3.90012491789348        1.53172775928739        2.04413234357789
C           -4.63838906100198       -0.47213800645623       -1.03048973146444
H           -6.85069641638844        4.94714963987583       -3.18410474485343
H           -5.48125326745253        5.23626288657922       -4.29941237524347
H           -5.50343570413025        6.02465654971063       -2.70910689948400
H           -1.09811535400581       -4.66290592872486        6.56015689793156
H           -2.78904793766921       -4.40790811221487        6.03281903806385
H           -1.91518446416501       -3.11075959503994        6.88740213735692
H            7.32228192927391       -2.34070309530950       -1.73991079132528
H            7.33961917391428       -0.55957547932938       -1.90925872531723
H            6.68512652996656       -1.56202409824535       -3.22042706454616
H            1.71411479431497       -2.88279770626551        2.56564003035575
H            2.99063793844949       -2.43702894392539        1.48929181495595
H            2.00003096211223       -3.91447494311815       -0.30131707230315
H            0.75201619742202       -4.41036315995701        0.82893273833053
H            3.76312564113627       -4.85422040504236        1.23302714496260
H            2.60694836670195       -6.08933523337034        0.74478935055974
H            2.50584976898224       -5.37472050563755        2.34979214677742
H           -4.23227352900320        2.50300462211828        1.67597997068088
H           -3.83550349760725        1.58294867623762        3.13064424020630
H           -4.61463476180891        0.75935792441654        1.75287504145006
H           -4.89053880847637       -1.48834893884903       -0.72627986436787
H           -4.78836026995016       -0.37624820044165       -2.11004911188975
H           -5.29463038341128        0.22636185861044       -0.50444060488875
H            3.05612580919558        6.03388263852478       -2.68883648939553
H            1.83353504943122        5.65489605976073       -3.89707456431009
H            3.32146426643455        4.71352658899723       -3.82127291681894
H            2.65874588795322        3.84959155032708       -1.55814790170428
H            1.17489588706616        4.78862700202969       -1.63059330003725
H            0.42943387252755        3.47004957849190       -3.61853289665082
H            1.91004731305883        2.56538063417158       -3.60134627071402
C            0.01967607288789        2.27829816015659        2.76370039620965
C            2.86547067479500       -3.49504133982311        6.32125873709905
C           -3.40134649105025        1.19206531587394        6.27718624957009
C           -2.37061557320848        0.30147129597526        6.51409295573225
C           -1.09537107760442        0.52248571619142        5.90580458199337
C           -1.00277712453804        1.49658903280784        4.87255857692302
C           -2.04654666452701        2.40014019899262        4.70027898003503
C           -3.23203120919297        2.26385485119145        5.40915707830607
C            0.05452440087803       -0.27598660778261        6.20228935082710
C            1.08423075210944       -0.35332454209817        5.23186245379403
C            1.11718872550451        0.57685114818715        4.15674298878836
N            0.08968267801028        1.50001235063774        4.00721600129161
C            0.22352993485585       -1.03291065281518        7.40609762671103
C            1.07224090118482       -2.17286126048066        7.37905229188959
N            1.98520913638652       -2.32449578511905        6.33945459211733
C            2.08143212890925       -1.36446479982297        5.33446293884388
C            3.10748558854054       -1.38360812112435        4.40027130401213
C            3.17979718663234       -0.42054846485888        3.40140613526686
C            2.19291247326142        0.54668194032433        3.28034200402182
C           -0.39708890467679       -0.67400294651277        8.64097436023080
C           -0.42774027628127       -1.59586175974051        9.67005732852308
C            0.20552644145591       -2.82712309709987        9.53588093207288
C            0.98453596174448       -3.09328403697156        8.41922155484381
O           -0.87530309871787        0.60957827762652        8.77004662501573
O           -2.57311001649732       -0.84941132686738        7.24596466451618
C           -4.34641920516331        3.17747907128672        5.09950396108711
C            0.08876183929746       -3.80221276042329       10.63228159034773
C            4.28630918032750       -0.40941844705241        2.43068617967891
O            4.43849413056464        0.50111310492078        1.64455465583437
O            5.10129897594902       -1.49503912152246        2.46784064272058
C            6.10732518737079       -1.39992294901881        1.48838189425255
O           -4.30302267414313        3.93466896973407        4.15206076388030
O           -5.42966522310633        3.08001775240578        5.90914346926182
C           -6.43532082708787        3.98264762880362        5.51799624317104
O           -0.54967070859439       -3.56824142866097       11.63636556330305
O            0.74728838067488       -4.97389896529568       10.43785508625633
C            0.57791584798573       -5.83708977627241       11.53550414103698
H           -4.36211540266420        1.07219008800917        6.74476293295210
H           -1.97975260455619        3.21226569037739        3.99739934602208
H           -0.94126474334518       -1.39519776201149       10.59457222928955
H            1.50085757181282       -4.03514334735428        8.38996664105759
H            3.88453795120405       -2.12530269737037        4.42355095473564
H            2.30149987310033        1.26511087360030        2.48749203916643
C            2.25298694257618       -4.64124439133096        5.52037325645089
C            3.15953032391629       -5.86175141326741        5.45465681894098
C            0.70348533398840        3.63785746537390        2.84581532669593
C            0.65342491099812        4.36684524017475        1.50973971574429
C           -1.59257877286119        0.88289675104981        9.95197594416734
C           -3.92232480762583       -1.23065752238920        7.42134760548378
H           -7.28192804552562        3.89064144771524        6.19704721865032
H           -6.74839768191453        3.76146670731637        4.49381784764908
H           -6.03871453542726        5.00128838819400        5.54711014951627
H            1.11957001253017       -6.76351286956568       11.34842522918017
H           -0.48660095833420       -6.04485680566056       11.67403373484934
H            0.95809223303345       -5.35453995000312       12.44001891630219
H            6.74323518806059       -2.28300018519671        1.53482759603670
H            6.69824021149290       -0.49620296926750        1.65634563513792
H            5.63870689890074       -1.32803278379736        0.50596532192081
H            3.07192354733991       -3.80850237332880        7.34717817411538
H            3.83721133229080       -3.21836766944820        5.90742499222427
H            2.03279326948133       -4.28311628955514        4.50998098264245
H            1.29161545648872       -4.91167138941273        5.96698461119107
H            4.10990351669158       -5.62023820235480        4.97954038255064
H            2.69466278448761       -6.66359028989583        4.88225185343399
H            3.37228550918961       -6.24586189946354        6.45162233862780
H           -1.96482593396317        1.90571538456112        9.88550623053141
H           -0.94649781485719        0.79810438009564       10.83062831452952
H           -2.44087975789337        0.19986982788764       10.04553034652316
H           -3.92949317297915       -2.21118524289311        7.89766075774993
H           -4.41324678477572       -1.31160293273623        6.44799370292516
H           -4.45575121076303       -0.52590428157371        8.06370353019223
H            1.14766577468138        5.33537398244926        1.57371908936451
H           -0.37512335120487        4.53441124437121        1.19110369643322
H            1.15105005486397        3.78689212902345        0.73318115938329
H            1.74339821850716        3.50036526766921        3.15769407762330
H            0.21985272534452        4.23985120094142        3.62112025472932
H           -1.02606562568111        2.40320371213233        2.47802854593265
H            0.46205052330029        1.68464569463659        1.95959898421524
156
 energy: -254.040317615352 gnorm: 0.016341130398 xtb: 6.7.1 (edcfbbe)
C            1.20336471349222        3.08353445589408       -2.94003665007675
C            1.94186082004817       -2.75012081039950        1.49621188107576
C           -3.54048057224600        1.95123534363109       -1.67359887381296
C           -2.76289646981178        0.96853158175730       -1.09725734614344
C           -1.35451811144055        1.14445638394057       -0.98809151250255
C           -0.74853952954712        2.17355503275066       -1.75745350562414
C           -1.55324973202856        3.18756463730030       -2.26827688161873
C           -2.93918183770221        3.09652292072614       -2.19210615925227
C           -0.51823082066876        0.31148738287952       -0.18082022467138
C            0.84161152579928        0.18577742938957       -0.57056633852588
C            1.39155851352600        1.09338663636053       -1.51745367019438
N            0.61613587377218        2.13824533165583       -1.99878379587678
C           -0.93873931918394       -0.37539746052320        0.99945320799039
C           -0.13478265464970       -1.43754368540570        1.50234555701545
N            1.10771514999966       -1.69531856442784        0.94072530899038
C            1.63638369662598       -0.86807045676572       -0.03971365689895
C            2.91193259097709       -1.06835062755759       -0.55109598713145
C            3.44767909906759       -0.17097819671729       -1.46965233903837
C            2.70835156752481        0.91993248192398       -1.91541056988135
C           -2.08217224652889        0.02225737272567        1.75004386897735
C           -2.51787599470477       -0.74168536128014        2.80937076518351
C           -1.79804809858838       -1.86701981150923        3.20103243815822
C           -0.60838814313587       -2.19929721162565        2.56555078477339
O           -2.64657114333864        1.22799643257881        1.44960458524262
O           -3.27925140094702       -0.22968775142720       -0.69367517432002
C           -3.72317594526067        4.19917171014272       -2.76466155926579
C           -2.29513127459112       -2.60704336398667        4.36484361156333
C            4.80099086242180       -0.31028645327026       -2.02734435995679
O            5.28164568497036        0.46063552648350       -2.82572827723721
O            5.48819932750845       -1.39002382521507       -1.59116479938899
C            6.79252714183128       -1.47969380060769       -2.14532350062954
O           -3.22787308326948        5.18296124605227       -3.26841144886650
O           -5.06021574407011        4.03236373594240       -2.69823662253172
C           -5.78048755203717        5.12150227542710       -3.25428290751139
O           -3.42428109855452       -2.50368693040623        4.79057968359045
O           -1.37321197691694       -3.39747348908220        4.95103154706872
C           -1.81318315761877       -3.94421362568589        6.18571914163606
H           -4.61269930073063        1.87877705995410       -1.72481549679408
H           -1.15236421462536        4.07619928652518       -2.72444111221972
H           -3.39037865941743       -0.47955617025993        3.38370402478650
H           -0.09605105318952       -3.06956327348283        2.93127377718207
H            3.52082249186603       -1.90517481226411       -0.26224023303913
H            3.20685543588532        1.58981800286598       -2.59317837320903
C            1.78397677581964       -4.07860222973637        0.75101785116296
C            2.71609777207662       -5.15219863874001        1.30354587127433
C            1.90388385721427        4.24832571334041       -2.23262229099688
C            2.56013959510414        5.20793347691010       -3.21972082943286
C           -3.90153767167387        1.52137319512252        2.02641103178412
C           -4.62814288836831       -0.47625362109455       -1.02241926698560
H           -6.84417205428818        4.90892048397626       -3.16394345432939
H           -5.50322877917339        5.25069842221161       -4.30444405130919
H           -5.52632617744908        6.04105387731321       -2.71934129197922
H           -1.07233112546000       -4.66423348861147        6.52730251213569
H           -2.78528097880590       -4.42688956542150        6.05336020527534
H           -1.91207893962684       -3.13571508663408        6.91406891439929
H            7.28480782539010       -2.35269979529227       -1.71963633054921
H            7.35732544462640       -0.57255826148374       -1.91397073037713
H            6.71813211679933       -1.57040490427260       -3.23226655961804
H            1.70483333502535       -2.87561522408762        2.55284220255741
H            2.98394790354069       -2.43450195776347        1.47172164547883
H            2.00060702432532       -3.91712075169459       -0.30675928143672
H            0.74768938796941       -4.41294700509084        0.83062603180700
H            3.75550234041674       -4.83894458621063        1.23018410592239
H            2.60028619591555       -6.07685323215569        0.74289946378351
H            2.49657044913151       -5.36090858333872        2.34813408459206
H           -4.20323922185370        2.49591695769855        1.64241204641988
H           -3.84060443266081        1.58580918426691        3.11402526938870
H           -4.63872589404197        0.76139548634130        1.75181942785459
H           -4.84754719203346       -1.49671932238899       -0.70807081825952