116
 energy: -22.928061455056 gnorm: 0.329736929581 xtb: 6.6.1 (8d0f1dd)
C           -3.31122850772930        0.79849766164622       -0.92477639677520
C           -2.44380812530352       -0.12270372891954       -0.27661132624697
C           -1.41337090092821        0.39579727573559        0.56335275196199
C           -0.89266158675590        1.65801491088749        0.27377586709581
C           -1.72665675402493        2.51431363229076       -0.49448366572522
C           -2.95444148494349        2.13954154133227       -1.01494489940871
C           -0.74098268209890       -0.43411532818871        1.49825021926784
C            0.56872586496315        0.03782116815119        1.86248088067890
C            1.03782416582094        1.29402317993033        1.50887470833621
N            0.31238977034758        2.07067427098208        0.65193736800696
C           -1.29695700510141       -1.39996043042223        2.41574187746061
C           -0.38243517664656       -2.18060797534842        3.13232615520648
N            0.91308504082021       -1.90366887689689        3.30325166013478
C            1.37712470144904       -0.74872102533751        2.81811050966982
C            2.52149331701875       -0.17739833758153        3.39379298866852
C            2.95849061756259        1.02681208890480        2.95105897606587
C            2.24288949469137        1.78498308775960        2.03503020483770
C           -2.74860936222260       -1.74497937691422        2.38401158947411
C           -3.09416315450955       -2.91614440870436        3.00571134491758
C           -2.16786021984049       -3.77788778654213        3.63251872101904
C           -0.85708937311598       -3.40495313382985        3.68547234358092
O           -3.71994433332149       -0.94984598373544        1.67726658385724
O           -2.55702603277562       -1.47241711578389       -0.57241635275616
C           -3.84297843593025        3.13357444054366       -1.60938954875544
C           -2.68769581069131       -5.03867041417370        4.30484659386931
H           -1.39666850744143        3.51251503834900       -0.76806311868865
H           -4.27662633836220        0.55105838579656       -1.33106614114542
H            2.66329581305412        2.73912661909249        1.72562431984580
H            3.05775395548473       -0.69369546277216        4.16536137542516
H           -0.24710966264510       -4.12034095424229        4.22946223699121
H           -4.11477991332403       -3.04712728052358        3.03244694615357
O           -4.21824883374556        4.03433712717988       -0.87713382485991
O           -4.44510595673734        2.90643496899600       -2.81853501752979
C           -5.44216520282800        3.83300025693726       -3.02488532025093
C            4.23586651889298        1.50004220933226        3.59165660008449
O            5.05927614697201        0.66079890002952        3.91714215179376
O            4.47001334453535        2.86385149488593        3.72605651435371
C            5.79457498613219        3.08584475587818        4.15829123132174
O           -3.82227255313510       -5.27347675879771        4.16636005494405
O           -1.85023202017753       -5.79767454267276        5.06656077253571
C           -2.55119635829503       -6.86252441382958        5.62930343183426
C           -5.07197156564436       -1.42399175670916        1.58830531863830
C           -1.33089900128490       -2.23622472573986       -0.99264499351172
H           -2.54510546830388       -7.76426885143998        4.99136022291012
H           -3.57194749219491       -6.44405511486021        5.74196173723541
H           -2.09133598235598       -7.02043774843818        6.64022264233588
H            5.72707967266424        3.46798026205549        5.10135971236643
H            6.34060091246885        3.78468702308830        3.50069950143490
H            6.17933064298187        2.03010500085905        4.19342358084693
H           -0.91862729772622       -2.57650129080332       -0.01361370304871
H           -0.49769766914251       -1.60651221708571       -1.34094446550576
H           -1.52632419730509       -2.94569707152159       -1.75361447637286
H           -5.11788846557077       -2.41810833635233        1.17520213188926
H           -5.67929807973498       -0.69619639428435        1.04301666067831
H           -5.57598832326623       -1.42383358739762        2.57928294206544
H           -6.13050215934830        3.76035386975488       -2.23272855695873
H           -5.86615610071888        3.45938329385866       -4.02668959924245
H           -5.13479557532099        4.87790991548477       -2.98314551356402
C           -1.38192942069774        3.73616555005018        2.91232598411686
C           -1.84821468128685        2.59982427735607        3.49755545445181
C           -1.05946531454833        2.05730632010638        4.60922730982276
C            0.19893954712228        2.69376791964407        4.86302140881997
C            0.50425395911860        3.94630308659851        4.28768785650746
C           -0.26031777722226        4.46998310053134        3.25072669343212
C           -1.20488993561782        0.74454293276906        5.14851520323437
C           -0.06287609782692        0.02744069315890        5.60930570802864
C            1.19208754369866        0.71421540266195        5.78882868583885
N            1.19428660993148        2.06344359410476        5.62744624321596
C           -2.41361422770794        0.07928500213936        5.25249410304426
C           -2.45851584031083       -1.32662100968547        5.60237876023992
N           -1.29466212405906       -1.98318595734370        5.89916817085159
C           -0.14475655767527       -1.32117560077092        5.98824682881008
C            0.97209270935794       -1.98958449505532        6.53157704134458
C            2.21982707914082       -1.36973967291181        6.68703967237737
C            2.30561929262884       -0.09745313075593        6.26436900324455
C           -3.73018485967715        0.71367583494582        5.25810242262992
C           -4.89964478833448       -0.06184623426677        5.21204641615509
C           -4.82617965800088       -1.39228978090841        5.46901303780036
C           -3.67144193418464       -1.98914944386360        5.67265433266067
O           -3.75568638935321        2.07705011038914        5.52067969627343
O           -2.94192434743730        1.91263938797883        3.01658762327703
C            0.21273512614467        5.50086066357994        2.34765104514621
C           -6.06660304520411       -2.17604633098929        5.80641622556876
H            1.41756699010566        4.38133362238595        4.66974005703471
H           -1.82880610647429        4.11982501512100        2.06992133318584
H            3.26888037378556        0.32655662585251        6.31721410015598
H            0.87146188387207       -3.08471526305024        6.57830423410869
H           -3.67716811065157       -3.05999292755990        5.83019634570050
H           -5.77379677507622        0.43595144608221        4.71017130754348
O            1.34459852619901        5.82615848916894        2.44941456579099
O           -0.74718748219123        6.07961784856304        1.59848183464284
C           -0.21473095568964        7.24015934882472        1.05753806029483
C            3.53228080814219       -2.00967610361154        7.02506769044485
O            3.64093082622715       -3.14437803815732        7.50071391725347
O            4.56565258381079       -1.22937033368332        6.69086985080897
C            5.72579357310716       -1.80692399125161        7.22246151275881
O           -7.04801223588612       -1.95726935745904        5.14194115322235
O           -6.01514389321278       -2.93743591896022        6.94765316328794
C           -7.21292732384718       -3.62681918543340        7.15115816329978
C           -4.95459780685163        2.65960679932188        5.86868674392943
C           -3.68284113682406        2.59129188358641        2.05479246020704
H           -7.43119628931628       -4.22607794725959        6.20622607140901
H           -8.06548455146707       -2.91765848248592        7.29781126410398
H           -7.07314693247270       -4.33087306029711        7.91223421050944
H            6.57332189837178       -1.29353136199234        6.78341268688262
H            5.74663761932316       -2.84282155125561        6.88089468184451
H            5.69426191474290       -1.72781984964892        8.29460302186842
H           -4.10481209541493        3.44288266176275        2.60483747673152
H           -4.49244774344916        1.87419893016926        1.82433103764650
H           -3.18901540870812        2.85154642679373        1.06781919454921
H           -5.55414326821421        2.76698137191684        4.93950725322359
H           -4.78658370641210        3.62090640967288        6.25983200635257
H           -5.43485580473958        1.97242995129449        6.65265772412460
H            0.89164886030839        7.38838561720231        1.13776105146914
H           -0.62894889903848        8.04195665205089        1.64837664327952
H           -0.59282546386754        7.45699159724320        0.03719083132488
116
 energy: -22.683387591081 gnorm: 0.509501140321 xtb: 6.6.1 (8d0f1dd)
C           -3.24467536628621       -0.29340874883669       -1.81866580075919
C           -2.32849974469216       -1.12901013548543       -1.00695581074946
C           -1.67167688534456       -0.38076969988271        0.06111997612065
C           -1.36250244026876        1.01103271461867        0.04460742033847
C           -2.26958578000295        1.70935310358932       -0.80173508717891
C           -3.27770075953648        1.14719530434725       -1.56302380874794
C           -0.82013476572802       -1.15630168773082        0.95495381058071
C            0.28755494340966       -0.35474123388512        1.38159966147445
C            0.52428443464877        1.05715852555173        0.99168845214573
N           -0.47627139638894        1.86093904713203        0.50500703703846
C           -1.33268138219554       -2.16989485299500        1.95719932737272
C           -0.33467355077233       -2.64075078614407        2.83115182850024
N            0.97854932517258       -2.21086261582320        2.81649211552757
C            1.27729461994128       -1.03700625387046        2.20595227108475
C            2.47158996449809       -0.32404605972765        2.51528441136362
C            2.76990133556650        0.93333096500336        2.04674076028909
C            1.82924604025212        1.62136673391657        1.34703446365297
C           -2.68580009107641       -2.63789409381039        2.07010042613753
C           -2.97838875040135       -3.64681515497972        3.00338624231806
C           -1.93208419333582       -4.15599321788762        3.80674424485674
C           -0.59381608228105       -3.64397455285483        3.65527789332282
O           -3.76427038948092       -1.93026962976646        1.40314279701726
O           -2.16585254520931       -2.54846482816254       -1.20988446468610
C           -3.94691676321635        2.00474634720861       -2.55406755637240
C           -2.21619435652411       -4.95537672423941        4.97483814387478
H           -2.04233990767729        2.76761871682110       -1.05140357280900
H           -3.75701627010545       -0.63853679902215       -2.72500680910104
H            2.04859677579326        2.69379003606654        1.17220856315550
H            3.16340331031971       -0.89236409828582        3.01897583253354
H            0.18956949528282       -3.93608425793251        4.32668556092399
H           -4.07395098360557       -3.99901094706869        3.10972176255412
O           -5.10607196900229        2.01651626274521       -2.88038534821327
O           -2.86509934689314        2.71847791477293       -3.10148534242625
C           -3.22484157280526        4.01269098231372       -3.48916887807843
C            4.02799173000762        1.47286280539065        2.27018264392031
O            4.76509863398322        0.74223289167594        2.95970676817505
O            4.28842548029859        2.79885821031811        1.85103517829286
C            5.37103005252526        3.39217438627297        2.48878800578030
O           -3.43028711159631       -5.27495018912541        5.29566632067645
O           -1.14921475165384       -5.29819008129938        5.72259320123266
C           -1.53708027226623       -5.81624931453632        6.90925694588095
C           -5.09071946255785       -1.97006580146737        1.89283715679736
C           -2.43563921607885       -3.00380107937036       -2.58027516651005
H           -2.29040912800479       -6.58189719727619        6.54275873060883
H           -1.99749592715551       -4.95525246226720        7.64135968186069
H           -0.68683779305640       -6.21946605271286        7.53907753641896
H            6.43731677808649        3.28417952200794        1.86116850338796
H            5.44815612283648        2.80183083745049        3.40857095422084
H            4.98243037462184        4.41002064964527        2.65666575780153
H           -3.30678731702801       -2.55612114229591       -2.99709620765533
H           -2.59615691204990       -4.06690935211309       -2.83098311111298
H           -1.85999455557629       -2.38697613116710       -3.22189269973370
H           -5.53823136065413       -2.95348595467404        1.63082472964195
H           -5.71557804077303       -1.28797181591374        1.53361061604996
H           -5.04501631162336       -1.82492484010085        2.99271697289487
H           -4.04781921115108        4.03580248147764       -4.20084929046553
H           -2.21398333941100        4.44474704170713       -3.91419746950570
H           -3.61480695861418        4.43037979687117       -2.64352704216229
C           -1.71126906473942        4.53859440680382        4.29217300076134
C           -1.74809577236018        3.09544782010445        4.25387258096124
C           -0.87891167752337        2.27156190626676        5.05305856737976
C            0.17758124775454        2.95707570141336        5.64456427457511
C            0.43311711852279        4.35101329674229        5.51810404351565
C           -0.53853644005356        5.14454975977792        4.89032489552197
C           -1.13621761902366        0.90735190394441        5.34365017255971
C           -0.06897234009172        0.12723475683025        5.87304127959499
C            1.05170627033791        0.85953008422862        6.35506573391037
N            1.08337178286727        2.23023413130842        6.50330864998468
C           -2.44234566359918        0.34027331762592        5.52288151966877
C           -2.44765975936933       -1.08665174960201        5.54077181440627
N           -1.40598475029285       -1.84619154350325        5.85054779080304
C           -0.18180330324397       -1.23353375854921        6.11188879058494
C            1.02876179571025       -1.80765446005347        6.55825168459313
C            2.26753668814388       -1.24165658855647        6.69702248715268
C            2.26635888558955        0.09819858089970        6.41985044965127
C           -3.60725996390163        1.13107291601958        5.67794913624832
C           -4.86120966923455        0.60459684766163        5.33495654359896
C           -4.87660657980036       -0.75482249097461        4.98266727276265
C           -3.70637554846479       -1.48639712739745        5.10727209379089
O           -3.51868519224712        2.29735523744962        6.48834817823187
O           -2.75097677840171        2.61997426784370        3.37218296744048
C           -0.37665986240413        6.58727863587751        4.76089098611216
C           -6.23411919130152       -1.38251535151170        4.97859023449132
H            1.18330871579888        4.87175096441899        6.11187458147037
H           -2.21439210624809        5.16009283567524        3.61791822247974
H            3.30836403456199        0.40508271439529        6.40901180115636
H            0.94004131295296       -2.88217974614631        6.84482291817265
H           -3.85356502774123       -2.54666334157089        5.31560046402945
H           -5.58987112530130        1.17680516106460        5.58855048189054
O            0.12692409145249        7.22605541097625        5.71982049788411
O           -0.82334326134305        7.15459549903984        3.55116834806231
C           -1.42779398380007        8.49535257691514        3.62034601955253
C            3.60611283861292       -1.89943814347274        7.15081722885531
O            3.57206148811582       -2.95907469489935        7.79733208146651
O            4.75203157949565       -1.42624793669404        6.56248336314013
C            5.89015842370501       -2.23619502779291        7.10565723636488
O           -7.00922035895269       -0.79300506099685        4.23838942840123
O           -6.54150424774374       -2.38638460204309        5.80448833132260
C           -7.69946926255813       -3.05145909456725        5.58142456716443
C           -4.61575451163377        3.17572070496920        6.56767905155198
C           -2.24799348416306        1.41012606171625        2.79186237657474
H           -7.47665064990077       -3.94721445427580        6.20065279301274
H           -7.98667203598286       -3.06458808210956        4.49736561832459
H           -8.52352166388946       -2.60122820084893        6.16185601388307
H            6.52111072020123       -2.70389673928285        6.43715070582954
H            5.42265183387392       -2.91212514066213        7.82937865922505
H            6.53207582709039       -1.69362336884904        7.70963060800429
H           -1.54107759887218        1.63064297181601        2.03683680144203
H           -3.03568753744001        1.02022765913728        2.12115342537404
H           -1.75765266736402        0.70566235807931        3.59639747877778
H           -4.16995615072630        4.08237230205517        6.94475916281714
H           -5.27772948269462        2.83957370647037        7.32487277874553
H           -4.93801401143198        3.11440210320798        5.39571656672261
H           -0.61706773463405        9.24681173738592        3.37537562651994
H           -1.87750865109685        8.67110237685812        4.68790248436761
H           -2.24648275975528        8.39051769856710        2.93107302153891
116
 energy: -22.711200922330 gnorm: 0.493197685999 xtb: 6.6.1 (8d0f1dd)
C           -2.84691102949353       -1.28683047921981       -1.89280429686040
C           -2.45799033792303       -1.51052410934774       -0.61602114170190
C           -1.59627489421826       -0.54180447676540       -0.01573128462873
C           -0.98938091509403        0.51904424740152       -0.79073531208078
C           -1.58335670041622        0.75917648708390       -2.03337377344283
C           -2.52341303864758       -0.09273021863140       -2.49874947729051
C           -1.06287002672774       -0.59245851723611        1.32974779606490
C            0.25054610966194       -0.20612584151007        1.45690295245875
C            0.66878653035226        0.97651316536453        0.75454433857604
N           -0.07087151153707        1.43263471268832       -0.23521117473620
C           -1.36065588745106       -1.63061042651725        2.19415368175665
C           -0.33125792504215       -2.47453414566306        2.64980256256886
N            0.94871483575432       -2.11492497497510        2.62329717299730
C            1.26744896936270       -0.85651468562307        2.25647833065137
C            2.57866561469599       -0.20351318271910        2.47838143045368
C            2.74248855149839        1.04379316965830        1.97780172383588
C            1.77255754244583        1.63373680387842        1.21693616777707
C           -2.81926869567362       -1.98724169747755        2.43779777563534
C           -3.16326765319746       -3.18733316021421        2.95466894961733
C           -2.13214357864891       -3.96596913131445        3.34841129357746
C           -0.81031952752466       -3.68456649341553        3.16243587805952
O           -3.71983844465211       -1.10700915485422        1.99683295932479
O           -2.67662760720479       -2.86686549919582       -0.10983540918589
C           -3.03179250509659        0.34692041655660       -3.85943814753462
C           -2.57607073452752       -5.28945369984236        3.89047891973754
H           -1.13740480641375        1.40225307700701       -2.80040726026205
H           -3.31543597311337       -2.00007043613495       -2.61695050276480
H            1.82703680290549        2.66964225963851        0.86809041275006
H            3.41726778271514       -0.58207318871871        2.86967678536695
H           -0.01489567755734       -4.26255979471475        3.52699994719713
H           -4.24176863897679       -3.69425399180855        2.97092808514519
O           -2.26579229423199        0.26385505062951       -4.80646202654624
O           -4.28308386559614        0.69953284758655       -3.97216958376807
C           -4.36729359564696        1.37972965917831       -5.20669634798501
C            3.93501546600742        1.78313284546752        2.49719494077949
O            4.30221193364146        1.76568879021951        3.62730472585372
O            4.43025189030143        2.64000581164904        1.55340092076981
C            5.56620537570825        3.38125278345065        2.00063189931067
O           -3.71405884393028       -5.58699829841125        4.01131586233231
O           -1.44383164867898       -6.16163202602228        4.01197027984819
C           -1.88638068074423       -7.40122487571861        4.30554958160144
C           -4.98038270215108       -1.54116950029741        1.80079145210545
C           -3.28962609698766       -3.98095873084523       -0.79576875489723
H           -1.07812492123021       -8.11111574329217        3.72822369788323
H           -2.85564623577237       -7.55950201512373        3.80796532517125
H           -1.91714237854145       -7.73096665501428        5.39594686371930
H            6.61696123664227        3.20552857661984        1.70505870919569
H            5.77938114134213        3.40619075538815        3.12979741012955
H            5.49570420206301        4.42379477871512        1.92732672361537
H           -4.21036017382176       -3.48035510836449       -0.91681366172353
H           -3.48756613963593       -4.95599158164169       -0.29188498763775
H           -2.56879719560954       -4.00496497566809       -1.71011122073254
H           -5.06564509245301       -2.58658904383873        1.20269159848181
H           -5.63416654389632       -1.03461559375628        1.15753503979108
H           -5.65521385451373       -1.53717763509901        2.69193110571049
H           -3.96247785511363        2.43533681246251       -4.92969519478668
H           -5.33724558998061        1.63777103330981       -5.57011712118733
H           -3.68644446606584        1.07212437462297       -5.88460302044792
C           -1.58223952945670        5.28972008588728        4.66229151237444
C           -1.76250173451199        3.89078833291037        4.54937219756876
C           -0.92553041332022        2.96805887497289        5.43367767366150
C            0.07772004338246        3.45686811140108        6.17554329045279
C            0.18243338356120        4.89635016488145        6.17224811492411
C           -0.61679014734167        5.82943974623947        5.48103975043573
C           -1.22219953860177        1.61594197068613        5.70403759668805
C           -0.19671968400318        0.79249863680157        6.18744151998152
C            1.00262346000166        1.38046117170202        6.59178253620478
N            1.04003414566719        2.69070318720357        6.75927516457205
C           -2.43192120993630        0.83776220073966        5.50503282421908
C           -2.43423164720491       -0.61409316193085        5.63695165588404
N           -1.33444435821959       -1.38357253629253        5.85606817139930
C           -0.23877876696532       -0.68952328192516        6.23536516163588
C            0.96312030344889       -1.46270583569849        6.27083535657905
C            2.11285608387142       -0.78813039062922        6.56425486930968
C            2.07693736431701        0.59648961174160        6.85882737729177
C           -3.68780665255209        1.53294779904861        5.73649260753701
C           -4.87756361758136        0.82340299793586        5.56520249264107
C           -4.87066920335532       -0.63143914634965        5.43646557799222
C           -3.65105954168532       -1.30846583907635        5.48836598492683
O           -3.72108976954280        2.80309622056016        6.34213881352518
O           -2.54572534811215        3.49962681673738        3.55402436053153
C           -0.53274480944848        7.32152180686292        5.62766846194101
C           -6.14686099703137       -1.40733290085868        5.77883618882267
H            0.63940235123364        5.37610814608663        7.09405018803212
H           -2.20325186260593        5.95150227907753        4.11761051223496
H            2.97062589393750        1.11205187603916        7.25106540857072
H            0.96061617524516       -2.58121033899352        6.31583521515473
H           -3.53656914841843       -2.38205236623180        5.49173763022216
H           -5.72694424059521        1.51513837697022        5.60507547228150
O           -1.58301903792068        7.87653860067862        5.75610326733588
O            0.73265625190795        7.92015335123450        5.66667170417913
C            0.90228433449729        9.02252824071314        6.54503229096218
C            3.40391405230223       -1.51989812998202        6.52620036287809
O            3.72887969773879       -2.12869550838854        5.51307242424261
O            4.17444560158554       -1.63360488881129        7.67923341369166
C            5.26727079684728       -2.46705821420673        7.47818724468352
O           -6.97485256307369       -0.77542366802952        6.36428141453453
O           -6.17620594415367       -2.69230657801985        5.43983390723954
C           -7.41406777878265       -3.25600475462414        5.55684642012789
C           -4.78710212435744        3.16679269452218        7.24384636989640
C           -2.61430884562952        2.21170202079347        2.98541382567940
H           -7.34406873066415       -4.30302908258396        4.95969833206812
H           -8.11146615331749       -2.61325070313057        5.01921142506742
H           -7.57849310635137       -3.47152938334261        6.59790098732383
H            5.45922442548063       -2.38237225702040        6.41670174496709
H            5.17990113874214       -3.45247099676122        7.73649593428460
H            6.09027416780120       -1.71199305046205        7.87318939016953
H           -1.77915937734362        1.63463406431150        3.47333280897203
H           -2.10830495283929        2.35419007475051        2.01197355962940
H           -3.49414267232475        1.61190027929610        3.19907461790214
H           -5.14283902335959        2.20056092226590        7.74021891856602
H           -5.56625740004884        3.78602159219285        6.71075818635056
H           -4.49985903593340        3.88289576051025        8.00582622099607
H            0.94506577525932        8.84278923367150        7.56853987329221
H            0.04075937987951        9.72856230325405        6.39248038042176
H            1.83303351271554        9.65533901021357        6.26721329931515
116
 energy: -22.720776297960 gnorm: 0.453762654558 xtb: 6.6.1 (8d0f1dd)
C           -2.54304297189531       -1.12330635406862       -2.61501308436030
C           -2.11035602223008       -1.49289926273982       -1.36231172552121
C           -1.54571928685462       -0.49782160022834       -0.51025115702650
C           -1.06541991743755        0.75587683648911       -1.06394312545126
C           -1.39304102707696        0.89687571664288       -2.42050184175721
C           -2.21260064664779        0.07739671264366       -3.19520231634935
C           -1.09176941260597       -0.88771321433246        0.86758286851643
C            0.13360722307816       -0.25871022225494        1.27523643263981
C            0.46680427594446        1.02346067040394        0.68183750465457
N           -0.16008256466007        1.58929319036208       -0.38884208076260
C           -1.67123861908615       -1.99749222896842        1.56942898746413
C           -0.78651512301306       -2.68491271590973        2.48500078961654
N            0.53010394190408       -2.13875300453224        2.69247731834443
C            0.93837941822964       -0.94152849207607        2.19139791294571
C            1.93842943189442       -0.22103184904352        2.81738057591457
C            2.16525812664882        1.16485721760729        2.41724586591695
C            1.41578936437376        1.75249618167736        1.33554210626241
C           -3.10998656212738       -2.25972492885678        1.69914079935284
C           -3.49701343466417       -3.51265487736945        2.24173298405727
C           -2.59564720489596       -4.18358886594432        3.00128393410537
C           -1.31785600253144       -3.67608339775882        3.27457732692815
O           -4.01016171688487       -1.37356568265871        1.15314927011463
O           -2.20565799208217       -2.70360059692901       -0.89858489682169
C           -3.01807743702947        0.66047992980354       -4.27002224278564
C           -3.07376898634262       -5.30231678352706        3.90253280191913
H           -0.91174037710191        1.71432898344633       -2.87872621230705
H           -3.24213528100152       -1.72971770444241       -3.22866554695479
H            1.53647555730305        2.80122736178405        1.06123600666734
H            2.65256064854180       -0.76783872627308        3.29164864578490
H           -0.80099094828628       -4.09130386383123        4.14171503110141
H           -4.45967043444499       -3.97844163547100        2.21372242805715
O           -3.60092499621152        1.70060298507076       -4.16114701680537