116
 energy: -22.928061455056 gnorm: 0.329736929581 xtb: 6.6.1 (8d0f1dd)
C           -3.31122850772930        0.79849766164622       -0.92477639677520
C           -2.44380812530352       -0.12270372891954       -0.27661132624697
C           -1.41337090092821        0.39579727573559        0.56335275196199
C           -0.89266158675590        1.65801491088749        0.27377586709581
C           -1.72665675402493        2.51431363229076       -0.49448366572522
C           -2.95444148494349        2.13954154133227       -1.01494489940871
C           -0.74098268209890       -0.43411532818871        1.49825021926784
C            0.56872586496315        0.03782116815119        1.86248088067890
C            1.03782416582094        1.29402317993033        1.50887470833621
N            0.31238977034758        2.07067427098208        0.65193736800696
C           -1.29695700510141       -1.39996043042223        2.41574187746061
C           -0.38243517664656       -2.18060797534842        3.13232615520648
N            0.91308504082021       -1.90366887689689        3.30325166013478
C            1.37712470144904       -0.74872102533751        2.81811050966982
C            2.52149331701875       -0.17739833758153        3.39379298866852
C            2.95849061756259        1.02681208890480        2.95105897606587
C            2.24288949469137        1.78498308775960        2.03503020483770
C           -2.74860936222260       -1.74497937691422        2.38401158947411
C           -3.09416315450955       -2.91614440870436        3.00571134491758
C           -2.16786021984049       -3.77788778654213        3.63251872101904
C           -0.85708937311598       -3.40495313382985        3.68547234358092
O           -3.71994433332149       -0.94984598373544        1.67726658385724
O           -2.55702603277562       -1.47241711578389       -0.57241635275616
C           -3.84297843593025        3.13357444054366       -1.60938954875544
C           -2.68769581069131       -5.03867041417370        4.30484659386931
H           -1.39666850744143        3.51251503834900       -0.76806311868865
H           -4.27662633836220        0.55105838579656       -1.33106614114542
H            2.66329581305412        2.73912661909249        1.72562431984580
H            3.05775395548473       -0.69369546277216        4.16536137542516
H           -0.24710966264510       -4.12034095424229        4.22946223699121
H           -4.11477991332403       -3.04712728052358        3.03244694615357
O           -4.21824883374556        4.03433712717988       -0.87713382485991
O           -4.44510595673734        2.90643496899600       -2.81853501752979
C           -5.44216520282800        3.83300025693726       -3.02488532025093
C            4.23586651889298        1.50004220933226        3.59165660008449
O            5.05927614697201        0.66079890002952        3.91714215179376
O            4.47001334453535        2.86385149488593        3.72605651435371
C            5.79457498613219        3.08584475587818        4.15829123132174
O           -3.82227255313510       -5.27347675879771        4.16636005494405
O           -1.85023202017753       -5.79767454267276        5.06656077253571
C           -2.55119635829503       -6.86252441382958        5.62930343183426
C           -5.07197156564436       -1.42399175670916        1.58830531863830
C           -1.33089900128490       -2.23622472573986       -0.99264499351172
H           -2.54510546830388       -7.76426885143998        4.99136022291012
H           -3.57194749219491       -6.44405511486021        5.74196173723541
H           -2.09133598235598       -7.02043774843818        6.64022264233588
H            5.72707967266424        3.46798026205549        5.10135971236643
H            6.34060091246885        3.78468702308830        3.50069950143490
H            6.17933064298187        2.03010500085905        4.19342358084693
H           -0.91862729772622       -2.57650129080332       -0.01361370304871
H           -0.49769766914251       -1.60651221708571       -1.34094446550576
H           -1.52632419730509       -2.94569707152159       -1.75361447637286
H           -5.11788846557077       -2.41810833635233        1.17520213188926
H           -5.67929807973498       -0.69619639428435        1.04301666067831
H           -5.57598832326623       -1.42383358739762        2.57928294206544
H           -6.13050215934830        3.76035386975488       -2.23272855695873
H           -5.86615610071888        3.45938329385866       -4.02668959924245
H           -5.13479557532099        4.87790991548477       -2.98314551356402
C           -1.38192942069774        3.73616555005018        2.91232598411686
C           -1.84821468128685        2.59982427735607        3.49755545445181
C           -1.05946531454833        2.05730632010638        4.60922730982276
C            0.19893954712228        2.69376791964407        4.86302140881997
C            0.50425395911860        3.94630308659851        4.28768785650746
C           -0.26031777722226        4.46998310053134        3.25072669343212
C           -1.20488993561782        0.74454293276906        5.14851520323437
C           -0.06287609782692        0.02744069315890        5.60930570802864
C            1.19208754369866        0.71421540266195        5.78882868583885
N            1.19428660993148        2.06344359410476        5.62744624321596
C           -2.41361422770794        0.07928500213936        5.25249410304426
C           -2.45851584031083       -1.32662100968547        5.60237876023992
N           -1.29466212405906       -1.98318595734370        5.89916817085159
C           -0.14475655767527       -1.32117560077092        5.98824682881008
C            0.97209270935794       -1.98958449505532        6.53157704134458
C            2.21982707914082       -1.36973967291181        6.68703967237737
C            2.30561929262884       -0.09745313075593        6.26436900324455
C           -3.73018485967715        0.71367583494582        5.25810242262992
C           -4.89964478833448       -0.06184623426677        5.21204641615509
C           -4.82617965800088       -1.39228978090841        5.46901303780036
C           -3.67144193418464       -1.98914944386360        5.67265433266067
O           -3.75568638935321        2.07705011038914        5.52067969627343
O           -2.94192434743730        1.91263938797883        3.01658762327703
C            0.21273512614467        5.50086066357994        2.34765104514621
C           -6.06660304520411       -2.17604633098929        5.80641622556876
H            1.41756699010566        4.38133362238595        4.66974005703471
H           -1.82880610647429        4.11982501512100        2.06992133318584
H            3.26888037378556        0.32655662585251        6.31721410015598
H            0.87146188387207       -3.08471526305024        6.57830423410869
H           -3.67716811065157       -3.05999292755990        5.83019634570050
H           -5.77379677507622        0.43595144608221        4.71017130754348
O            1.34459852619901        5.82615848916894        2.44941456579099
O           -0.74718748219123        6.07961784856304        1.59848183464284
C           -0.21473095568964        7.24015934882472        1.05753806029483
C            3.53228080814219       -2.00967610361154        7.02506769044485
O            3.64093082622715       -3.14437803815732        7.50071391725347
O            4.56565258381079       -1.22937033368332        6.69086985080897
C            5.72579357310716       -1.80692399125161        7.22246151275881
O           -7.04801223588612       -1.95726935745904        5.14194115322235
O           -6.01514389321278       -2.93743591896022        6.94765316328794
C           -7.21292732384718       -3.62681918543340        7.15115816329978
C           -4.95459780685163        2.65960679932188        5.86868674392943
C           -3.68284113682406        2.59129188358641        2.05479246020704
H           -7.43119628931628       -4.22607794725959        6.20622607140901
H           -8.06548455146707       -2.91765848248592        7.29781126410398
H           -7.07314693247270       -4.33087306029711        7.91223421050944
H            6.57332189837178       -1.29353136199234        6.78341268688262
H            5.74663761932316       -2.84282155125561        6.88089468184451
H            5.69426191474290       -1.72781984964892        8.29460302186842
H           -4.10481209541493        3.44288266176275        2.60483747673152
H           -4.49244774344916        1.87419893016926        1.82433103764650
H           -3.18901540870812        2.85154642679373        1.06781919454921
H           -5.55414326821421        2.76698137191684        4.93950725322359
H           -4.78658370641210        3.62090640967288        6.25983200635257
H           -5.43485580473958        1.97242995129449        6.65265772412460
H            0.89164886030839        7.38838561720231        1.13776105146914
H           -0.62894889903848        8.04195665205089        1.64837664327952
H           -0.59282546386754        7.45699159724320        0.03719083132488
116
 energy: -22.864965995309 gnorm: 0.383867966630 xtb: 6.6.1 (8d0f1dd)
C           -3.27726097372981        0.34407666836658       -0.98515277724533
C           -2.61105034942583       -0.53031773930003       -0.10692548958848
C           -1.71013083496109        0.06300087078697        0.83690159388549
C           -1.11875459117972        1.30454293451740        0.50887554288676
C           -1.87389305072874        2.19435190956166       -0.36714538398379
C           -2.96665384659166        1.74355982493919       -1.08746207886712
C           -0.99430067363104       -0.74755396512362        1.80639332005725
C            0.33285467657385       -0.42010060652917        1.95733065054282
C            0.78234290673060        0.87725245180147        1.56533529103873
N           -0.05012451830405        1.81974015955725        1.08163859461193
C           -1.44775229497820       -1.85170589208751        2.57160885028073
C           -0.50632924638487       -2.76482290274005        3.23994360945501
N            0.81806491593125       -2.49663496190053        3.13553652835039
C            1.14092143747140       -1.25483628632932        2.73611855580195
C            2.50412605360708       -0.96446805061689        2.84342210183534
C            2.98489396071878        0.20460054668206        2.31086025104427
C            2.12560013825340        1.16653078672556        1.81374444179502
C           -2.83785950394328       -2.09847330876830        2.78772873261757
C           -3.15739896594855       -3.36002561843010        3.30095402201667
C           -2.26415901488222       -4.28310068948649        3.74626894235532
C           -0.89280692648756       -3.90794969309449        3.89244826526778
O           -3.82975637409555       -1.07161458309361        2.70518175444675
O           -2.90151481232406       -1.92807159615609       -0.23389203983723
C           -3.53795886094282        2.58143565162353       -2.17402097913537
C           -2.78112608453218       -5.52496203677301        4.30467615113732
H           -1.51166311937995        3.14372504385696       -0.64554604104932
H           -4.04174027758067       -0.19128520684736       -1.46327667929807
H            2.51134443779779        2.11206701163112        1.30337158849348
H            3.18559687116073       -1.61491803417371        3.31265587929752
H           -0.18925055249185       -4.51296100038129        4.37325181820023
H           -4.21577813977593       -3.62417631896057        3.38126087997271
O           -4.25274184312834        2.23714341545283       -3.11437482427265
O           -3.34514487852401        3.83602067661628       -1.81444220806672
C           -3.69169270086951        4.70203087074630       -2.81026497771339
C            4.45507744359784        0.30036629751901        2.46856660263225
O            5.08800671130877       -0.57988378622292        3.04825188833789
O            5.14229392324508        1.35466115900082        1.89442228927784
C            6.58116846446655        1.25416788675822        2.17634654486346
O           -3.99165262110185       -5.75844402459928        4.42501197148157
O           -1.78223825831306       -6.45335554232348        4.55693473995834
C           -2.06830706614301       -7.73401922964673        5.14979752750807
C           -5.01504324599849       -1.32973973288169        1.91526426371957
C           -2.51471665327802       -2.52412774695092       -1.39969269583627
H           -2.16931409945785       -8.43965594848566        4.38718825512274
H           -2.99448730200781       -7.67888869885014        5.73199088660826
H           -1.29297672899913       -8.12151752115467        5.76789191725681
H            6.61858235335292        1.81866414626475        3.17290756771835
H            7.20215848397487        1.85514867259078        1.49028024575019
H            6.77372559948601        0.21500161298129        2.31905903956290
H           -2.04604452640182       -3.48190300298771       -1.09827106833554
H           -1.57924091592541       -2.08555207698827       -1.89109829025508
H           -3.40505342848692       -2.70712304638185       -1.96823391081893
H           -4.81824944046148       -2.21571876898776        1.32084844858593
H           -5.41649574969260       -0.58196981953054        1.18682957862613
H           -5.81682144039563       -1.51340457150450        2.69233549709097
H           -3.78001574341500        4.22726616957339       -3.79687014274922
H           -2.98482769340336        5.48144611228213       -2.78263112099790
H           -4.79410999033251        4.94683277495163       -2.65771124984466
C           -1.91358981737094        4.29627012498183        3.29015054301489
C           -1.86972279613394        2.93717328605821        3.66122893411308
C           -0.84982272003073        2.53818172061161        4.59127889276426
C            0.44146512319230        3.13576065969497        4.60516006307407
C            0.40435551451984        4.46773922241217        4.14621528334883
C           -0.77040145315908        5.04943641609162        3.58397269811262
C           -0.98324514636753        1.27635130509474        5.18117318404072
C            0.19968167550506        0.57955903054352        5.44970103142272
C            1.42561459541847        1.27308772666273        5.45711548210945
N            1.61047250387253        2.56368742140831        5.15456399249334
C           -2.28796658609372        0.65168310808985        5.48005689481747
C           -2.17558007503215       -0.71911040434202        5.66592504251575
N           -1.07247812388989       -1.45815218858079        5.83824344921551
C            0.10157866192425       -0.83767952905767        5.83865477693929
C            1.18456704175125       -1.33766711777063        6.47870761861497
C            2.35905396303803       -0.61519694131226        6.69419948290410
C            2.48448697391528        0.67486315264585        6.12821802989568
C           -3.60014038108593        1.22234324963300        5.64969796399198
C           -4.75634635147052        0.43571015756856        5.64906755520103
C           -4.68511158015970       -0.94523568057532        5.65045936586939
C           -3.40200411540089       -1.53640371993371        5.72957269054771
O           -3.64876076668498        2.65646534055975        5.81633247868622
O           -2.71342553938743        1.93215770710243        3.31839509488803
C           -0.71991874716849        6.49519981508948        3.29253591622851
C           -5.92875937640767       -1.75860713886134        5.48484497585781
H            1.26107246123024        5.05620578829798        4.22810129281203
H           -2.76866550171723        4.81882871234614        2.71700970907887
H            3.39949814660543        1.10646460394516        6.24754671760529
H            1.24388222425765       -2.27797796072127        6.94312459508240
H           -3.10596867653300       -2.61395606544915        5.92419660356184
H           -5.77885468764293        0.94561195701541        5.55449847737504
O            0.37908315435696        7.06307014691509        3.46383588114475
O           -1.87679731705369        7.01107406047987        2.76253762225689
C           -1.63391850283105        8.43700294410493        2.44769543616365
C            3.36713603355362       -1.24541920731971        7.56617411793317
O            3.13087415239130       -2.28872075927131        8.21492198002976
O            4.58466885901169       -0.59162453619800        7.67389127126602
C            5.40980362441428       -1.25405912970238        8.55105142495123
O           -7.07626151982167       -1.34327443105713        5.27912569257370
O           -5.61559882879293       -3.07369593400921        5.53098468133682
C           -6.58769945289803       -3.82307835192217        4.83681378895128
C           -4.74379108244703        3.28554658904960        6.50256410828246
C           -3.91564215862571        2.25675451535651        2.59635676636372
H           -6.29121047356219       -3.75591257474304        3.72211577470238
H           -7.49354524199830       -3.39853843253111        4.93121604559118
H           -6.46729195859434       -4.87378197863945        5.16180457032501
H            5.13962520502716       -2.28569159139497        8.61050744634174
H            5.19235280447060       -0.70932913856523        9.52764666461917
H            6.43746948745710       -1.26104224682062        8.32954239083952
H           -4.60145559873575        2.97314739742422        3.12164980923003
H           -4.31734665127009        1.28406423476286        2.41885789133606
H           -3.55963813372585        2.58679672910790        1.55215872283037
H           -4.44858163593199        4.36779623692359        6.46464911201429
H           -4.68202186891924        3.21914191137391        7.63807436163110
H           -5.60599292291898        2.89220544425191        6.03167848207540
H           -1.65274057982616        8.64994933137146        1.37366658533687
H           -0.63732511739191        8.74679348747629        2.78867745898084
H           -2.44100411943839        8.92583737821829        2.98449345422807
116
 energy: -22.905228868956 gnorm: 0.367419566361 xtb: 6.6.1 (8d0f1dd)
C           -2.89932198808719        0.24387362338814       -1.12038493390169
C           -2.38328114320248       -0.63203475304426       -0.16921022172743
C           -1.41775645209270       -0.19125259807594        0.76543348434607
C           -0.80369806397970        1.05364149879314        0.46547176762959
C           -1.40869827905052        1.96996185500016       -0.37551458953858
C           -2.46977765352744        1.58272699480362       -1.10398699379963
C           -0.83004706536058       -0.99584375295019        1.74684995689694
C            0.49936935299634       -0.75665496066895        2.04780046636410
C            0.99938861067249        0.60433515711452        1.82426031354330
N            0.38147616919087        1.45329306651527        0.96695144846550
C           -1.42613479600762       -2.14362306618577        2.28383837970162
C           -0.61494665103938       -3.10582161873648        2.92781173523291
N            0.77857844427266       -2.88484720946582        3.19698448507271
C            1.24095374997419       -1.71044644226115        2.84111763106997
C            2.50402696489863       -1.30110102715415        3.26712302183156
C            3.02183892444942       -0.11802700726184        2.78660786398485
C            2.30986652085756        0.88248679053854        2.12250731155160
C           -2.83024675169410       -2.23103603997218        2.52871395717073
C           -3.31528780720554       -3.48611702204139        2.98630131713117
C           -2.54391850511871       -4.59643548720017        3.23390450914679
C           -1.18065795080803       -4.36424455589759        3.27061072103572
O           -3.63488092564703       -1.16614138109234        2.29701558996547
O           -2.65452230397664       -1.94537315515325       -0.25944405557536
C           -3.18964706137110        2.66399008199402       -1.83700382241434
C           -3.16404825187466       -5.86386258201569        3.73011756870211
H           -0.91769553255678        2.88896378862106       -0.50536358070440
H           -3.69939335234599       -0.03387609627480       -1.75374567584500
H            2.92967261398860        1.80163333285295        1.84960044612390
H            3.08772771949508       -1.93083909619484        3.81544344532736
H           -0.59770323503609       -5.08485053654003        3.75158343300716
H           -4.41878170408951       -3.70002340909109        3.07465500768710
O           -3.96694265105881        2.54836440680505       -2.72868667427213
O           -2.81623844741064        3.89635908509404       -1.27977138051076
C           -3.41988387682925        4.95667006489842       -2.03804014919996
C            4.41365965855004        0.08319032256766        3.27429008094738
O            4.78493223175154       -0.55794535276228        4.24260025328802
O            5.20643761375590        0.97798373903037        2.61422924654857
C            6.26517990002280        1.22922405191558        3.41965581433508
O           -4.36984184352970       -6.04449766542311        3.56654562435451
O           -2.39134912041582       -6.77110447560671        4.48652343469608
C           -2.81752271857897       -8.00381408759183        4.92428961657995
C           -4.98441736253912       -1.26022328365647        2.66763303034110
C           -3.40360770008130       -2.41679972758710       -1.41850258642693
H           -2.84648541576558       -8.63938218429681        4.01981550909229
H           -3.82657172457896       -7.82644525576616        5.30756693592660
H           -2.05429685688262       -8.35403348299945        5.71837172825649
H            7.01787716645793        0.36143403383433        3.31349290221250
H            5.88530327059369        1.29327797608011        4.42052045856854
H            6.77771211522468        2.13971918407574        2.95269500079016
H           -3.45631830015356       -3.53955866722253       -1.43166208625311
H           -2.78501714970843       -2.26253420666363       -2.30645385555597
H           -4.43913154149338       -2.00051380008980       -1.47692765125782
H           -5.37676979639899       -2.12601146734749        2.10088045278013
H           -5.44646613074830       -0.34408734359537        2.23484054432689
H           -5.08410549107812       -1.47072182018363        3.70066532035588
H           -3.61089409583528        5.92204537638333       -1.48121413600673
H           -4.43724241729642        4.59720608112128       -2.24612734927477
H           -2.74726022669048        5.20911888045070       -2.86511591123669
C           -2.09005265095056        4.51676873113230        3.03658716818462
C           -2.15016521069035        3.24620047448204        3.53935965505998
C           -1.15350442840192        2.75110496245487        4.49776256588288
C            0.03057306913991        3.48966420522952        4.66994098771529
C           -0.05901316180193        4.84617019670859        4.23273510226273
C           -1.09229829499855        5.33209130905694        3.37682595276228
C           -1.26192899921486        1.51425233776796        5.18016427125213
C           -0.03213749126894        1.01457422850284        5.51223033297159
C            1.15793689847709        1.82579732289264        5.68299614041353
N            1.22097784802231        3.07307549305729        5.21915948121930
C           -2.29009476243520        0.65172177987192        5.45531195105514
C           -2.07719603028659       -0.74230098008967        5.63797355518606
N           -0.86431406219809       -1.28030005851063        5.82484767932298
C            0.10407020148245       -0.35396845771049        5.85393534011334
C            1.31169165041614       -0.86741992914207        6.31332533111785
C            2.45206522496390       -0.07812407134521        6.47253786232594
C            2.35283721448200        1.27993447525377        6.30296886961310
C           -3.56987608011142        1.15805716750277        5.76005619397537
C           -4.62551495629040        0.26296131402593        5.81250216584573
C           -4.44610015943869       -1.13559374271179        5.99994891287162
C           -3.13206955705251       -1.56372315254660        5.98010627427517
O           -3.81907537444296        2.49023196306683        5.87938546435231
O           -2.86961085765985        2.22192504887586        3.00472500228356
C           -0.94423255147262        6.75333384327800        3.00951955270426
C           -5.56062479004707       -2.10595352249994        6.04669978600989
H            0.79939383724769        5.48625590186510        4.37385542671145
H           -2.93926723908400        4.98977173634670        2.51890849749115
H            3.17773541590270        1.85760636610317        6.44474230760130
H            1.51580320060462       -1.93504589612701        6.31769916912332
H           -2.97637944972081       -2.65876396971756        6.12905925331874
H           -5.66714722554115        0.67932372380604        5.68420745191084
O            0.15410445816176        7.16825560199004        3.22994020414552
O           -1.95412947621088        7.49131894400629        2.44987978629282
C           -1.54703493032762        8.86676511958121        2.47629990952115
C            3.70706787723400       -0.87499491838443        6.71992465868427
O            3.70368598786211       -2.06749228339697        6.50694322063101
O            4.71914754296969       -0.17478091156945        7.28964921948224
C            5.74223640210521       -1.10914913795678        7.26991206593399
O           -6.62161103923312       -1.73636366379515        5.66682450492244
O           -5.32182202878516       -3.43673559133973        6.40894031430191
C           -6.58172008434780       -4.11401984408190        6.41509695232043
C           -4.96875126747969        2.96835194649014        5.16616242215802
C           -3.47144569748123        2.49462722024238        1.73119472199457
H           -7.25012957902959       -3.38792641334983        6.79919686582144
H           -6.59033856808132       -5.07952858958528        6.99053490538978
H           -6.80863184254794       -4.42759254138602        5.35857700398908
H            5.86326209236111       -1.55615064712920        6.26614989578857
H            5.62613864491308       -1.81633920104316        8.04931055301920
H            6.70402429959143       -0.46815815768078        7.31448490808293
H           -4.32646281476017        3.16544252968939        1.87917816898252
H           -3.86946842988898        1.48596359429410        1.38435930712718
H           -2.77863776797117        2.94372017655327        1.11335583306254
H           -4.88901259373699        4.02140763220139        4.99375346726888
H           -5.89051338822143        2.65362228747900        5.63793167357695
H           -5.00586377720588        2.53827467035174        4.12981939526525
H           -1.94161449727224        9.34075692495066        3.39492940792974
H           -1.71319044297410        9.36066792463011        1.55724989524691
H           -0.38927706237336        8.78231834572007        2.51125306095064
116
 energy: -22.904394819783 gnorm: 0.373002044069 xtb: 6.6.1 (8d0f1dd)
C           -2.90429130638677        0.83466529386533       -0.54799870814745
C           -2.40968207010407       -0.26046714077172        0.06881389846625
C           -1.28349739684744       -0.01839157760710        0.97210725989345
C           -0.51747160297925        1.24815567298255        0.85831028831302
C           -1.04255355761639        2.33781599958868        0.09943762777852
C           -2.28383243653704        2.09734450591063       -0.51905363662536
C           -0.64447981085938       -1.07684602447188        1.68936432936751
C            0.69896939050132       -0.84130836117180        2.09205870572702
C            1.28569630262399        0.45866412287045        1.89188744984137
N            0.72968054836604        1.51223656650790        1.28551926052505
C           -1.38099739083427       -2.15843665437929        2.32732118757074
C           -0.57416084653228       -3.15804252549622        2.95952064902357
N            0.75543894824722       -3.08465973886066        3.08663026217960
C            1.30656619175751       -1.85738381779473        2.90423589377861
C            2.61851570246172       -1.58832300990994        3.41278221657161
C            3.19044432522184       -0.33844739912881        3.14851313353551
C            2.60390606204689        0.56898495028051        2.35494338262539
C           -2.81645713555561       -2.21135136766402        2.62728779191212
C           -3.35826601005633       -3.37561248687415        3.12216792000084
C           -2.61057163750307       -4.41720790999182        3.50713086069451
C           -1.19816671276971       -4.31050698819910        3.48430417425324
O           -3.66784984857744       -1.24995086232616        2.29884681527902
O           -2.85137752828533       -1.53912092116919       -0.26394248770498
C           -3.05538113207085        3.27783849756842       -1.12276296713031
C           -3.22495107150839       -5.68632885164689        4.03455230972093
H           -0.75049807941536        3.31403250254441        0.37211056025283
H           -3.81627251908605        0.75778132382409       -1.05151515765071
H            3.05730048364512        1.40730737969377        1.78469507701470
H            2.99893177274926       -2.11710448177374        4.21688431110932
H           -0.66561211854246       -5.23666498237680        3.75466823726352
H           -4.41861259191048       -3.50512175423007        3.08328778230080
O           -4.25484238688295        3.26420582525023       -1.05385115971361