116
 energy: -213.865738221126 gnorm: 0.154240750858 xtb: 6.7.1 (edcfbbe)
C           -2.34030000000000        2.57280000000000       -1.51550000000000
C           -2.06690000000000        1.35690000000000       -0.90340000000000
C           -1.26230000000000        1.35900000000000        0.28760000000000
C           -0.50270000000000        2.52450000000000        0.59400000000000
C           -0.82240000000000        3.72100000000000       -0.06720000000000
C           -1.75400000000000        3.75390000000000       -1.07930000000000
C           -1.11250000000000        0.22950000000000        1.15200000000000
C            0.04700000000000        0.18740000000000        1.92980000000000
C            0.86460000000000        1.34800000000000        2.03050000000000
N            0.54080000000000        2.52240000000000        1.45390000000000
C           -2.02740000000000       -0.85620000000000        1.31030000000000
C           -1.53590000000000       -2.05770000000000        1.89420000000000
N           -0.34000000000000       -2.14090000000000        2.52330000000000
C            0.39810000000000       -1.01540000000000        2.60620000000000
C            1.58140000000000       -1.02560000000000        3.35020000000000
C            2.38990000000000        0.09250000000000        3.43380000000000
C            2.02990000000000        1.26410000000000        2.79550000000000
C           -3.42890000000000       -0.73450000000000        1.03100000000000
C           -4.21080000000000       -1.88020000000000        1.08300000000000
C           -3.68950000000000       -3.09650000000000        1.50640000000000
C           -2.38320000000000       -3.17520000000000        1.92760000000000
O           -3.94770000000000        0.53620000000000        0.81850000000000
O           -2.54630000000000        0.18980000000000       -1.52790000000000
C           -2.09800000000000        5.03720000000000       -1.73350000000000
C           -4.57420000000000       -4.27700000000000        1.60000000000000
H           -0.34530000000000        4.63400000000000        0.24390000000000
H           -2.98410000000000        2.58990000000000       -2.37550000000000
H            2.66380000000000        2.12710000000000        2.88650000000000
H            1.87680000000000       -1.92180000000000        3.86480000000000
H           -2.01840000000000       -4.09990000000000        2.33580000000000
H           -5.25560000000000       -1.84450000000000        0.83950000000000
O           -1.97330000000000        6.07730000000000       -1.11600000000000
O           -2.55190000000000        4.96250000000000       -3.01910000000000
C           -2.77820000000000        6.24410000000000       -3.50820000000000
C            3.65050000000000        0.03320000000000        4.20080000000000
O            3.89830000000000       -0.94420000000000        4.88000000000000
O            4.47510000000000        1.11580000000000        4.08750000000000
C            5.58980000000000        0.93440000000000        4.89320000000000
O           -5.72300000000000       -4.20230000000000        1.20830000000000
O           -4.02770000000000       -5.40060000000000        2.14990000000000
C           -4.98740000000000       -6.40540000000000        2.19590000000000
C           -5.29740000000000        0.58050000000000        0.43270000000000
C           -1.54910000000000       -0.77020000000000       -1.80950000000000
H           -4.54880000000000       -7.29860000000000        2.64590000000000
H           -5.32280000000000       -6.61870000000000        1.17790000000000
H           -5.83300000000000       -6.05650000000000        2.79430000000000
H            6.28360000000000        1.76370000000000        4.74000000000000
H            6.06350000000000       -0.01710000000000        4.63810000000000
H            5.24950000000000        0.91100000000000        5.92960000000000
H           -2.01000000000000       -1.59980000000000       -2.34670000000000
H           -1.10430000000000       -1.14080000000000       -0.88750000000000
H           -0.77900000000000       -0.31470000000000       -2.43320000000000
H           -5.55700000000000        1.62120000000000        0.23370000000000
H           -5.92630000000000        0.20300000000000        1.24010000000000
H           -5.43400000000000       -0.00290000000000       -0.47930000000000
H           -3.13760000000000        6.17540000000000       -4.53720000000000
H           -1.83990000000000        6.80360000000000       -3.47320000000000
H           -3.52250000000000        6.73750000000000       -2.87880000000000
C           -2.77450000000000        2.07570000000000        3.99110000000000
C           -2.45000000000000        1.03420000000000        4.85420000000000
C           -1.25420000000000        1.13800000000000        5.64850000000000
C           -0.31260000000000        2.15570000000000        5.31830000000000
C           -0.69490000000000        3.16050000000000        4.41810000000000
C           -1.91560000000000        3.14760000000000        3.78990000000000
C           -0.89870000000000        0.23510000000000        6.70260000000000
C            0.45750000000000        0.17920000000000        7.05020000000000
C            1.34790000000000        1.19190000000000        6.59630000000000
N            0.95100000000000        2.19960000000000        5.79770000000000
C           -1.77220000000000       -0.60940000000000        7.46150000000000
C           -1.19280000000000       -1.71490000000000        8.14820000000000
N            0.13770000000000       -1.86590000000000        8.32830000000000
C            0.93210000000000       -0.87230000000000        7.88520000000000
C            2.28170000000000       -0.87020000000000        8.24960000000000
C            3.13920000000000        0.13880000000000        7.85500000000000
C            2.67380000000000        1.15680000000000        7.04170000000000
C           -3.17310000000000       -0.34590000000000        7.63550000000000
C           -3.96270000000000       -1.33240000000000        8.21430000000000
C           -3.40900000000000       -2.49850000000000        8.72810000000000
C           -2.04560000000000       -2.66530000000000        8.72650000000000
O           -3.65680000000000        0.91010000000000        7.29150000000000
O           -3.29780000000000       -0.08960000000000        4.83430000000000
C           -2.25650000000000        4.24820000000000        2.86160000000000
C           -4.27770000000000       -3.52650000000000        9.34100000000000
H           -0.00790000000000        3.95740000000000        4.19670000000000
H           -3.68080000000000        2.01270000000000        3.41740000000000
H            3.34350000000000        1.94060000000000        6.74070000000000
H            2.66070000000000       -1.65640000000000        8.87740000000000
H           -1.62220000000000       -3.53230000000000        9.20000000000000
H           -5.02350000000000       -1.20150000000000        8.31220000000000
O           -1.44590000000000        5.13510000000000        2.67290000000000
O           -3.47980000000000        4.20390000000000        2.25780000000000
C           -3.63770000000000        5.32750000000000        1.45300000000000
C            4.54040000000000        0.11860000000000        8.33430000000000
O            4.89310000000000       -0.75210000000000        9.10680000000000
O            5.36820000000000        1.10490000000000        7.88020000000000
C            6.62460000000000        0.95160000000000        8.45700000000000
O           -5.48270000000000       -3.36630000000000        9.36360000000000
O           -3.64250000000000       -4.62070000000000        9.85550000000000
C           -4.58010000000000       -5.48970000000000       10.40170000000000
C           -5.05650000000000        1.03430000000000        7.30020000000000
C           -2.63460000000000       -1.31230000000000        4.61900000000000
H           -4.06440000000000       -6.36350000000000       10.80560000000000
H           -5.27950000000000       -5.79210000000000        9.61850000000000
H           -5.12130000000000       -4.96970000000000       11.19590000000000
H            7.28730000000000        1.74030000000000        8.09490000000000
H            7.02040000000000       -0.03050000000000        8.18650000000000
H            6.52150000000000        1.01560000000000        9.54310000000000
H           -3.30420000000000       -1.97250000000000        4.06770000000000
H           -2.37080000000000       -1.77870000000000        5.56630000000000
H           -1.73880000000000       -1.11960000000000        4.03110000000000
H           -5.31130000000000        2.02440000000000        6.92020000000000
H           -5.43190000000000        0.93460000000000        8.31960000000000
H           -5.49150000000000        0.27800000000000        6.64480000000000
H           -4.58070000000000        5.25140000000000        0.90800000000000
H           -2.79940000000000        5.38010000000000        0.75330000000000
H           -3.63580000000000        6.21770000000000        2.08660000000000
116
 energy: -213.894986999149 gnorm: 0.068903172798 xtb: 6.7.1 (edcfbbe)
C           -2.33461487434290        2.55582122525082       -1.52806930184872
C           -2.06601338691033        1.35463812896425       -0.90427251068705
C           -1.27051699521725        1.35198863576617        0.27496883605426
C           -0.51053927087379        2.51994248923269        0.59073407824949
C           -0.82398701213705        3.72583727973422       -0.06416660944249
C           -1.75313683875381        3.74687290922772       -1.07947207489258
C           -1.12048691759445        0.23337502501443        1.14819142296937
C            0.04111584151264        0.19190070428641        1.92614956391643
C            0.85939646728598        1.35468531407305        2.02392145617989
N            0.52002541975927        2.51378471237089        1.45072092623028
C           -2.03868973078558       -0.84666762024263        1.31120164004909
C           -1.53234765120260       -2.05277851262327        1.88638066332413
N           -0.33108185951600       -2.13322582596755        2.48745791665791
C            0.39524921813390       -1.01374948862655        2.60086736281484
C            1.58157849957581       -1.02989262578845        3.35127171175664
C            2.38631879621781        0.09804693835689        3.42760911604514
C            2.03158113416933        1.27887876907156        2.79101300860217
C           -3.42917516420985       -0.73821371465166        1.02860957328775
C           -4.20985386263171       -1.87661965654349        1.08537076188088
C           -3.67394946227454       -3.09818393312823        1.50632684624750
C           -2.36685485470162       -3.18451725933168        1.92552152840279
O           -3.93707897417179        0.51392427097584        0.81079338712882
O           -2.54490205754551        0.19865892082128       -1.50924070199309
C           -2.08737725469051        5.03986051465471       -1.71790883921536
C           -4.58244059632070       -4.26145626921610        1.58650581010226
H           -0.32590730461777        4.63368171946211        0.23841280670749
H           -2.98422301799345        2.57265317500813       -2.38729474835129
H            2.66155576304582        2.14622708995703        2.88380509615674
H            1.87732830364798       -1.93098402101835        3.86409087428650
H           -1.99594204674900       -4.10503683955484        2.34124337178198
H           -5.25792728914850       -1.85004169607002        0.84026252881763
O           -1.96241661449649        6.08725036314937       -1.12700716558916
O           -2.53782993446431        4.96454186553778       -2.98833815920948
C           -2.78033257018633        6.24747167431177       -3.51386463610771
C            3.63765970702250        0.01711248305842        4.20837305593212
O            3.90195381751336       -0.94534555153119        4.89202192160548
O            4.45476136320646        1.08171910900900        4.08167427975004
C            5.60157945730579        0.93444788295653        4.88148879918204
O           -5.72890748563374       -4.20163836696016        1.20516662460228
O           -4.04584186427941       -5.37335541103468        2.13315914629171
C           -4.99161755339245       -6.41266352158495        2.19633216558826
C           -5.29197699331154        0.57824044286110        0.43226326732062
C           -1.54791032249870       -0.76114710636092       -1.80474210546730
H           -4.52764568795149       -7.28790875286455        2.64826398786264
H           -5.34036362414896       -6.64634410910397        1.18679537894840
H           -5.84741317930288       -6.08664545060828        2.79404258154880
H            6.27235911682644        1.77406237974425        4.70896257468033
H            6.09648223915158       -0.01086821891679        4.64387746314388
H            5.29156232322498        0.91257831722156        5.92529589423583
H           -2.02947367990379       -1.57818038233661       -2.34092585150976
H           -1.08937197519850       -1.15764549375920       -0.89734121604390
H           -0.77412171877528       -0.31965175446582       -2.43937841743657
H           -5.52726870060061        1.62508046888125        0.24101033619391
H           -5.93639802846713        0.20856716265362        1.23464100078432
H           -5.45248137120428        0.00235329675959       -0.48250949406080
H           -3.13719066782492        6.15029451101995       -4.53793331458710
H           -1.85351481157007        6.82739462387192       -3.49055697548484
H           -3.52534303102747        6.75940229096874       -2.89877753713318
C           -2.77738706687537        2.06013432040019        3.98764052502637
C           -2.45170623773246        1.03585098193117        4.85624719628701
C           -1.26535764344577        1.12571273689023        5.63995220909059
C           -0.31780279431995        2.14735732770279        5.31424745194446
C           -0.69085388779141        3.16353036878359        4.41812802743341
C           -1.91567121507982        3.14323628372007        3.79457922716765
C           -0.90649076410981        0.23700861821005        6.70195908009049
C            0.45150277578820        0.18069464920946        7.04827079402780
C            1.34451697308625        1.18950433291783        6.58428620761326
N            0.93408151561643        2.19009107359963        5.80022634463489
C           -1.78101181674268       -0.59635253341054        7.46676593684289
C           -1.19108562947028       -1.70518691121567        8.15121354200948
N            0.13160902662309       -1.85204136562245        8.31766529176299
C            0.92723014512669       -0.86783815617140        7.88880710314203
C            2.28234043108677       -0.87587233468433        8.25170108091201
C            3.13499953885409        0.14270751791355        7.85236691304201
C            2.67694831066470        1.16580395796443        7.03225300602647
C           -3.17417479987773       -0.34739151497955        7.63914286054108
C           -3.96031511932728       -1.32659045160375        8.21797697304489
C           -3.39474537817809       -2.50098901931229        8.72628594705679
C           -2.03166428118349       -2.67318988749137        8.72845185275477
O           -3.65139858098493        0.88770557069245        7.28944484665064
O           -3.29180325332611       -0.07038182728776        4.84277190399662
C           -2.23482520147811        4.25169323450595        2.86864373876165
C           -4.28908179559927       -3.51064836719829        9.33110622495520
H            0.00413821489433        3.95667057861520        4.19552234788138
H           -3.68911289335980        1.99838544161232        3.41693138543812
H            3.34028502783334        1.96065285366558        6.73585206593547
H            2.65979893981157       -1.66636656533749        8.87967143852562
H           -1.59944011138117       -3.53593112683093        9.20449877172540
H           -5.02558420404131       -1.20521988197116        8.31511383566539
O           -1.44869213103116        5.14906285297214        2.67631959968349
O           -3.44688762146662        4.20264312718081        2.27506228671119
C           -3.64556913836088        5.33112326067568        1.45540911662873
C            4.52637177389272        0.10028385906342        8.35647021201577
O            4.89642983337122       -0.75966413300807        9.11892005262691
O            5.34335676229969        1.08655596455212        7.92096987366881
C            6.63312421361851        0.95434750390207        8.46737397878067
O           -5.48961351089330       -3.36537319377308        9.36345793462393
O           -3.66382961327364       -4.59356929825730        9.84212470466489
C           -4.58428493525093       -5.49540794547823       10.40522350357393
C           -5.05243237594876        1.03275453141908        7.29960553452754
C           -2.63784720722749       -1.30410232342610        4.63677883163055
H           -4.04307519407626       -6.35433368036846       10.79932830030128
H           -5.29426195273315       -5.81496442363431        9.63757593835671
H           -5.13669317018455       -4.99645852491143       11.20606810945738
H            7.26728873791326        1.75234522172686        8.08361819449433
H            7.04585094201695       -0.02119645461956        8.19649411502821
H            6.56155838258112        1.01447460788310        9.55596962017763
H           -3.31413944408120       -1.95193879858927        4.07871761020459
H           -2.37561923554783       -1.79272209663711        5.57589278252995
H           -1.73277515257387       -1.14085559004848        4.05737516552668
H           -5.28123195398790        2.02719961131694        6.91748863647623
H           -5.44385401652299        0.94158217991958        8.31655786944452
H           -5.50868144501545        0.28531485841404        6.64591493336967
H           -4.59084478150676        5.22794421280183        0.92486301154735
H           -2.81946001196898        5.41391542825624        0.74680411498439
H           -3.65306721009521        6.23326622550722        2.07179273271755
116
 energy: -213.906845154559 gnorm: 0.017438384743 xtb: 6.7.1 (edcfbbe)
C           -2.32862136117311        2.54798854325355       -1.54058419971375
C           -2.06176165704842        1.35447077874938       -0.90858950839618
C           -1.27726472939530        1.34813986369249        0.26601426014313
C           -0.51636083406961        2.51784793086206        0.58939657126680
C           -0.82407752276772        3.72968496852050       -0.06434892279816
C           -1.75193475730610        3.74468090142789       -1.08046630736400
C           -1.12586053827115        0.23686796216687        1.14667243007115
C            0.03728885793256        0.19592312224298        1.92460135983735
C            0.85572619024465        1.36080780309934        2.02270277589988
N            0.50310930025664        2.50675028557606        1.44934373728808
C           -2.04827924518746       -0.83960729535099        1.31113410624730
C           -1.52954612284602       -2.05063349826234        1.87551231707673
N           -0.32354807433491       -2.12763706249264        2.45166174389600
C            0.39550998607634       -1.01437533213655        2.59055332069399
C            1.58203027393100       -1.03204840964217        3.34886309546445
C            2.38092703892995        0.10325900225908        3.42571409599479
C            2.03308935699925        1.29039270935075        2.79238021616453
C           -3.43236464182583       -0.74180085471065        1.02719134474983
C           -4.20763463222914       -1.88034744640493        1.08534033372796
C           -3.65995809224503       -3.10398532178961        1.50483184272583
C           -2.35286476219092       -3.19558282821250        1.91945814377991
O           -3.93152204616605        0.49313455977016        0.80157880719262
O           -2.53991755595683        0.20445997592888       -1.49309670481529
C           -2.07204499195863        5.04939255325732       -1.70479029829169
C           -4.59701953603327       -4.24840131049464        1.57478185181966
H           -0.31070369907339        4.63042940553846        0.23516716537403
H           -2.97438639840282        2.56302834068118       -2.40413892601127
H            2.65811771564209        2.16185779333792        2.88473953204238
H            1.87629704140164       -1.93505975985028        3.86089750371660
H           -1.96986095310386       -4.11026936799629        2.33800960101878
H           -5.25726499398262       -1.86741987434075        0.84172432060831
O           -1.93936600840448        6.10373532294575       -1.13218029158508
O           -2.52495390609919        4.97414566574962       -2.96154019276423
C           -2.78464776210554        6.25256116949839       -3.52526036433661
C            3.62805312894931       -0.00356892709796        4.21862052208287
O            3.89609224948523       -0.95465210306288        4.91268747987439
O            4.44082188269099        1.04547739338443        4.08334458786614
C            5.62101868216148        0.93626711289217        4.86792678388880
O           -5.74154538230187       -4.19458123336004        1.19428168271183
O           -4.07070816325654       -5.35345419233757        2.11566358551651
C           -4.99777629212975       -6.42553257315707        2.19676902945192
C           -5.28910544914545        0.58315820754989        0.43007056992691
C           -1.54939285917975       -0.75760428620978       -1.80563640905620
H           -4.49360680694864       -7.27461142057310        2.65225055973307
H           -5.35371212087797       -6.67888022167276        1.19450714282483
H           -5.85837004052738       -6.11978481183208        2.79834153584120
H            6.25652274747255        1.79315230074234        4.65637806875246
H            6.13460644942933       -0.00003819757285        4.63519555950843
H            5.34288221053683        0.92142801070191        5.92119991488905
H           -2.05493013542730       -1.55962685395800       -2.34195259012380
H           -1.07560117572714       -1.17524927823547       -0.91288063731728
H           -0.77602117421016       -0.32252546380801       -2.44792721936601
H           -5.49163757586379        1.63810765199458        0.24872439963032
H           -5.94430647284954        0.22180998823164        1.22951148222458
H           -5.47334310731152        0.01451725949199       -0.48643681673546
H           -3.13863272000386        6.10935215874364       -4.54318599557888
H           -1.86690937152133        6.84730596490785       -3.51615131706832
H           -3.53329874941532        6.77569704576983       -2.92401123309240
C           -2.77649156479103        2.05191272385845        3.98007269725321
C           -2.44879736290141        1.03426749343515        4.85112780333535
C           -1.27247609515756        1.11552191589156        5.63306250506198
C           -0.31927660934328        2.13989306440061        5.31113095867940
C           -0.68473605079041        3.16273463050804        4.41520633837572
C           -1.91175251149895        3.14087059973467        3.79472652185924
C           -0.91077134308838        0.23824557249560        6.70331643278368
C            0.44891590355526        0.18081461025275        7.04757593652390
C            1.34506042684053        1.18600968648813        6.57713626448297
N            0.92342236046743        2.17804603819875        5.80049162873098
C           -1.78911546050444       -0.58474125468908        7.47419852988514
C           -1.19248428253737       -1.69811999741498        8.15574513519384
N            0.12336213026958       -1.83963926911089        8.31178244873880
C            0.92346293103079       -0.86588871765121        7.89165787902692
C            2.28196982098830       -0.87912087175188        8.25455425974704
C            3.13062969312398        0.14633215296778        7.85481711228922
C            2.68239896317677        1.17117643925706        7.02896379581534
C           -3.17819455464572       -0.34697444099478        7.64630602923307
C           -3.95892780504486       -1.32653053399540        8.22330290247793
C           -3.38407461181148       -2.50563854672797        8.72798909404978
C           -2.02292893386483       -2.68100758150334        8.73361322019288
O           -3.65056565915513        0.86858256736368        7.28902606748140
O           -3.28260957820133       -0.05770962940746        4.84462698074632
C           -2.21274552971005        4.26596138431635        2.87942196467960
C           -4.30741669418580       -3.49626003965511        9.32480211507971
H            0.01629743324746        3.95199246768489        4.19600764969844
H           -3.69016354735429        1.98999022406315        3.41034593219692
H            3.33779998125508        1.97460474823482        6.73372362141578
H            2.65709389183124       -1.67272851518518        8.88095550315878
H           -1.57757382286314       -3.53863245102689        9.20745166366430
H           -5.02621522118387       -1.21812080108252        8.32317818885820
O           -1.44103481298413        5.17144485423313        2.68667961036307
O           -3.41365400334088        4.20930668143742        2.28905416821784
C           -3.65959623130850        5.33870231138361        1.45864639530001
C            4.51422887854229        0.07914454396158        8.38450325453833
O            4.89548898746442       -0.77775911262216        9.13922419815782
O            5.32307072523207        1.06670579688520        7.96494431113312
C            6.64309446887622        0.95944464361154        8.48027560135555
O           -5.50639475387657       -3.35753169685159        9.35892929786215
O           -3.69319093949178       -4.57201222561362        9.83247995803852
C           -4.59132541001261       -5.50586568941878       10.41111631990183
C           -5.05065407362023        1.03930042704595        7.29723656744522
C           -2.64443914837260       -1.30465586265158        4.65751214979831
H           -4.00958911785721       -6.34308288069595       10.79039276328492
H           -5.30641392812543       -5.84315743819567        9.65573225637251
H           -5.14840520067405       -5.02572045141500       11.22029826262298
H            7.23622391536850        1.77254008965290        8.06624327346379
H            7.07012078208789       -0.00786507148864        8.20260715438880
H            6.60605037795582        1.01990678638221        9.57090704819734
H           -3.33057867966213       -1.93443128382381        4.09048895204480
H           -2.40084208849608       -1.80687711035520        5.59675261829881
H           -1.72298806321848       -1.17139917595510        4.09412239465987
H           -5.24502455813770        2.03917233177439        6.91164105046596
H           -5.45438875206505        0.95738335323316        8.31168359099082
H           -5.52740896774577        0.30042113691208        6.64614272628143
H           -4.60939264505911        5.18967961845797        0.94961156909611
H           -2.84527001378304        5.45097097244706        0.74114324252029
H           -3.68711373811483        6.24533695495805        2.06764863737520
116
 energy: -213.910880823215 gnorm: 0.015951356912 xtb: 6.7.1 (edcfbbe)
C           -2.31889827263233        2.55305234898053       -1.54866074060327
C           -2.05746440104042        1.35911306937897       -0.91259674732415
C           -1.27907236601948        1.35072141753555        0.26551898055865
C           -0.51698831779132        2.51987729710045        0.59203843565940
C           -0.82002919077789        3.73253649077357       -0.06371316789702
C           -1.74462700386901        3.74985680688298       -1.08227105187069
C           -1.12718844962156        0.23804525941797        1.14520083571995
C            0.03589898492685        0.19655273553134        1.92381551277507
C            0.85354235151187        1.36232613081943        2.02783746433603
N            0.49790728141503        2.50633250385878        1.45454424521173
C           -2.04985246309042       -0.84008689066840        1.30581843910117
C           -1.52703350587084       -2.05442062908615        1.86060486639993
N           -0.31738779546558       -2.13155322681822        2.42537419622317
C            0.39726363247434       -1.01823791063881        2.57953311398340
C            1.58120222974981       -1.03537623276479        3.34337799374300
C            2.37534053831598        0.10261340615645        3.43128676718125
C            2.03080688873086        1.29203466466265        2.80055579997056
C           -3.43419608038380       -0.74474315441547        1.02200210618010
C           -4.20610150352454       -1.88609818934309        1.08202496141082
C           -3.65578449550645       -3.11044585672662        1.49855710868622
C           -2.34666099663088       -3.20404552096147        1.90559329450434
O           -3.92926073160541        0.48703179127429        0.79224098455874
O           -2.53892454491114        0.20878669802096       -1.48938581832447
C           -2.05489374815442        5.06040623942247       -1.70332646411192
C           -4.60589831138359       -4.24784550918826        1.56091539623988
H           -0.30017800310668        4.62863764318090        0.23653889143454
H           -2.95569886933065        2.56525104431639       -2.41906799073996
H            2.65085087936840        2.16722068360094        2.89474237068436
H            1.87476645121721       -1.93948083193320        3.85317016096445
H           -1.95163665818675       -4.11575041963107        2.32005541010159
H           -5.25604146174996       -1.88036815015351        0.84047392906020
O           -1.90858230645858        6.11725735679662       -1.13683252552595