274
 energy: -391.729285095134 gnorm: 0.158244248537 xtb: 6.7.1 (edcfbbe)
C           -2.56870000000000       -2.65480000000000        1.51570000000000
C           -2.83690000000000       -1.38060000000000        1.02130000000000
C           -3.89150000000000       -1.19100000000000        0.06190000000000
C           -4.52280000000000       -2.37580000000000       -0.42480000000000
C           -4.16930000000000       -3.63660000000000        0.10170000000000
C           -3.23660000000000       -3.79330000000000        1.09790000000000
C           -4.50850000000000        0.06990000000000       -0.27810000000000
C           -5.72370000000000        0.01210000000000       -0.98290000000000
C           -6.15980000000000       -1.20960000000000       -1.56130000000000
N           -5.54750000000000       -2.38020000000000       -1.31120000000000
C           -4.14630000000000        1.38830000000000        0.16810000000000
C           -5.14880000000000        2.39720000000000        0.23970000000000
N           -6.33480000000000        2.29810000000000       -0.39650000000000
C           -6.56290000000000        1.16070000000000       -1.08240000000000
C           -7.74020000000000        1.06970000000000       -1.83940000000000
C           -8.12650000000000       -0.09240000000000       -2.48360000000000
C           -7.33560000000000       -1.21820000000000       -2.32740000000000
C           -2.80830000000000        1.79640000000000        0.46630000000000
C           -2.60050000000000        2.94910000000000        1.22370000000000
C           -3.62460000000000        3.85330000000000        1.47670000000000
C           -4.86260000000000        3.59110000000000        0.93180000000000
O           -2.04530000000000       -0.40780000000000        1.59980000000000
O           -1.73950000000000        1.13280000000000       -0.10280000000000
B           -1.00620000000000        0.29960000000000        0.83930000000000
C            0.50120000000000       -2.81060000000000        0.07990000000000
C            0.77520000000000       -1.54360000000000        0.59760000000000
C            1.90930000000000       -1.35570000000000        1.46750000000000
C            2.58310000000000       -2.54730000000000        1.88250000000000
C            2.21680000000000       -3.79930000000000        1.34410000000000
C            1.23290000000000       -3.94410000000000        0.39860000000000
C            2.58100000000000       -0.10110000000000        1.73710000000000
C            3.86650000000000       -0.18190000000000        2.30590000000000
C            4.33440000000000       -1.40680000000000        2.85130000000000
N            3.67960000000000       -2.56660000000000        2.67720000000000
C            2.22930000000000        1.21690000000000        1.27340000000000
C            3.26830000000000        2.16160000000000        1.02400000000000
N            4.50090000000000        2.05100000000000        1.56260000000000
C            4.74970000000000        0.93940000000000        2.28260000000000
C            5.99840000000000        0.82720000000000        2.91570000000000
C            6.42250000000000       -0.33780000000000        3.53350000000000
C            5.58650000000000       -1.43890000000000        3.48280000000000
C            0.89080000000000        1.67160000000000        1.05520000000000
C            0.67510000000000        2.77030000000000        0.22440000000000
C            1.71520000000000        3.56450000000000       -0.23990000000000
C            2.98310000000000        3.28890000000000        0.22380000000000
O           -0.16560000000000        1.08720000000000        1.72070000000000
O           -0.08630000000000       -0.58250000000000        0.10310000000000
C           -3.08020000000000       -5.12100000000000        1.85430000000000
C           -1.76360000000000       -5.13930000000000        2.65750000000000
C           -3.09060000000000       -6.31790000000000        0.88600000000000
C           -4.25710000000000       -5.26010000000000        2.83500000000000
C           -3.36630000000000        5.17310000000000        2.21120000000000
C           -4.42860000000000        5.36310000000000        3.30870000000000
C           -1.96990000000000        5.18670000000000        2.86190000000000
C           -3.44710000000000        6.33470000000000        1.20660000000000
C           -9.43720000000000       -0.11290000000000       -3.28320000000000
C           -9.64560000000000       -1.45940000000000       -4.00220000000000
C           -9.40720000000000        1.00160000000000       -4.34580000000000
C          -10.61610000000000        0.11790000000000       -2.32110000000000
C            1.11300000000000       -5.24890000000000       -0.40660000000000
C           -0.09060000000000       -5.20110000000000       -1.36710000000000
C            0.96350000000000       -6.46360000000000        0.52710000000000
C            2.39320000000000       -5.41880000000000       -1.24570000000000
C            1.45790000000000        4.76190000000000       -1.16550000000000
C            2.46660000000000        4.74150000000000       -2.32880000000000
C            1.61370000000000        6.06640000000000       -0.36920000000000
C            0.03630000000000        4.71480000000000       -1.76120000000000
C            7.84220000000000       -0.47290000000000        4.10430000000000
C            8.39450000000000        0.89620000000000        4.54460000000000
C            7.84490000000000       -1.41240000000000        5.32650000000000
C            8.75860000000000       -1.05630000000000        3.01640000000000
H          -11.56560000000000        0.09740000000000       -2.85520000000000
H          -10.53420000000000        1.08210000000000       -1.82110000000000
H          -10.64300000000000       -0.65490000000000       -1.55340000000000
H          -10.56090000000000       -1.44420000000000       -4.59330000000000
H           -9.73090000000000       -2.27800000000000       -3.28830000000000
H           -8.81830000000000       -1.67350000000000       -4.67820000000000
H          -10.31510000000000        0.99030000000000       -4.94820000000000
H           -8.55690000000000        0.87210000000000       -5.01460000000000
H           -9.32610000000000        1.98630000000000       -3.88810000000000
H           -4.18210000000000       -6.18310000000000        3.40910000000000
H           -5.20790000000000       -5.26720000000000        2.30310000000000
H           -4.27360000000000       -4.42600000000000        3.53510000000000
H           -1.56980000000000       -6.12730000000000        3.07430000000000
H           -1.80200000000000       -4.43850000000000        3.48920000000000
H           -0.92060000000000       -4.85810000000000        2.02950000000000
H           -2.93900000000000       -7.25230000000000        1.42600000000000
H           -2.30140000000000       -6.23330000000000        0.14350000000000
H           -4.04030000000000       -6.39760000000000        0.35970000000000
H           -0.22930000000000       -6.15910000000000       -1.86730000000000
H            0.05570000000000       -4.44590000000000       -2.13880000000000
H           -1.00830000000000       -4.96150000000000       -0.83430000000000
H            2.34150000000000       -6.31650000000000       -1.86120000000000
H            3.27260000000000       -5.49880000000000       -0.60780000000000
H            2.53700000000000       -4.56400000000000       -1.90580000000000
H            0.93860000000000       -7.38910000000000       -0.04770000000000
H            0.04240000000000       -6.41260000000000        1.10140000000000
H            1.79420000000000       -6.53340000000000        1.22770000000000
H           -4.21750000000000        6.24600000000000        3.91100000000000
H           -4.45440000000000        4.49740000000000        3.96740000000000
H           -5.42340000000000        5.48280000000000        2.88250000000000
H            1.44310000000000        6.93450000000000       -1.00530000000000
H            2.61500000000000        6.15060000000000        0.05100000000000
H            0.89560000000000        6.10450000000000        0.44930000000000
H           -1.81790000000000        6.10780000000000        3.42140000000000
H           -1.18220000000000        5.13240000000000        2.11120000000000
H           -1.84840000000000        4.34880000000000        3.54670000000000
H           -3.26190000000000        7.28910000000000        1.69880000000000
H           -4.43000000000000        6.38240000000000        0.73960000000000
H           -2.70710000000000        6.21230000000000        0.41620000000000
H            2.26940000000000        5.55260000000000       -3.02910000000000
H            2.40350000000000        3.80100000000000       -2.87500000000000
H            3.48900000000000        4.85590000000000       -1.97230000000000
H           -0.10980000000000        5.52150000000000       -2.47890000000000
H           -0.72190000000000        4.82840000000000       -0.98720000000000
H           -0.13860000000000        3.77180000000000       -2.27840000000000
H            8.78280000000000       -0.40610000000000        2.14250000000000
H            8.40360000000000       -2.03470000000000        2.69430000000000
H            9.77810000000000       -1.16950000000000        3.38370000000000
H            7.08840000000000       -1.10590000000000        6.04430000000000
H            8.81160000000000       -1.39990000000000        5.82890000000000
H            7.63910000000000       -2.44320000000000        5.04300000000000
H            7.69680000000000        1.39390000000000        5.21350000000000
H            8.57110000000000        1.54930000000000        3.69140000000000
H            9.34230000000000        0.78400000000000        5.07040000000000
H            6.64660000000000        1.68180000000000        2.87340000000000
H            5.91140000000000       -2.38040000000000        3.88340000000000
H            2.82480000000000       -4.64500000000000        1.60790000000000
H            3.79710000000000        3.94120000000000       -0.03140000000000
H           -5.64890000000000        4.31810000000000        1.01490000000000
H           -4.73030000000000       -4.48530000000000       -0.24290000000000
H           -8.36210000000000        1.94370000000000       -1.89520000000000
H           -7.62940000000000       -2.15410000000000       -2.76330000000000
H           -0.30600000000000       -2.86910000000000       -0.62580000000000
H           -1.83110000000000       -2.71090000000000        2.29390000000000
H           -1.60710000000000        3.13980000000000        1.57890000000000
H           -0.33640000000000        2.99370000000000       -0.04790000000000
C           -0.37390000000000       -2.28860000000000        6.99580000000000
C           -0.61450000000000       -1.10680000000000        6.29300000000000
C           -1.74100000000000       -1.02310000000000        5.39740000000000
C           -2.43940000000000       -2.24780000000000        5.15540000000000
C           -2.10520000000000       -3.41450000000000        5.87560000000000
C           -1.13130000000000       -3.43960000000000        6.84200000000000
C           -2.38530000000000        0.19330000000000        4.94670000000000
C           -3.66920000000000        0.05730000000000        4.38510000000000
C           -4.15940000000000       -1.22370000000000        4.01640000000000
N           -3.53170000000000       -2.35960000000000        4.36250000000000
C           -2.01010000000000        1.55690000000000        5.22260000000000
C           -3.03180000000000        2.54640000000000        5.32940000000000
N           -4.26330000000000        2.38410000000000        4.80160000000000
C           -4.52930000000000        1.18760000000000        4.24150000000000
C           -5.77490000000000        1.01130000000000        3.61690000000000
C           -6.21820000000000       -0.22100000000000        3.16570000000000
C           -5.40720000000000       -1.32040000000000        3.38310000000000
C           -0.66390000000000        2.01400000000000        5.38040000000000
C           -0.42880000000000        3.21540000000000        6.04760000000000
C           -1.45530000000000        4.08680000000000        6.38780000000000
C           -2.72740000000000        3.77030000000000        5.96330000000000
O            0.26920000000000       -0.10330000000000        6.64150000000000
O            0.38160000000000        1.32320000000000        4.80580000000000
B            1.20600000000000        0.64150000000000        5.78490000000000
C            2.67490000000000       -2.42080000000000        5.52820000000000
C            2.98750000000000       -1.09760000000000        5.83030000000000
C            4.05980000000000       -0.80390000000000        6.74240000000000
C            4.66480000000000       -1.92480000000000        7.38780000000000
C            4.26620000000000       -3.23680000000000        7.05390000000000
C            3.31500000000000       -3.50700000000000        6.10040000000000
C            4.71500000000000        0.47450000000000        6.89250000000000
C            5.93980000000000        0.48230000000000        7.58300000000000
C            6.35290000000000       -0.65760000000000        8.32250000000000
N            5.70420000000000       -1.83310000000000        8.25170000000000
C            4.37930000000000        1.72690000000000        6.27010000000000
C            5.40610000000000        2.68760000000000        6.04530000000000
N            6.59970000000000        2.64530000000000        6.67330000000000
C            6.81070000000000        1.60920000000000        7.50870000000000
C            8.00080000000000        1.59270000000000        8.25170000000000
C            8.36950000000000        0.51870000000000        9.04360000000000
C            7.54300000000000       -0.59120000000000        9.06240000000000
C            3.04760000000000        2.12600000000000        5.93350000000000
C            2.85750000000000        3.16790000000000        5.02610000000000
C            3.90030000000000        3.99900000000000        4.63620000000000
C            5.13980000000000        3.78090000000000        5.19670000000000
O            1.97020000000000        1.57580000000000        6.59900000000000
O            2.21840000000000       -0.19360000000000        5.12410000000000
C           -1.04940000000000       -4.61240000000000        7.83360000000000
C            0.14560000000000       -4.44920000000000        8.79210000000000
C           -0.92000000000000       -5.95510000000000        7.09220000000000
C           -2.34130000000000       -4.62770000000000        8.67210000000000
C           -1.18190000000000        5.39790000000000        7.13820000000000
C           -2.15840000000000        5.52430000000000        8.32170000000000
C            0.25620000000000        5.43960000000000        7.69300000000000
C           -1.37150000000000        6.58550000000000        6.18170000000000
C           -7.63410000000000       -0.40740000000000        2.60020000000000
C           -7.64460000000000       -1.51280000000000        1.52560000000000
C           -8.15000000000000        0.89490000000000        1.95920000000000
C           -8.57520000000000       -0.80870000000000        3.74770000000000
C            3.10940000000000       -4.92530000000000        5.54780000000000
C            1.78800000000000       -5.01780000000000        4.75750000000000
C            3.08620000000000       -5.96540000000000        6.68260000000000
C            4.27540000000000       -5.24700000000000        4.59730000000000
C            3.66410000000000        5.21020000000000        3.72770000000000
C            4.71540000000000        5.21780000000000        2.60350000000000
C            3.78800000000000        6.49770000000000        4.55950000000000
C            2.25920000000000        5.16970000000000        3.09620000000000
C            9.67990000000000        0.50140000000000        9.84370000000000
C           10.43950000000000        1.83670000000000        9.72430000000000
C            9.36600000000000        0.25390000000000       11.33050000000000
C           10.58380000000000       -0.62340000000000        9.30780000000000
H           -9.59270000000000       -0.95370000000000        3.38620000000000
H           -8.59510000000000       -0.03850000000000        4.51810000000000
H           -8.24530000000000       -1.73720000000000        4.21280000000000
H           -8.60590000000000       -1.55350000000000        1.01430000000000
H           -7.46360000000000       -2.49600000000000        1.95680000000000
H           -6.87500000000000       -1.32770000000000        0.78070000000000
H           -9.09480000000000        0.72830000000000        1.44270000000000
H           -7.43430000000000        1.27480000000000        1.23440000000000
H           -8.31970000000000        1.66860000000000        2.70640000000000
H           -2.31770000000000       -5.42640000000000        9.41290000000000
H           -3.21660000000000       -4.77990000000000        8.04180000000000
H           -2.46970000000000       -3.68210000000000        9.19810000000000
H            0.25500000000000       -5.32430000000000        9.43210000000000
H            0.01090000000000       -3.58340000000000        9.43990000000000
H            1.07470000000000       -4.31420000000000        8.24250000000000
H           -0.92350000000000       -6.78570000000000        7.79770000000000
H            0.00810000000000       -6.01020000000000        6.52950000000000
H           -1.74470000000000       -6.10920000000000        6.39800000000000
H            1.56280000000000       -6.04880000000000        4.48600000000000
H            1.84230000000000       -4.44420000000000        3.83440000000000
H            0.95700000000000       -4.62470000000000        5.33980000000000
H            4.16370000000000       -6.23950000000000        4.16180000000000
H            5.22800000000000       -5.21240000000000        5.12490000000000
H            4.31870000000000       -4.52310000000000        3.78490000000000
H            2.89460000000000       -6.96300000000000        6.28810000000000
H            2.30880000000000       -5.74140000000000        7.40830000000000
H            4.03780000000000       -6.00170000000000        7.21030000000000
H           -1.95630000000000        6.42620000000000        8.89870000000000
H           -2.06490000000000        4.66830000000000        8.98930000000000
H           -3.19180000000000        5.57440000000000        7.98200000000000
H            3.62020000000000        7.37900000000000        3.94090000000000
H            4.77820000000000        6.58330000000000        5.00520000000000
H            3.05630000000000        6.50650000000000        5.36690000000000
H            0.41770000000000        6.34160000000000        8.28240000000000
H            0.99080000000000        5.44160000000000        6.88840000000000
H            0.45160000000000        4.58160000000000        8.33570000000000
H           -1.20150000000000        7.53110000000000        6.69570000000000
H           -2.38120000000000        6.60300000000000        5.77360000000000
H           -0.66850000000000        6.52510000000000        5.35160000000000
H            4.51430000000000        6.00960000000000        1.88270000000000
H            4.71550000000000        4.26600000000000        2.07640000000000
H            5.71800000000000        5.37560000000000        2.99790000000000
H            2.12110000000000        6.00830000000000        2.41620000000000
H            1.48110000000000        5.24010000000000        3.85550000000000
H            2.10810000000000        4.24860000000000        2.53520000000000
H           10.79770000000000       -0.47370000000000        8.24990000000000
H           10.11010000000000       -1.59790000000000        9.41800000000000
H           11.53210000000000       -0.65070000000000        9.84390000000000
H            8.70470000000000        1.02860000000000       11.71740000000000
H           10.27740000000000        0.25880000000000       11.92760000000000
H            8.87690000000000       -0.70780000000000       11.47820000000000
H            9.83220000000000        2.66630000000000       10.08530000000000
H           10.72190000000000        2.03730000000000        8.69130000000000
H           11.35430000000000        1.81500000000000       10.31600000000000
H            8.63730000000000        2.45350000000000        8.17290000000000
H            7.82800000000000       -1.46080000000000        9.62490000000000
H            4.80650000000000       -4.04390000000000        7.51250000000000
H            5.94350000000000        4.46660000000000        5.00260000000000
H           -3.52990000000000        4.46660000000000        6.12050000000000
H           -2.73290000000000       -4.27530000000000        5.73490000000000
H           -6.40490000000000        1.87620000000000        3.53010000000000
H           -5.74960000000000       -2.30260000000000        3.11770000000000
H            1.92440000000000       -2.56620000000000        4.77420000000000
H            0.42880000000000       -2.26090000000000        7.70840000000000
H            0.58650000000000        3.45710000000000        6.28910000000000
H            1.86340000000000        3.33540000000000        4.66140000000000
274
 energy: -391.756552115700 gnorm: 0.072508577790 xtb: 6.7.1 (edcfbbe)
C           -2.56993640133648       -2.65346282854224        1.52317748979918
C           -2.81651563868025       -1.37740387961675        1.02374280545093
C           -3.87625946709449       -1.17698870378676        0.08312213638021
C           -4.51771176106206       -2.36655324453116       -0.41021596060491
C           -4.17646749666144       -3.63854049353733        0.10495158228822
C           -3.25768665685252       -3.79525691743742        1.11658304870540
C           -4.49390791415424        0.07392110995402       -0.27217709917452
C           -5.71152860155904        0.01424424769835       -0.97973810590160
C           -6.15427378996655       -1.20894476056934       -1.55098141705255
N           -5.53654145320228       -2.36588664177931       -1.29101151793214
C           -4.12028206793606        1.38799397574631        0.15590118713051
C           -5.13492939112484        2.39535868578647        0.23336748514105
N           -6.31312139276902        2.28624243088962       -0.39905132991938
C           -6.55197274883537        1.15943355298431       -1.08667200019950
C           -7.73821216196368        1.07143513016618       -1.83962379295957
C           -8.12770787088853       -0.09696817929385       -2.48437637989901
C           -7.33221428865647       -1.22379453435822       -2.32804822958166
C           -2.79728528861644        1.79614440516078        0.44991503656396
C           -2.59669806222381        2.94784554292782        1.20648192539430
C           -3.62678570102263        3.85604330688046        1.47089435060016
C           -4.86635110815092        3.59415831358701        0.92982179842072
O           -2.04292421388983       -0.42167735371026        1.60791323780037
O           -1.75036445102803        1.12458108051020       -0.10384567323706
B           -1.00384433212790        0.29235003300438        0.84252854741819
C            0.49814977219288       -2.80616148825387        0.07773404389661
C            0.74902906862135       -1.53672039848056        0.60338007269102
C            1.89214205727129       -1.33901911339434        1.44902064755527
C            2.57741135506978       -2.53434680864852        1.86581174977738
C            2.22285802433508       -3.79843698279385        1.34099323889902
C            1.25008494809415       -3.94127554903088        0.37993465465513
C            2.56695733360215       -0.09650443918364        1.73141601699489
C            3.85456117959982       -0.17961901902309        2.30152860468708
C            4.32818817680634       -1.40290777599317        2.84155693924232
N            3.67010974938327       -2.54898156643883        2.65318007286217
C            2.20386109718683        1.21612605419061        1.28487034648146
C            3.25480454713976        2.15641283151833        1.02779406384029
N            4.47899999915098        2.03581171654200        1.56303276264339
C            4.73989865547150        0.93594962926037        2.28323733064185
C            5.99736530500071        0.82962119354493        2.91277928820338
C            6.42937940621033       -0.34243337726210        3.52376060485536
C            5.58532217765654       -1.44348345942638        3.48003556619552
C            0.88068228652652        1.67645559948532        1.07389588139882
C            0.67301369629338        2.77297064688785        0.24020949498615
C            1.71917314787702        3.56469116003350       -0.24127580150162
C            2.98716592125592        3.28889408496431        0.22161016414479
O           -0.15690061608096        1.08791372157031        1.72133324966690
O           -0.09023295850291       -0.59568001022796        0.09613367020220
C           -3.07841310926639       -5.12343159570693        1.85311052852651
C           -1.76791010246703       -5.13760703414987        2.65582539602053
C           -3.09232054544888       -6.31691398565562        0.88663073206995
C           -4.25675010699849       -5.25503336769469        2.83085035456943
C           -3.36646868382409        5.16790617010256        2.21057482537062
C           -4.42875799978300        5.35978801905446        3.30354329376800
C           -1.97362666143230        5.18618629818392        2.85585140271946
C           -3.44870489342149        6.32755016125853        1.20481154016235
C           -9.43291801299855       -0.11670750709554       -3.28384846735169
C           -9.64400640909660       -1.45762492673493       -4.00032382087640
C           -9.40276526853434        0.99893117854599       -4.34121250261067
C          -10.60805534585028        0.11749628442187       -2.32072916580138
C            1.11012645308940       -5.24868544071241       -0.40584170296599
C           -0.08777578092025       -5.20110944995125       -1.36480183229171
C            0.96586528687803       -6.46213895518260        0.52479921690596
C            2.39163384048208       -5.41362299000914       -1.24059824688541
C            1.45715123449816        4.75572804270066       -1.16701624152225
C            2.46581165509322        4.73821843568122       -2.32595371885880
C            1.61481369372076        6.05997308919610       -0.37182397665017
C            0.03989324456687        4.71305084751400       -1.75952146344323
C            7.84040844421499       -0.47122868138963        4.10463432140601
C            8.39536208195572        0.89317985534638        4.53723771922139
C            7.84503110125765       -1.41213635133093        5.31931151011930
C            8.75075973485867       -1.05576717394443        3.01381657357820
H          -11.55295445428224        0.09560044743861       -2.86112374043840
H          -10.52730428575863        1.08141037197062       -1.82292915680425
H          -10.63599201135315       -0.65721141150220       -1.55627729714210
H          -10.56007734729709       -1.42914104290674       -4.58749636870445
H           -9.73463963088230       -2.27439749176371       -3.28701764897481
H           -8.81895047350664       -1.66961992332402       -4.67763828719320
H          -10.31286649056730        0.98066319226597       -4.93843511040969
H           -8.55454915510094        0.86697409211026       -5.01033025340199
H           -9.32421113600849        1.98259071977790       -3.88447770053945
H           -4.17345567125117       -6.18068749115856        3.39867481164748
H           -5.20525845907409       -5.26709088969399        2.29615786796675
H           -4.26405224332516       -4.41903967775074        3.52839829891758
H           -1.58206358217388       -6.12958257513720        3.06491439269316
H           -1.81255308597381       -4.44367903999826        3.49072865876056
H           -0.92525926784156       -4.85586905965221        2.02872867079929
H           -2.93932471554475       -7.24556690374025        1.43426340253979
H           -2.30334916365875       -6.23010527275326        0.14522155835447
H           -4.04226622643770       -6.39667449030175        0.36408899183688
H           -0.21735512936140       -6.16314139215936       -1.85770955948782
H            0.06298214168189       -4.45030213753281       -2.13816481260362
H           -1.00575698260319       -4.96291385522633       -0.83279329424570
H            2.33084155821149       -6.31190515867615       -1.85302896862427
H            3.26942440119788       -5.49616040771800       -0.60314844913441
H            2.53253893293359       -4.56000287726800       -1.90124933536419
H            0.94369426133206       -7.38209531382402       -0.05746596355050
H            0.04493428396594       -6.40907695417913        1.09640128980237
H            1.79632591161028       -6.52896884975985        1.22337747690322
H           -4.20876135358312        6.24456815651321        3.89916923637766
H           -4.45426513002835        4.49317988397720        3.95910340331055
H           -5.41998493757070        5.48636138403562        2.87470065669893
H            1.44261237692998        6.92301278186430       -1.01341687942698
H            2.61543210335365        6.14296278826253        0.04680300774520
H            0.89523982028386        6.09751928014119        0.44422717207036
H           -1.83511052081794        6.10953347475982        3.41298950453956
H           -1.18604942298316        5.13790491446180        2.10581128312857
H           -1.85207559066968        4.35211476248460        3.54291402495324
H           -3.26207852798382        7.27711979300275        1.70441657275042