110
 energy: -292.003592082090 gnorm: 0.339380766459 xtb: 6.7.1 (edcfbbe)
C           -2.17360000000000        2.02540000000000       -3.10640000000000
C           -1.85630000000000        1.05110000000000       -2.16320000000000
C           -0.93830000000000        1.40050000000000       -1.11680000000000
C           -0.15130000000000        2.57910000000000       -1.26720000000000
C           -0.53120000000000        3.51530000000000       -2.24530000000000
C           -1.54230000000000        3.25310000000000       -3.12800000000000
C           -0.66840000000000        0.55700000000000        0.00720000000000
C            0.57560000000000        0.73850000000000        0.62280000000000
C            1.36490000000000        1.88280000000000        0.31520000000000
N            0.97520000000000        2.82110000000000       -0.56470000000000
C           -1.54430000000000       -0.40310000000000        0.61010000000000
C           -0.97520000000000       -1.32790000000000        1.53010000000000
N            0.29750000000000       -1.26450000000000        1.97020000000000
C            1.02330000000000       -0.20200000000000        1.58730000000000
C            2.25060000000000        0.03270000000000        2.21540000000000
C            2.97540000000000        1.17470000000000        1.98310000000000
C            2.55190000000000        2.07970000000000        1.03740000000000
C           -2.97200000000000       -0.37340000000000        0.46260000000000
C           -3.71990000000000       -1.39630000000000        1.04400000000000
C           -3.14340000000000       -2.34090000000000        1.86770000000000
C           -1.80140000000000       -2.30350000000000        2.11010000000000
O           -3.56590000000000        0.72320000000000       -0.14350000000000
O           -2.32400000000000       -0.25330000000000       -2.23840000000000
H           -0.00880000000000        4.45920000000000       -2.29750000000000
H           -2.92680000000000        1.83220000000000       -3.85090000000000
H            3.10500000000000        2.99670000000000        0.89420000000000
H            2.58670000000000       -0.65940000000000        2.96940000000000
H           -1.37300000000000       -3.00160000000000        2.81180000000000
H           -4.78620000000000       -1.43920000000000        0.90510000000000
C           -4.94340000000000        0.61550000000000       -0.41200000000000
C           -2.88450000000000       -0.62810000000000       -3.47420000000000
S           -2.05650000000000        4.54690000000000       -4.41620000000000
F           -3.14320000000000        5.04570000000000       -3.37930000000000
F           -0.98900000000000        5.52060000000000       -3.77730000000000
F           -2.47920000000000        5.62860000000000       -5.49060000000000
F           -3.09370000000000        3.50210000000000       -4.98660000000000
F           -0.93780000000000        3.93920000000000       -5.35630000000000
S           -4.21970000000000       -3.64750000000000        2.72080000000000
F           -4.67680000000000       -2.51470000000000        3.72020000000000
F           -5.38870000000000       -3.23970000000000        1.74540000000000
F           -5.10510000000000       -4.74700000000000        3.43030000000000
F           -3.67910000000000       -4.67650000000000        1.65010000000000
F           -2.98960000000000       -3.96500000000000        3.65110000000000
S            4.51120000000000        1.50780000000000        3.04430000000000
F            4.73370000000000        2.82180000000000        2.19460000000000
F            5.35050000000000        0.68530000000000        1.98470000000000
F            5.78000000000000        1.80900000000000        3.93980000000000
F            3.53860000000000        2.29400000000000        4.01450000000000
F            4.20660000000000        0.17630000000000        3.83550000000000
H           -3.04030000000000       -1.70850000000000       -3.45510000000000
H           -2.19190000000000       -0.37970000000000       -4.28100000000000
H           -3.84420000000000       -0.12800000000000       -3.61270000000000
H           -5.24060000000000        1.50230000000000       -0.97510000000000
H           -5.50670000000000        0.58190000000000        0.52110000000000
H           -5.12930000000000       -0.27480000000000       -1.01490000000000
C           -1.83740000000000        1.94910000000000        3.59130000000000
C           -1.97290000000000        0.68990000000000        4.16720000000000
C           -0.84900000000000        0.12940000000000        4.85550000000000
C            0.41350000000000        0.77400000000000        4.74490000000000
C            0.47570000000000        2.04520000000000        4.14580000000000
C           -0.62940000000000        2.61300000000000        3.57620000000000
C           -0.89390000000000       -1.14560000000000        5.50400000000000
C            0.32530000000000       -1.82160000000000        5.62430000000000
C            1.54280000000000       -1.12780000000000        5.38920000000000
N            1.58190000000000        0.17350000000000        5.05620000000000
C           -2.04740000000000       -1.82180000000000        6.01550000000000
C           -1.95000000000000       -3.22530000000000        6.23360000000000
N           -0.78710000000000       -3.90910000000000        6.17360000000000
C            0.33680000000000       -3.20030000000000        5.96600000000000
C            1.57810000000000       -3.84450000000000        6.04920000000000
C            2.75870000000000       -3.17450000000000        5.82610000000000
C            2.74610000000000       -1.83710000000000        5.50510000000000
C           -3.22420000000000       -1.13570000000000        6.46610000000000
C           -4.32660000000000       -1.89890000000000        6.84350000000000
C           -4.27460000000000       -3.27630000000000        6.90930000000000
C           -3.10710000000000       -3.92650000000000        6.62040000000000
O           -3.18790000000000        0.24530000000000        6.59740000000000
O           -3.10540000000000       -0.08910000000000        3.99500000000000
H            1.43650000000000        2.53180000000000        4.06090000000000
H           -2.66770000000000        2.41070000000000        3.08500000000000
H            3.67640000000000       -1.32210000000000        5.30700000000000
H            1.60400000000000       -4.89560000000000        6.29350000000000
H           -3.06390000000000       -5.00210000000000        6.70550000000000
H           -5.24980000000000       -1.41770000000000        7.11740000000000
C           -4.21300000000000        0.81090000000000        7.37890000000000
C           -4.26980000000000        0.59640000000000        3.60790000000000
S           -0.52790000000000        4.26820000000000        2.66150000000000
F           -2.04860000000000        4.49590000000000        3.01150000000000
F           -0.11230000000000        4.93720000000000        4.02910000000000
F           -0.43600000000000        5.62530000000000        1.86470000000000
F           -0.96270000000000        3.46060000000000        1.37950000000000
F            0.97900000000000        3.92190000000000        2.37250000000000
S           -5.80570000000000       -4.24370000000000        7.47430000000000
F           -6.51630000000000       -2.86350000000000        7.76450000000000
F           -6.34510000000000       -4.19360000000000        5.98610000000000
F           -7.07060000000000       -5.05640000000000        7.96930000000000
F           -5.00980000000000       -5.57140000000000        7.15770000000000
F           -5.17430000000000       -4.21590000000000        8.92630000000000
S            4.40270000000000       -4.11140000000000        5.94940000000000
F            5.14080000000000       -2.75030000000000        5.62810000000000
F            4.26340000000000       -4.39880000000000        4.39830000000000
F            5.77520000000000       -4.89400000000000        6.04710000000000
F            4.41400000000000       -3.75190000000000        7.49190000000000
F            3.57510000000000       -5.42080000000000        6.26490000000000
H           -5.09620000000000       -0.11630000000000        3.66320000000000
H           -4.16360000000000        0.95810000000000        2.58510000000000
H           -4.45050000000000        1.42230000000000        4.29730000000000
H           -3.97640000000000        1.86650000000000        7.52500000000000
H           -4.24920000000000        0.31380000000000        8.35030000000000
H           -5.16740000000000        0.72440000000000        6.85780000000000
110
 energy: -292.088330678031 gnorm: 0.229599738158 xtb: 6.7.1 (edcfbbe)
C           -2.17349981033095        2.01602419986516       -3.10651060834291
C           -1.85494256551503        1.05166566226676       -2.16181072765284
C           -0.94087005815464        1.38890292423610       -1.12449427540181
C           -0.15193292334872        2.57051803465969       -1.26977238699771
C           -0.52734672705869        3.52002242824100       -2.24416826373607
C           -1.54064157254724        3.25112129601150       -3.11623597928194
C           -0.67469360470098        0.55924040739387        0.00543529104256
C            0.56989040757888        0.73956821506584        0.62264646402113
C            1.36314676825004        1.88116307338986        0.30997275302023
N            0.96397674796406        2.80749109422328       -0.56400143317086
C           -1.55460828054496       -0.39137145594388        0.61114248589857
C           -0.97990457218642       -1.31924512035409        1.53175721886987
N            0.28998864321350       -1.25678841933572        1.95987982806952
C            1.01470024725239       -0.19763780373739        1.59426753172612
C            2.25259059711676        0.02637628321602        2.22143684645366
C            2.97272733693392        1.17124215094073        1.97680305893742
C            2.55579958501886        2.08479296322558        1.03425543231312
C           -2.97150952813518       -0.37354786962776        0.46492950428896
C           -3.72187600740035       -1.38850440050578        1.04418371572425
C           -3.13415063483667       -2.34051626768261        1.86348785933592
C           -1.79665756246776       -2.30914040892177        2.11403040843306
O           -3.55645359322186        0.70615187943218       -0.14079282886073
O           -2.31416345722615       -0.23680541757650       -2.23715156255979
H            0.00624600710381        4.45227123448687       -2.29141075600195
H           -2.92388462715378        1.81937110909348       -3.84940194012887
H            3.10116775743059        2.99899992284803        0.88048712126118
H            2.58521157189469       -0.67627419134947        2.96075013534406
H           -1.35654847535876       -3.00035044438631        2.80854207398602
H           -4.78592675469444       -1.42933938139420        0.90423985327455
C           -4.93882363317253        0.61373715707856       -0.41125823894364
C           -2.88343857945650       -0.62341132469412       -3.47020776855697
S           -2.04898117802039        4.53241794467418       -4.39799791380246
F           -3.16438884027191        5.06251422545622       -3.37464618136589
F           -0.98159147365935        5.55419367291885       -3.78556307696360
F           -2.47490305625508        5.61592043880034       -5.47784429553984
F           -3.11405165650628        3.50494316439656       -5.01124885474728
F           -0.92708241599801        3.94075502243231       -5.38025900297901
S           -4.20499106285147       -3.63361454472233        2.71069189702908
F           -4.69558378789059       -2.51027561783434        3.74101863661902
F           -5.41923410901055       -3.25185858398916        1.74087558386444
F           -5.09605618824941       -4.73525991284318        3.41962048127010
F           -3.67989528368914       -4.70383611563333        1.64049522065456
F           -2.98759768296655       -3.98592229981905        3.67982922936405
S            4.49729462283636        1.50709851936513        3.02825542130470
F            4.76142343240103        2.84711919876442        2.19366821532263
F            5.37619528728191        0.67803375105845        1.97483698027302
F            5.77189716749296        1.80791675829229        3.92499751746169
F            3.54964655055263        2.31410876773928        4.03796208161743
F            4.23173565697711        0.16660087730884        3.85544345681495
H           -3.03462988853895       -1.70338250134409       -3.43978122738095
H           -2.20077592690469       -0.38049534767321       -4.28836425525325
H           -3.84721500061218       -0.13180049189602       -3.62121034962304
H           -5.22367929743576        1.50443349789678       -0.97280662559308
H           -5.51455483539840        0.58148770544324        0.51704492147776
H           -5.14078906603231       -0.27403105558478       -1.01456371824925
C           -1.84381842209367        1.94164011463182        3.58633902077113
C           -1.97355021224950        0.68783402620784        4.16322591423558
C           -0.86023295339067        0.12342973815045        4.84355947746384
C            0.40831396369626        0.76683476892727        4.73557779015696
C            0.47989486536245        2.04885624702160        4.14682316095729
C           -0.62912956968747        2.60760406384882        3.58835835811591
C           -0.90148231434783       -1.14391297084284        5.50103064661271
C            0.31887968319354       -1.81894170892393        5.62249903886887
C            1.53742955508493       -1.12479408371731        5.38507411155706
N            1.56549518696539        0.17026862280138        5.06049468450979
C           -2.05042194745777       -1.81029387215730        6.02379319655925
C           -1.94969022923981       -3.21814879557616        6.23874914978910
N           -0.79240274439940       -3.89400430957883        6.17190669080096
C            0.33022194811942       -3.19909093210573        5.96803659758928
C            1.57418828030870       -3.85298622705780        6.05155914215794
C            2.75016122040687       -3.17246834346876        5.82737848020792
C            2.74934529218291       -1.83381649930204        5.50684882986942
C           -3.22276792589017       -1.13666401902874        6.46626616477003
C           -4.32304092859413       -1.89061798155115        6.84610665321502
C           -4.26652555488293       -3.27556075505296        6.89774898174782
C           -3.10548252882192       -3.93366010567237        6.62053306668634
O           -3.18570417853743        0.22650202710374        6.59744550072055
O           -3.09468442993188       -0.07819107314874        4.00455414554541
H            1.43583181885744        2.53288941990509        4.07381865386838
H           -2.67161926767719        2.40441531908645        3.08101415931970
H            3.67031059019556       -1.31385042532594        5.31389515147698
H            1.58919383789142       -4.89992788816832        6.29466800874133
H           -3.04701176415106       -5.00335323978123        6.70949369056215
H           -5.24311687329241       -1.40784277593654        7.11723739113232
C           -4.21118359527475        0.80644580336522        7.37566528979410
C           -4.26686494072919        0.59813545680238        3.60953508637607
S           -0.52728619013505        4.24518252448247        2.67796853918753
F           -2.06872765976515        4.51774039948631        3.01348843134142
F           -0.10489082894503        4.96118221850704        4.04431556347251
F           -0.43908733416477        5.60811842532465        1.87752404183083
F           -0.97461564315560        3.46161105321911        1.35570367213084
F            1.00345362273887        3.93371836545156        2.35691878305321
S           -5.78451593054514       -4.23365967420280        7.46247473949288
F           -6.54330072136132       -2.85776576716146        7.77803995961709
F           -6.36323586284466       -4.19526182181029        5.96858594830517
F           -7.05560751671254       -5.04647521465716        7.96172271931121
F           -5.01941403960355       -5.60492303516676        7.15779335362971
F           -5.17839867968436       -4.22320762016358        8.94955337413863
S            4.38423929254359       -4.09907149282979        5.94691154516590
F            5.17378206164819       -2.74396540238388        5.62631123039412
F            4.27580476865572       -4.41037714211077        4.37705902856400
F            5.76119265366971       -4.88485011578166        6.04564287283290
F            4.42721811449971       -3.75486069661202        7.51364604790170
F            3.58940021727263       -5.45171179173686        6.27000246680740
H           -5.08406018304875       -0.12156841591701        3.66712092791172
H           -4.17141148177852        0.96283956826420        2.58523769338606
H           -4.45869916205939        1.42909541995823        4.29157591496033
H           -3.96399670494476        1.85984632824406        7.51493188545556
H           -4.25947209858282        0.31808651675204        8.35218360819130
H           -5.17327122480974        0.72925316601662        6.86436646479889
110
 energy: -292.155006473693 gnorm: 0.073386657460 xtb: 6.7.1 (edcfbbe)
C           -2.17527908158438        2.00926007272818       -3.11064985363131
C           -1.85403536009783        1.04929442578310       -2.16437704206906
C           -0.94423129688733        1.37824881857083       -1.13114600926156
C           -0.15181135878119        2.56464207018151       -1.27134164558470
C           -0.52125964656170        3.52800616566124       -2.24638624452120
C           -1.53649390197364        3.24579089495656       -3.10070520915147
C           -0.67817017174441        0.56180472286781        0.00521716605482
C            0.56681917999692        0.74146125289125        0.62567760161484
C            1.36335142863691        1.88151304494704        0.30513825819104
N            0.95422509890658        2.79072421626043       -0.56645425906066
C           -1.56457696673044       -0.38063497420827        0.61281078480206
C           -0.98343859544452       -1.31257334114529        1.53386701164156
N            0.28122954179876       -1.24741693382166        1.95259105253019
C            1.00903034857123       -0.19493938162354        1.60207142426349
C            2.25749711358583        0.02022787509339        2.23045265600279
C            2.96289110723960        1.16814218323264        1.96744287609179
C            2.56354039413872        2.09144999281914        1.03142348459254
C           -2.97473687556064       -0.37207266419944        0.46789661297322
C           -3.72767619999344       -1.38365796181878        1.04591532070501
C           -3.12163875841238       -2.33569873381612        1.85769944138979
C           -1.79292829448909       -2.31716909572863        2.12143633975448
O           -3.54897123298669        0.68434451271923       -0.13844730336836
O           -2.30426130386017       -0.21836290049085       -2.24001857788137
H            0.02134169818811        4.45056099218388       -2.28564050158436
H           -2.92227271149739        1.81492732886296       -3.85363609030521
H            3.10109217377999        3.00398884727742        0.86847354465799
H            2.58733691079272       -0.69300284021227        2.95561863162742
H           -1.33982812930220       -3.00254846565151        2.80736227563299
H           -4.78903598308795       -1.42775545088332        0.90733321457434
C           -4.93712207491764        0.61344038501125       -0.41201737212037
C           -2.88433281464624       -0.62179447289346       -3.46831949522245
S           -2.03549128653386        4.50507696318126       -4.36512415838626
F           -3.19552681730339        5.08508219431171       -3.36383817066108
F           -0.96815477368185        5.59972509464904       -3.79353612204017
F           -2.46778207834480        5.59484031976456       -5.45797906052524
F           -3.14462895336468        3.50370579477325       -5.04414934439169
F           -0.90880205232472        3.93823879926554       -5.41277142101165
S           -4.17850858812794       -3.60671665221907        2.69038972504632
F           -4.71892595141207       -2.49790552817338        3.77240383123618
F           -5.46378335424049       -3.26441588338258        1.73009856627984
F           -5.07993515036521       -4.71426829631997        3.40405261733639
F           -3.67849320715966       -4.74263307496729        1.62246298718882
F           -2.97873210347035       -4.01334581020291        3.71883188714412
S            4.46668783240739        1.50305895179217        2.99940043342875
F            4.79478974184175        2.88339792434982        2.18937405789351
F            5.41085803116105        0.66460896328116        1.95847156407765
F            5.75265248491454        1.80441826979899        3.90432927031895
F            3.55554745782993        2.34081112562272        4.06967255168164
F            4.26018145704277        0.14829476526225        3.88326267700092
H           -3.02902681801333       -1.70060109957513       -3.42286465136144
H           -2.20960233622976       -0.38255193877260       -4.29518715838229
H           -3.85087426178004       -0.13647564648111       -3.62751527315800
H           -5.20566315869567        1.50877883097534       -0.97098485887273
H           -5.52142269776265        0.58305889872367        0.51281447363830
H           -5.15276195182017       -0.27242974538654       -1.01494691240035
C           -1.85163734501043        1.93792480644274        3.57851795088606
C           -1.97745727623443        0.68624997298097        4.15680937654140
C           -0.87067194083108        0.11788366334947        4.83137403401524
C            0.40512483780871        0.76067370113798        4.72927915871682
C            0.48709273389544        2.05418234737461        4.14623266566472
C           -0.62801073781749        2.59583448203737        3.60178381256101
C           -0.90656952894917       -1.14404171563589        5.49794965492555
C            0.31614038341418       -1.81817956639706        5.62048177889441
C            1.53506254038952       -1.12193835708540        5.38145279260260
N            1.54841904275397        0.16511834201938        5.06062575647578
C           -2.05416637406727       -1.79941671407851        6.03051822644768
C           -1.94944295113324       -3.21374038773523        6.24249819240417
N           -0.79750305708779       -3.87689661462854        6.17246356149546
C            0.32561652224553       -3.20035972775220        5.97043058655602
C            1.57312568487548       -3.86490489770063        6.05414616341358
C            2.73556877386360       -3.16708206350652        5.82766703137083
C            2.75643455150453       -1.83137201164216        5.50916021131820
C           -3.22328865330236       -1.13498011402296        6.46994612015170
C           -4.32425870615912       -1.88435611352840        6.85080216486231
C           -4.25367869145666       -3.27284970876440        6.88604940952632
C           -3.10524226341411       -3.94447157703606        6.62474487201633
O           -3.18652770435619        0.20580535564286        6.59997000414659
O           -3.08430088199503       -0.06270037799921        4.01394484572072
H            1.44012617120579        2.53552562346956        4.08710652432599
H           -2.67309825872173        2.40691630300251        3.07465550889961
H            3.66999875975505       -1.30613811911390        5.32118708033597
H            1.57810529177085       -4.90841665415788        6.29644290437458
H           -3.03205491833239       -5.00904132398621        6.71267377839764
H           -5.24357815299143       -1.40539479759822        7.11985401200143
C           -4.21098277831590        0.80551111282891        7.37375247162341
C           -4.26801522586313        0.59959843197519        3.61023420112762
S           -0.52749149276510        4.20552745505216        2.70704176927577
F           -2.10277000893811        4.54782608008809        3.01544468797120
F           -0.09379238864513        4.99692470882224        4.06886440536586
F           -0.44389929559390        5.58123091525426        1.89540586141204
F           -0.99208335127519        3.45835434029555        1.31935987507804
F            1.04066458960246        3.94850018819709        2.33494509083144
S           -5.74764196160207       -4.21446645699907        7.44182734049085
F           -6.58126858429388       -2.84418533056794        7.79564985904315
F           -6.38934783290800       -4.19788214438954        5.94090708669448
F           -7.03220963598268       -5.03031617196683        7.95198125704075
F           -5.02926166257782       -5.65197874686484        7.15751196010976
F           -5.17881315360169       -4.22990039180886        8.98299293634271
S            4.34907046481373       -4.07614931478822        5.94321413359771
F            5.21760315908961       -2.73142852071880        5.62277699057725
F            4.28815092491073       -4.42498752335473        4.34446289316906
F            5.73706969572588       -4.87085842655285        6.04365430962746
F            4.44213844703025       -3.75622201443881        7.54742087274506
F            3.60303420378713       -5.49484579567160        6.27770774816759
H           -5.07313059748761       -0.12943865071434        3.67149452547001
H           -4.17907380817623        0.96667639954002        2.58533676231364
H           -4.46773900091230        1.43522696233639        4.28579005760506
H           -3.94991278672476        1.85523008520835        7.50416553265328
H           -4.26894207233379        0.32352314012859        8.35385245538470
H           -5.17813940022840        0.73524210819581        6.86928113281468
110
 energy: -292.165890938279 gnorm: 0.023755590184 xtb: 6.7.1 (edcfbbe)
C           -2.17186770709226        2.01137401454248       -3.11698786497538
C           -1.85203839747492        1.04851907896975       -2.17062957120661
C           -0.94462092744415        1.37594862946680       -1.13257823050661
C           -0.14763790120631        2.55916212524292       -1.27617713932263
C           -0.51169221400951        3.52989009326274       -2.24769372712738
C           -1.53115324329887        3.24575271875883       -3.09477952842696
C           -0.68127764270917        0.56542052793253        0.01048857914501
C            0.56362844925794        0.74628750022924        0.63461451298874
C            1.36611181867193        1.87901476050779        0.30262663903280
N            0.95842427165493        2.77811646682222       -0.57651053106316
C           -1.56940632605092       -0.37541748465047        0.62213541082184
C           -0.98612105759657       -1.30499693307380        1.54349731807018
N            0.27694989174882       -1.23888445175619        1.95980185750449
C            1.00633291103952       -0.18724388481669        1.61301570922560
C            2.26281006508040        0.01919926433256        2.23331996465155
C            2.96369722055545        1.16794743774286        1.95917874943592
C            2.57032450758018        2.09235651477953        1.02340204157072
C           -2.98059148456627       -0.37545811008195        0.47219524022336
C           -3.73185356564811       -1.38723149560348        1.05615672223708
C           -3.11390284378706       -2.33596865063152        1.86074272802619
C           -1.78651010672575       -2.32114810655849        2.12768320717742
O           -3.54944357376432        0.66922425948536       -0.14599266560031
O           -2.30056728345260       -0.21363821402691       -2.24522497942646
H            0.04508319248058        4.44634194331440       -2.28295238686888
H           -2.91352474834035        1.81670506397123       -3.86608149925591
H            3.10787225825715        3.00471010016244        0.84675743013790
H            2.60355980931963       -0.71225437738739        2.93923472731968
H           -1.31817965053859       -3.01095386053476        2.80163357976292
H           -4.79396319678057       -1.43379946038839        0.92118490033977
C           -4.94001370311129        0.61653285608627       -0.41811317629896
C           -2.89035332229033       -0.62642127762177       -3.46728409099847
S           -2.03219795751423        4.49979171008257       -4.35369177269989
F           -3.21201839102568        5.09956668049388       -3.36167606588722
F           -0.96702626217142        5.62969456372631       -3.80304438117486
F           -2.46982692358791        5.59017107683216       -5.45405788203273
F           -3.16021083875856        3.50798552997617       -5.06082798944814
F           -0.90285965147997        3.94311088523462       -5.42869880508188
S           -4.17097415342352       -3.60342534692921        2.68338504955991
F           -4.73331395520698       -2.50024272793404        3.78996045677147
F           -5.48600154770917       -3.27732343037366        1.72567788016941
F           -5.07866730351177       -4.71265772514785        3.39834859468898
F           -3.67885624077198       -4.76737513622990        1.61774701500933
F           -2.98178727486477       -4.03561450067706        3.74312284158799
S            4.47250142921092        1.50866961031848        2.97596578586227
F            4.82561045992763        2.90619504532894        2.17619220865604
F            5.43893738590938        0.66457227059071        1.93755686821140
F            5.76768801203563        1.81076707718412        3.87937535493500
F            3.58236224771671        2.36070195032516        4.07782101164875
F            4.29659441647310        0.14845149318041        3.88937513976072
H           -3.02377102097120       -1.70474037518235       -3.39691568694849