116
 energy: -22.928061455056 gnorm: 0.329736929581 xtb: 6.6.1 (8d0f1dd)
C           -3.31122850772930        0.79849766164622       -0.92477639677520
C           -2.44380812530352       -0.12270372891954       -0.27661132624697
C           -1.41337090092821        0.39579727573559        0.56335275196199
C           -0.89266158675590        1.65801491088749        0.27377586709581
C           -1.72665675402493        2.51431363229076       -0.49448366572522
C           -2.95444148494349        2.13954154133227       -1.01494489940871
C           -0.74098268209890       -0.43411532818871        1.49825021926784
C            0.56872586496315        0.03782116815119        1.86248088067890
C            1.03782416582094        1.29402317993033        1.50887470833621
N            0.31238977034758        2.07067427098208        0.65193736800696
C           -1.29695700510141       -1.39996043042223        2.41574187746061
C           -0.38243517664656       -2.18060797534842        3.13232615520648
N            0.91308504082021       -1.90366887689689        3.30325166013478
C            1.37712470144904       -0.74872102533751        2.81811050966982
C            2.52149331701875       -0.17739833758153        3.39379298866852
C            2.95849061756259        1.02681208890480        2.95105897606587
C            2.24288949469137        1.78498308775960        2.03503020483770
C           -2.74860936222260       -1.74497937691422        2.38401158947411
C           -3.09416315450955       -2.91614440870436        3.00571134491758
C           -2.16786021984049       -3.77788778654213        3.63251872101904
C           -0.85708937311598       -3.40495313382985        3.68547234358092
O           -3.71994433332149       -0.94984598373544        1.67726658385724
O           -2.55702603277562       -1.47241711578389       -0.57241635275616
C           -3.84297843593025        3.13357444054366       -1.60938954875544
C           -2.68769581069131       -5.03867041417370        4.30484659386931
H           -1.39666850744143        3.51251503834900       -0.76806311868865
H           -4.27662633836220        0.55105838579656       -1.33106614114542
H            2.66329581305412        2.73912661909249        1.72562431984580
H            3.05775395548473       -0.69369546277216        4.16536137542516
H           -0.24710966264510       -4.12034095424229        4.22946223699121
H           -4.11477991332403       -3.04712728052358        3.03244694615357
O           -4.21824883374556        4.03433712717988       -0.87713382485991
O           -4.44510595673734        2.90643496899600       -2.81853501752979
C           -5.44216520282800        3.83300025693726       -3.02488532025093
C            4.23586651889298        1.50004220933226        3.59165660008449
O            5.05927614697201        0.66079890002952        3.91714215179376
O            4.47001334453535        2.86385149488593        3.72605651435371
C            5.79457498613219        3.08584475587818        4.15829123132174
O           -3.82227255313510       -5.27347675879771        4.16636005494405
O           -1.85023202017753       -5.79767454267276        5.06656077253571
C           -2.55119635829503       -6.86252441382958        5.62930343183426
C           -5.07197156564436       -1.42399175670916        1.58830531863830
C           -1.33089900128490       -2.23622472573986       -0.99264499351172
H           -2.54510546830388       -7.76426885143998        4.99136022291012
H           -3.57194749219491       -6.44405511486021        5.74196173723541
H           -2.09133598235598       -7.02043774843818        6.64022264233588
H            5.72707967266424        3.46798026205549        5.10135971236643
H            6.34060091246885        3.78468702308830        3.50069950143490
H            6.17933064298187        2.03010500085905        4.19342358084693
H           -0.91862729772622       -2.57650129080332       -0.01361370304871
H           -0.49769766914251       -1.60651221708571       -1.34094446550576
H           -1.52632419730509       -2.94569707152159       -1.75361447637286
H           -5.11788846557077       -2.41810833635233        1.17520213188926
H           -5.67929807973498       -0.69619639428435        1.04301666067831
H           -5.57598832326623       -1.42383358739762        2.57928294206544
H           -6.13050215934830        3.76035386975488       -2.23272855695873
H           -5.86615610071888        3.45938329385866       -4.02668959924245
H           -5.13479557532099        4.87790991548477       -2.98314551356402
C           -1.38192942069774        3.73616555005018        2.91232598411686
C           -1.84821468128685        2.59982427735607        3.49755545445181
C           -1.05946531454833        2.05730632010638        4.60922730982276
C            0.19893954712228        2.69376791964407        4.86302140881997
C            0.50425395911860        3.94630308659851        4.28768785650746
C           -0.26031777722226        4.46998310053134        3.25072669343212
C           -1.20488993561782        0.74454293276906        5.14851520323437
C           -0.06287609782692        0.02744069315890        5.60930570802864
C            1.19208754369866        0.71421540266195        5.78882868583885
N            1.19428660993148        2.06344359410476        5.62744624321596
C           -2.41361422770794        0.07928500213936        5.25249410304426
C           -2.45851584031083       -1.32662100968547        5.60237876023992
N           -1.29466212405906       -1.98318595734370        5.89916817085159
C           -0.14475655767527       -1.32117560077092        5.98824682881008
C            0.97209270935794       -1.98958449505532        6.53157704134458
C            2.21982707914082       -1.36973967291181        6.68703967237737
C            2.30561929262884       -0.09745313075593        6.26436900324455
C           -3.73018485967715        0.71367583494582        5.25810242262992
C           -4.89964478833448       -0.06184623426677        5.21204641615509
C           -4.82617965800088       -1.39228978090841        5.46901303780036
C           -3.67144193418464       -1.98914944386360        5.67265433266067
O           -3.75568638935321        2.07705011038914        5.52067969627343
O           -2.94192434743730        1.91263938797883        3.01658762327703
C            0.21273512614467        5.50086066357994        2.34765104514621
C           -6.06660304520411       -2.17604633098929        5.80641622556876
H            1.41756699010566        4.38133362238595        4.66974005703471
H           -1.82880610647429        4.11982501512100        2.06992133318584
H            3.26888037378556        0.32655662585251        6.31721410015598
H            0.87146188387207       -3.08471526305024        6.57830423410869
H           -3.67716811065157       -3.05999292755990        5.83019634570050
H           -5.77379677507622        0.43595144608221        4.71017130754348
O            1.34459852619901        5.82615848916894        2.44941456579099
O           -0.74718748219123        6.07961784856304        1.59848183464284
C           -0.21473095568964        7.24015934882472        1.05753806029483
C            3.53228080814219       -2.00967610361154        7.02506769044485
O            3.64093082622715       -3.14437803815732        7.50071391725347
O            4.56565258381079       -1.22937033368332        6.69086985080897
C            5.72579357310716       -1.80692399125161        7.22246151275881
O           -7.04801223588612       -1.95726935745904        5.14194115322235
O           -6.01514389321278       -2.93743591896022        6.94765316328794
C           -7.21292732384718       -3.62681918543340        7.15115816329978
C           -4.95459780685163        2.65960679932188        5.86868674392943
C           -3.68284113682406        2.59129188358641        2.05479246020704
H           -7.43119628931628       -4.22607794725959        6.20622607140901
H           -8.06548455146707       -2.91765848248592        7.29781126410398
H           -7.07314693247270       -4.33087306029711        7.91223421050944
H            6.57332189837178       -1.29353136199234        6.78341268688262
H            5.74663761932316       -2.84282155125561        6.88089468184451
H            5.69426191474290       -1.72781984964892        8.29460302186842
H           -4.10481209541493        3.44288266176275        2.60483747673152
H           -4.49244774344916        1.87419893016926        1.82433103764650
H           -3.18901540870812        2.85154642679373        1.06781919454921
H           -5.55414326821421        2.76698137191684        4.93950725322359
H           -4.78658370641210        3.62090640967288        6.25983200635257
H           -5.43485580473958        1.97242995129449        6.65265772412460
H            0.89164886030839        7.38838561720231        1.13776105146914
H           -0.62894889903848        8.04195665205089        1.64837664327952
H           -0.59282546386754        7.45699159724320        0.03719083132488
116
 energy: -22.808834221506 gnorm: 0.445074855803 xtb: 6.6.1 (8d0f1dd)
C           -2.83292437833196        0.78647818426503       -1.65312502887910
C           -2.19277721983147       -0.18232757077593       -0.85698794696413
C           -1.26030515897773        0.51647639051364        0.11736457100933
C           -0.87912976109490        1.82189197471339       -0.14501095509299
C           -1.34147451128149        2.59905502046430       -1.23372287177449
C           -2.40156001698903        2.08480917374033       -1.93901909394541
C           -0.73978016763134       -0.16131682826278        1.29476529646243
C            0.51340660947995        0.29045902780147        1.76283003368976
C            0.99578578833190        1.50859829504399        1.26355344406019
N            0.29970911834344        2.31679767922838        0.42815793374422
C           -1.23488939097212       -1.30202477791270        2.04777565343611
C           -0.44643576898359       -2.01479547806919        2.97094534339231
N            0.68423774629622       -1.49163601306544        3.46525211324193
C            1.14268691862623       -0.47791031187317        2.73953107126378
C            2.51082464523179       -0.15199515073943        2.99068110046860
C            3.02446618941363        0.99497785290766        2.39236779065496
C            2.26766149945027        1.95340955359482        1.67993469266665
C           -2.52296416600872       -1.82216468477326        1.74428508268430
C           -2.95004038153520       -3.05892523438874        2.22620213099965
C           -2.18628983376771       -3.78815229221513        3.19039463018763
C           -0.97511712412946       -3.12392497517049        3.58692809980528
O           -3.50249535406596       -1.03662654163160        1.20192466346204
O           -2.38773737425528       -1.58514513456750       -1.01548473695059
C           -3.33085916507257        3.04541867884810       -2.62431928249565
C           -2.87107713716911       -4.71236841504800        4.06628390266372
H           -0.94070794550262        3.54748566851711       -1.44326765613552
H           -3.80147312135023        0.38541051786997       -2.06301196095471
H            2.68720484505026        2.93989901367904        1.48878075052150
H            3.09653844231244       -0.83113695139256        3.58585227290170
H           -0.37598610933498       -3.56672016498902        4.36551248295408
H           -3.84900880652253       -3.46692041609849        1.94269543062463
O           -2.73329028114492        4.07209090981057       -3.05338984019110
O           -4.68669847603490        2.72142030373662       -2.82074075174836
C           -5.21597968760684        3.84170290826015       -3.39923721081328
C            4.31994688279458        1.45365242307562        3.00335132752272
O            5.24772132951399        0.70209008514604        3.25468630011797
O            4.46049160897527        2.86008188782068        3.13749249008305
C            5.41607777061800        3.33613058588847        4.02151785635285
O           -3.97606916594815       -5.18844951673929        3.65396120488139
O           -2.36662181851469       -5.08238067050138        5.31796297966361
C           -3.35033193604691       -5.74461179142637        6.12530022192406
C           -4.74211097889832       -1.61432085667641        0.69682179510184
C           -1.13203363264405       -2.26001709067093       -1.26757113755870
H           -3.59251933077230       -5.24285452660247        6.99692060471420
H           -2.94375452146329       -6.68264802981712        6.37227311984454
H           -4.12543988224606       -5.97710425777603        5.48405513123114
H            5.23955124851749        2.77707542665951        4.91803132740709
H            5.07722033438723        4.42996400855860        4.10356934022000
H            6.37123122688308        3.26573803708467        3.66276767579150
H           -0.80409648161146       -2.49926708556015       -0.27808341816257
H           -0.47695497927968       -1.74602350628716       -1.93126119237855
H           -1.38747818053145       -3.19930786397475       -1.61742642218776
H           -4.60025822180044       -2.07355961089417       -0.26823188892286
H           -5.45696968860058       -0.81558004211410        0.47320192349902
H           -5.26422389062565       -2.43120570741571        1.16439380574625
H           -4.73636754982601        4.09386269726612       -4.30506078264636
H           -5.25168729423392        4.68553926580379       -2.66442520724913
H           -6.17770503892267        3.48668242400400       -3.69547167826521
C           -2.09765850046773        3.72123074437164        3.68940698057676
C           -2.11712858910016        2.44825810845773        4.24427798161121
C           -1.00986131916550        1.88500024451590        4.99072727959252
C            0.27003761910914        2.50236825828810        4.92528058371289
C            0.27247884180821        3.67172244782301        4.24157663455433
C           -0.84709357478832        4.36759834162596        3.80775395734016
C           -1.12526951111724        0.62902894190996        5.64417118054043
C            0.11016054690734       -0.02253071017291        5.78213017693288
C            1.28632053633872        0.66877231091684        5.63673733816762
N            1.51529082360212        1.90368443868885        5.15221065951553
C           -2.35227895643456        0.02652256645003        6.24046538347383
C           -2.32112397428659       -1.30366102895663        6.63456525464965
N           -1.15672347320899       -1.95699755137525        6.78292773827981
C            0.02551994925447       -1.31422505077127        6.36196046146969
C            1.17806213818630       -2.03606979091765        6.48400082179378
C            2.39033827668734       -1.41624710142268        6.38380360476142
C            2.48609903168863       -0.06667385122866        5.97734471952640
C           -3.50129300753076        0.82037139547642        6.44968868478562
C           -4.65281457592507        0.07918875191443        6.73800941319630
C           -4.72804624710211       -1.26877824743045        6.82557811993042
C           -3.56467681030170       -1.96589274871679        6.86156774370640
O           -3.37629177578379        2.23992698789470        6.48563098260464
O           -3.22886439932284        1.62517688281451        3.91298123138667
C           -0.51572077915580        5.57750052288642        2.99152217210652
C           -6.09668588792623       -1.97774323317427        6.94231801574350
H            1.12856971244403        4.39178425660560        4.09216120026037
H           -2.87506187778464        4.10308561363074        3.07546969105594
H            3.46412947302105        0.32399893594976        5.94149868775571
H            0.97244316070303       -3.06325864847929        6.83314004940339
H           -3.70461929549744       -3.06196012959049        6.66309141759382
H           -5.62329313340818        0.48083459801658        6.93298916317745
O            0.26020964671731        6.42048736845425        3.55452857301105
O           -1.06905770309562        5.52605488824317        1.71461534023735
C           -0.53521303764387        6.64294863108707        1.01461353718671
C            3.60455501152894       -2.18949763011485        6.67795633602152
O            3.58166525421712       -3.33920944098067        6.93708469808411
O            4.73712140110842       -1.43263945279824        6.70265626724430
C            5.69940771569485       -2.33032793698793        7.16607331163653
O           -7.09426508368621       -1.31134855340739        7.22372338568792
O           -6.26835912146783       -3.35008543922978        6.64728625852115
C           -7.61291894454868       -3.82791362613746        6.79410639000889
C           -4.61329615476826        3.04812970773489        6.61124558856390
C           -3.58800265115435        1.33659728744732        2.66560866366928
H           -8.19060012584902       -3.24378117646055        5.96625900720226
H           -8.10699896858229       -3.69395172989004        7.72886825185297
H           -7.37311660699541       -4.91783985311021        6.58527084514848
H            6.62052549522417       -1.70711821031306        6.80352741838826
H            5.55796696299210       -3.22697496698771        6.56861213521233
H            5.48941079221412       -2.49750149211429        8.16894880657795
H           -4.16108950241627        2.08914068187374        2.08740687126078
H           -4.17218711245543        0.31754697648109        2.75744530017500
H           -2.62730772600697        1.23670671204085        2.15568924850397
H           -4.71415332030028        3.64898610881443        5.67411475751409
H           -4.45564028082076        3.85796623084250        7.35393290903669
H           -5.40211759172807        2.42879700743007        6.85614532372672
H           -1.12879425463347        6.96575642718433        0.14344717161310
H            0.25962361382527        6.20605831558895        0.40277786597943
H           -0.49956684751730        7.59526795567323        1.68707939977226
116
 energy: -22.797360231027 gnorm: 0.448392378453 xtb: 6.6.1 (8d0f1dd)
C           -3.12977828065674        0.93397091100806       -1.61310612683254
C           -2.39697489774925       -0.00284367716988       -0.83431359187391
C           -1.53897468159390        0.59735352317259        0.16933011943935
C           -1.09623228229178        1.94142110353427       -0.01184287099306
C           -1.56903288212192        2.65391501808047       -1.13166500630109
C           -2.64077088043091        2.18846941794221       -1.87897598532149
C           -0.83782110486176       -0.08705007670394        1.23466929538146
C            0.25300194253659        0.54219880762665        1.81205640676942
C            0.74090818746958        1.78276283499533        1.28231351920993
N            0.08716508925950        2.50519035453592        0.44284110112940
C           -1.55418529611139       -1.05666847897260        1.96103303422765
C           -0.79246078971420       -1.72799054513345        2.89358253000650
N            0.53267482163246       -1.50371145311523        3.08501489989131
C            0.93827002051250       -0.32719542753016        2.67817168822208
C            2.17300386232560        0.13199392192542        3.06300350466029
C            2.70455511802752        1.35541766049647        2.68480011134118
C            1.91794973994867        2.21203109658343        1.85939719148316
C           -2.97624557622623       -1.39804882409125        1.80470893089094
C           -3.33631458676137       -2.57592426660454        2.37168914480626
C           -2.54097645981967       -3.25300294756574        3.20675009613452
C           -1.31568241474899       -2.80542389303735        3.56766100276647
O           -3.90825292916264       -0.70896185368918        1.05564073608224
O           -2.66395384059821       -1.29703843425386       -1.03804362953490
C           -3.18826313267946        3.17307270216911       -2.89531581824567
C           -2.96154671713564       -4.62264569795933        3.70919205039597
H           -0.95110804167102        3.42473361533920       -1.50428775973356
H           -3.93719439454169        0.48808818588241       -2.29795483163780
H            2.24500240292188        3.22648420358627        1.61396282426684
H            2.77342413665453       -0.51767495553688        3.66868184453545
H           -0.75801858858345       -3.17962436638749        4.42021706177575
H           -4.22151632194056       -3.02849798092861        2.08978847302245
O           -3.13336506905515        4.36492332059226       -2.82317415248324
O           -3.58258984429900        2.53947868499351       -4.01220517093085
C           -3.68076466020987        3.40788891148489       -5.12772793608064
C            4.13418560092817        1.83753856884547        3.08414528214767
O            4.51020905241031        1.40036034445332        4.13392239268912
O            4.79807533417419        2.72313428747920        2.42871407277083
C            6.17178315150770        2.93574142966276        2.80767112418503
O           -3.56513842639295       -5.31138991483347        2.99778581636314
O           -2.71409390710190       -4.87532352793613        5.04587794247214
C           -3.43995025596063       -6.01537148468820        5.46527282807219
C           -5.24488749937417       -0.98205780957768        1.32380903419318
C           -1.54784841197609       -2.02451182891566       -1.48180251681249
H           -2.92634670629306       -6.45830892817196        6.34195419053628
H           -3.41466270388755       -6.80936097100732        4.65113941203387
H           -4.43218308591085       -5.78191882293694        5.74612293277204
H            6.15049144004295        3.74470398281419        3.51902395466779
H            6.48424060172671        3.23794028201951        1.84812246610081
H            6.63030799780682        1.97162288983857        3.17136573473254
H           -1.93595096454593       -2.94444507290012       -1.99159595352284
H           -0.79411766706494       -2.15924895907776       -0.67613951495567
H           -1.08930061515743       -1.41887189563497       -2.27534295720848
H           -5.93219661644618       -0.30864862078638        0.75002497251544
H           -5.50680055721087       -0.76441727879064        2.34901995068033
H           -5.45518538442037       -2.00607919601380        1.26558795201526
H           -3.52081191520067        2.66007513710311       -5.96843150376590
H           -2.78407319356503        4.06603600798687       -5.12753382135808
H           -4.59905308647760        4.13063986520304       -5.20210097599849
C           -2.00222322503662        3.19302574764132        3.43074753909588
C           -2.19451608971082        2.09188807666106        4.16797252569079
C           -1.08222930001033        1.72167557222870        5.06614877906524
C            0.17510283165610        2.41576977503068        5.07163635265588
C            0.27895807136838        3.46985675149035        4.19423260482962
C           -0.72324985652651        3.88698485901759        3.33771870116133
C           -1.06808416575700        0.60449818503320        5.84131930399831
C            0.18590097301598        0.10130945811088        6.10277014314022
C            1.39130695690599        0.85278684001745        6.37753431665647
N            1.36235481831341        2.06084290911973        5.72733823745345
C           -2.19469642633089       -0.03635533379204        6.35429390105067
C           -2.12371430918695       -1.42563597528101        6.63165076195966
N           -0.97331783406516       -2.06648157657216        6.62566098625614
C            0.14028535069682       -1.22820983054100        6.61603021753827
C            1.25432681700528       -1.77901281512217        7.25760380910781
C            2.49032334771809       -1.14999484010681        7.14298535179368
C            2.50675275183101        0.18338044739494        6.84151588937751
C           -3.42817906283601        0.65766430719318        6.62524932794436
C           -4.63449276890808       -0.07509031398969        6.70183750606733
C           -4.58710900129306       -1.51399222891026        6.88267177778840
C           -3.36142794092991       -2.19944060047698        6.76881748717151
O           -3.41969789928459        2.01382155284996        6.66475416478391
O           -3.43430150570890        1.31776278086907        4.03838495633255
C           -0.27501609373787        5.01949114091455        2.44847233877042
C           -5.90781089779423       -2.26212699270362        7.03544862806260
H            1.22236537546412        4.12513870733904        4.17732260038203
H           -2.70008443614291        3.68042224783894        2.74698565028706
H            3.41763285822934        0.75434932584473        6.79668479816553
H            1.20886686604128       -2.84434091313075        7.59055523577617
H           -3.37405336987119       -3.22015784852187        6.80148035875736
H           -5.55765682639180        0.44301764751933        6.53753145718803
O            0.89552738623391        5.20608108165792        2.24067744230122
O           -1.18357684432601        5.70562509134987        1.69750064772054
C           -0.65133162183581        6.56332978027050        0.61776795926694
C            3.66901322684387       -2.15111370912674        7.24304848014354
O            3.66559736184082       -3.32489360946940        7.74127374297737
O            4.83089153488831       -1.70161598387315        6.70919071254122
C            5.98759530676682       -2.47470847373299        7.03696337845437
O           -6.96356325001520       -1.64105773746432        7.00856683651032
O           -5.87652770202947       -3.64590824563713        7.13777588673850
C           -7.08569159169143       -4.18031696662180        7.19418860037801
C           -4.10446622296345        2.40180665804491        7.85415589446756
C           -4.49582844880617        1.89397320545921        3.45584517663745
H           -7.56921681658458       -4.21688870568208        6.28423491528782
H           -7.82735169885664       -3.48034455843234        7.74758160833476
H           -7.18370470936084       -5.18266483108064        7.74694435464717
H            5.92106649071212       -3.56224981277283        6.98744390216552
H            6.30484983420891       -2.43180549495160        8.17176170592726
H            6.91037335004224       -2.25404230912468        6.41248914393906
H           -5.32070303491110        2.19383066920430        4.14914589803233
H           -4.99158345971157        1.21940236328243        2.71385097163820
H           -4.10866768745539        2.67254679312847        2.93209207236189
H           -3.65238016271277        3.41804409366883        8.14572789952208
H           -3.93207968698428        1.55778653426346        8.55919598508594
H           -5.09940398178256        2.53387539674508        7.76886413355968
H           -1.31830091771018        7.37179858156462        0.36618412003602
H           -0.33057959711100        5.91457579157452       -0.15687364826139
H            0.31681962580867        6.94580093783734        0.86482875681114
116
 energy: -22.801637909415 gnorm: 0.441387800576 xtb: 6.6.1 (8d0f1dd)
C           -3.03876728032206        0.91781010014341       -2.01278339243737
C           -2.52158116903127        0.06071690393452       -1.07089010291298
C           -1.58527745875526        0.70642749442116       -0.22780237476077
C           -0.98795397137317        1.99521589313304       -0.41423961179037
C           -1.64684708972197        2.76151435669587       -1.46512861862723
C           -2.64217749646934        2.22840473622258       -2.21552178149735
C           -1.21764554514646        0.10261215823954        0.99425139242381
C           -0.05456406201369        0.47659373713614        1.54542121103196
C            0.64982398689194        1.57698406237464        1.00574610292689
N            0.16913778190180        2.44858770552833        0.11404172938298
C           -1.84621200519385       -0.99063435081330        1.68558713275187
C           -1.13375727056908       -1.64707731534522        2.73131199479870
N            0.17474533747513       -1.36149936966793        3.12944243170521
C            0.71532738560648       -0.29051191801469        2.54551925860584
C            2.09912984925228       -0.07071908587232        2.86844996081208
C            2.74860975227514        1.08824023528206        2.30930216311610
C            1.99162567674314        1.83229433211050        1.39426458861167
C           -3.27161491296700       -1.20091037692999        1.68295856101511
C           -3.73861524028397       -2.17502084599494        2.49689793469475
C           -2.93732175066219       -2.98167585131567        3.29802849869216
C           -1.61202337264492       -2.78627378975676        3.35239101970330
O           -4.22408473636367       -0.60203358578298        0.96439900598646
O           -2.81333794339224       -1.30822796052323       -1.05741105271597
C           -3.25807419078330        2.93074111480069       -3.40980896285881
C           -3.51185286848763       -4.18451047584802        3.96544161361986
H           -1.18132462361911        3.59283433186941       -1.85479791230966
H           -3.87892477006174        0.49969228213007       -2.70677089015720
H            2.12335773241586        2.87996051352309        1.22331901559375
H            2.54124793599710       -0.81892846837798        3.55196378606840
H           -1.05105807244249       -3.35719073613250        4.07236643766299
H           -4.74578534777634       -2.55273293163926        2.39625260526258
O           -2.79821599475670        3.98477716580600       -3.74903330283684