192
 energy: -249.240155575195 gnorm: 0.082430705928 xtb: 6.7.1 (edcfbbe)
C            0.18640000000000        3.49790000000000       -3.60160000000000
C            2.15380000000000       -2.28060000000000        0.64450000000000
C           -4.14310000000000        1.17030000000000       -2.36920000000000
C           -3.15060000000000        0.38890000000000       -1.78560000000000
C           -1.82960000000000        0.93270000000000       -1.69620000000000
C           -1.50710000000000        2.07350000000000       -2.47420000000000
C           -2.55260000000000        2.81640000000000       -3.02840000000000
C           -3.87190000000000        2.40520000000000       -2.94240000000000
C           -0.82150000000000        0.37540000000000       -0.83720000000000
C            0.53750000000000        0.62030000000000       -1.16180000000000
C            0.86830000000000        1.64190000000000       -2.08830000000000
N           -0.15700000000000        2.39870000000000       -2.67790000000000
C           -1.10970000000000       -0.40360000000000        0.33800000000000
C           -0.11930000000000       -1.31320000000000        0.79210000000000
N            1.19350000000000       -1.21020000000000        0.30160000000000
C            1.55830000000000       -0.17220000000000       -0.57630000000000
C            2.87870000000000        0.08280000000000       -0.94410000000000
C            3.22340000000000        1.08920000000000       -1.83200000000000
C            2.21250000000000        1.86500000000000       -2.37540000000000
C           -2.33220000000000       -0.30420000000000        1.08430000000000
C           -2.64600000000000       -1.33230000000000        1.96840000000000
C           -1.77230000000000       -2.37840000000000        2.22900000000000
C           -0.49220000000000       -2.29900000000000        1.70880000000000
O           -3.24050000000000        0.76800000000000        1.02760000000000
O           -3.37340000000000       -0.91360000000000       -1.33460000000000
H           -5.15210000000000        0.80630000000000       -2.38220000000000
H           -2.33060000000000        3.75320000000000       -3.49980000000000
H           -3.58090000000000       -1.26330000000000        2.49130000000000
H            0.22860000000000       -3.03290000000000        2.00930000000000
H            3.67160000000000       -0.50780000000000       -0.53180000000000
H            2.47710000000000        2.66380000000000       -3.03820000000000
C            1.90460000000000       -3.54770000000000       -0.16090000000000
C            2.83950000000000       -4.68040000000000        0.22810000000000
C            0.41430000000000        4.80850000000000       -2.86370000000000
C            0.77110000000000        5.95410000000000       -3.79590000000000
C           -2.64920000000000        2.03990000000000        0.85530000000000
C           -4.72300000000000       -1.23220000000000       -1.09030000000000
C           -5.03410000000000        3.25880000000000       -3.47140000000000
C           -5.75330000000000        2.50030000000000       -4.60100000000000
C           -6.01870000000000        3.53460000000000       -2.31890000000000
C           -4.54620000000000        4.61190000000000       -4.02450000000000
C           -2.19130000000000       -3.55920000000000        3.11760000000000
C           -1.43530000000000       -4.84240000000000        2.71460000000000
C           -3.70150000000000       -3.83460000000000        2.97520000000000
C           -1.87300000000000       -3.22480000000000        4.57680000000000
C            4.69990000000000        1.29410000000000       -2.21110000000000
C            4.87580000000000        2.42370000000000       -3.24530000000000
C            5.25210000000000       -0.00850000000000       -2.81990000000000
C            5.50750000000000        1.66110000000000       -0.95470000000000
H            6.29140000000000        0.11340000000000       -3.12460000000000
H            4.67470000000000       -0.29700000000000       -3.69790000000000
H            5.20950000000000       -0.83040000000000       -2.10650000000000
H            5.92630000000000        2.54520000000000       -3.50930000000000
H            4.52500000000000        3.37700000000000       -2.85030000000000
H            4.32940000000000        2.20520000000000       -4.16250000000000
H            6.55940000000000        1.81120000000000       -1.19700000000000
H            5.44830000000000        0.87530000000000       -0.20320000000000
H            5.12970000000000        2.58300000000000       -0.51390000000000
H           -2.12400000000000       -4.05330000000000        5.23860000000000
H           -2.43550000000000       -2.35140000000000        4.89970000000000
H           -0.81440000000000       -2.99990000000000        4.69270000000000
H           -3.98730000000000       -4.72820000000000        3.52970000000000
H           -3.96970000000000       -3.98580000000000        1.92980000000000
H           -4.29470000000000       -3.00880000000000        3.36410000000000
H           -5.38630000000000        5.21180000000000       -4.37400000000000
H           -3.87010000000000        4.47160000000000       -4.86770000000000
H           -4.02860000000000        5.18600000000000       -3.25610000000000
H           -6.84790000000000        4.15740000000000       -2.65400000000000
H           -5.51750000000000        4.05110000000000       -1.50030000000000
H           -6.43590000000000        2.60960000000000       -1.92280000000000
H           -6.57190000000000        3.09300000000000       -5.00890000000000
H           -6.16950000000000        1.55900000000000       -4.24460000000000
H           -5.06250000000000        2.27460000000000       -5.41300000000000
H           -1.81200000000000       -5.70340000000000        3.26670000000000
H           -0.37000000000000       -4.76490000000000        2.92770000000000
H           -1.55790000000000       -5.04570000000000        1.65100000000000
H            2.09820000000000       -2.47570000000000        1.71890000000000
H            3.17890000000000       -1.94880000000000        0.48430000000000
H            2.00480000000000       -3.31570000000000       -1.22940000000000
H            0.85870000000000       -3.85760000000000       -0.04130000000000
H            3.88370000000000       -4.40000000000000        0.07570000000000
H            2.65340000000000       -5.58530000000000       -0.35510000000000
H            2.72680000000000       -4.93970000000000        1.28280000000000
H           -3.17640000000000        2.75930000000000        1.47710000000000
H           -2.74650000000000        2.36400000000000       -0.17850000000000
H           -1.59810000000000        2.00820000000000        1.14220000000000
H           -4.76460000000000       -2.19300000000000       -0.57650000000000
H           -5.26760000000000       -1.30980000000000       -2.03160000000000
H           -5.16670000000000       -0.46970000000000       -0.44840000000000
H           -0.60090000000000        3.60540000000000       -4.35170000000000
H            1.06420000000000        3.22100000000000       -4.19020000000000
H            1.20290000000000        4.66580000000000       -2.11330000000000
H           -0.48420000000000        5.05330000000000       -2.28210000000000
H            1.68340000000000        5.73760000000000       -4.35530000000000
H            0.93130000000000        6.88960000000000       -3.25480000000000
H           -0.02090000000000        6.12880000000000       -4.52700000000000
C           -0.57150000000000        3.67770000000000        3.01100000000000
C            1.94200000000000       -2.43090000000000        6.38220000000000
C           -4.77660000000000        1.21600000000000        4.44360000000000
C           -3.73870000000000        0.38970000000000        4.86010000000000
C           -2.40810000000000        0.91380000000000        4.84700000000000
C           -2.16180000000000        2.13970000000000        4.17640000000000
C           -3.25510000000000        2.94840000000000        3.85240000000000
C           -4.56000000000000        2.50350000000000        3.97530000000000
C           -1.29580000000000        0.21940000000000        5.43950000000000
C           -0.00940000000000        0.44560000000000        4.89050000000000
C            0.20550000000000        1.55210000000000        4.03060000000000
N           -0.84900000000000        2.44370000000000        3.77580000000000
C           -1.40810000000000       -0.67190000000000        6.56120000000000
C           -0.38440000000000       -1.63150000000000        6.77400000000000
N            0.84030000000000       -1.48820000000000        6.10180000000000
C            1.06170000000000       -0.42340000000000        5.21470000000000
C            2.30510000000000       -0.18200000000000        4.63530000000000
C            2.53710000000000        0.89690000000000        3.79860000000000
C            1.48370000000000        1.75040000000000        3.51500000000000
C           -2.49170000000000       -0.61970000000000        7.49670000000000
C           -2.68280000000000       -1.70050000000000        8.35280000000000
C           -1.78600000000000       -2.75680000000000        8.41970000000000
C           -0.63150000000000       -2.68300000000000        7.66080000000000
O           -3.35160000000000        0.49030000000000        7.64220000000000
O           -3.93570000000000       -0.94880000000000        5.20510000000000
H           -5.77920000000000        0.83530000000000        4.45460000000000
H           -3.08010000000000        3.94170000000000        3.48940000000000
H           -3.54090000000000       -1.67000000000000        8.99660000000000
H            0.07450000000000       -3.48730000000000        7.73390000000000
H            3.12390000000000       -0.84010000000000        4.84890000000000
H            1.66510000000000        2.59770000000000        2.88560000000000
C            2.00950000000000       -3.54960000000000        5.35220000000000
C            3.20940000000000       -4.46010000000000        5.54780000000000
C            0.00730000000000        4.77520000000000        3.88960000000000
C            0.33300000000000        6.03720000000000        3.10850000000000
C           -2.67750000000000        1.71560000000000        7.85140000000000
C           -5.25950000000000       -1.28350000000000        5.55030000000000
C           -5.75690000000000        3.33600000000000        3.49210000000000
C           -6.38850000000000        2.63790000000000        2.27270000000000
C           -6.79430000000000        3.44940000000000        4.62430000000000
C           -5.33670000000000        4.75930000000000        3.07710000000000
C           -2.01590000000000       -3.96980000000000        9.33270000000000
C           -2.04000000000000       -5.24910000000000        8.47600000000000
C           -3.35400000000000       -3.86800000000000       10.09000000000000
C           -0.87700000000000       -4.05550000000000       10.36500000000000
C            3.95890000000000        1.16000000000000        3.27940000000000
C            3.98530000000000        2.30500000000000        2.24870000000000
C            4.50760000000000       -0.10740000000000        2.60190000000000
C            4.86130000000000        1.54280000000000        4.46530000000000
H            5.50430000000000        0.06530000000000        2.19670000000000
H            3.85550000000000       -0.40260000000000        1.78400000000000
H            4.57440000000000       -0.94240000000000        3.29780000000000
H            4.99580000000000        2.45700000000000        1.87120000000000
H            3.66160000000000        3.24580000000000        2.69310000000000
H            3.33940000000000        2.08110000000000        1.39950000000000
H            5.87920000000000        1.74450000000000        4.13220000000000
H            4.90180000000000        0.74140000000000        5.20240000000000
H            4.48440000000000        2.43610000000000        4.96290000000000
H           -1.02760000000000       -4.89540000000000       11.04300000000000
H           -0.82960000000000       -3.14470000000000       10.96150000000000
H            0.08920000000000       -4.18830000000000        9.88000000000000
H           -3.51180000000000       -4.74590000000000       10.71620000000000
H           -4.19230000000000       -3.80170000000000        9.39670000000000
H           -3.37200000000000       -2.99380000000000       10.74030000000000
H           -6.20450000000000        5.34450000000000        2.77330000000000
H           -4.64730000000000        4.73760000000000        2.23350000000000
H           -4.85760000000000        5.28300000000000        3.90410000000000
H           -7.64370000000000        4.05810000000000        4.31490000000000
H           -6.35130000000000        3.91130000000000        5.50630000000000
H           -7.17620000000000        2.47180000000000        4.91500000000000
H           -7.22640000000000        3.21460000000000        1.88170000000000
H           -6.75680000000000        1.64630000000000        2.53250000000000
H           -5.65700000000000        2.51920000000000        1.47370000000000
H           -2.21980000000000       -6.12880000000000        9.09370000000000
H           -1.09500000000000       -5.39600000000000        7.95450000000000
H           -2.83010000000000       -5.19500000000000        7.72740000000000
H            1.83990000000000       -2.83440000000000        7.39220000000000
H            2.88500000000000       -1.88070000000000        6.42240000000000
H            2.02510000000000       -3.10910000000000        4.34670000000000
H            1.08030000000000       -4.13230000000000        5.39040000000000
H            4.14460000000000       -3.90170000000000        5.47220000000000
H            3.24310000000000       -5.25970000000000        4.80400000000000
H            3.19240000000000       -4.92830000000000        6.53400000000000
H           -3.41360000000000        2.51760000000000        7.90960000000000
H           -1.98940000000000        1.92210000000000        7.03350000000000
H           -2.12140000000000        1.66560000000000        8.78780000000000
H           -5.26360000000000       -2.28370000000000        5.98470000000000
H           -5.89290000000000       -1.28060000000000        4.66290000000000
H           -5.63200000000000       -0.57590000000000        6.29230000000000
H           -1.47690000000000        4.03020000000000        2.51480000000000
H            0.10150000000000        3.44410000000000        2.18200000000000
H            0.90430000000000        4.39670000000000        4.39660000000000
H           -0.70080000000000        4.99560000000000        4.69910000000000
H            1.05950000000000        5.83510000000000        2.31880000000000
H            0.74990000000000        6.81960000000000        3.74690000000000
H           -0.55870000000000        6.44470000000000        2.62810000000000
192
 energy: -249.255425701497 gnorm: 0.037736729498 xtb: 6.7.1 (edcfbbe)
C            0.18299864408876        3.48319297006430       -3.58730692078036
C            2.13613648213986       -2.27289144935731        0.63669858118525
C           -4.14097796040971        1.17156229097734       -2.37683284504788
C           -3.14868343968632        0.40295458087781       -1.78940959237228
C           -1.82627752552624        0.92036482064376       -1.70439469859263
C           -1.50150169220852        2.05581805748936       -2.48742689797710
C           -2.53910880203441        2.81424756491307       -3.03126440476622
C           -3.86574214887731        2.41196128632622       -2.94112700803497
C           -0.82503129985573        0.36789187660465       -0.84197358915832
C            0.53399246940307        0.61260860866124       -1.16792959258684
C            0.86445303725128        1.63664219939883       -2.08901273118969
N           -0.15768284036443        2.39310550105070       -2.67274727519213
C           -1.10449935543134       -0.40050554526108        0.33573585910305
C           -0.11619876065430       -1.30757852565813        0.79092626910710
N            1.18905296727846       -1.21075198158285        0.29191690035701
C            1.55405338842124       -0.17924521176802       -0.58322911608122
C            2.87535064347555        0.07839524745465       -0.94292331290122
C            3.21840939182208        1.08937252855314       -1.83359520172675
C            2.20592838033322        1.86808921672136       -2.37776662629322
C           -2.31118344610539       -0.31505788040953        1.08051541973964
C           -2.63877996814396       -1.32661429393621        1.96908481056047
C           -1.77072950662335       -2.37970200859837        2.22501483539665
C           -0.48440349178969       -2.29423776106551        1.70564092475008
O           -3.20964217200302        0.74353638710534        1.00273794824244
O           -3.37008768341850       -0.87819709768232       -1.32371629767306
H           -5.15339938033318        0.80809552844398       -2.38907440584492
H           -2.31318544226930        3.75019568050531       -3.50547736605973
H           -3.58432029149312       -1.25465144277885        2.47743451593838
H            0.23618535804545       -3.02939865795732        2.00869840361002
H            3.67285543973235       -0.51352169159844       -0.53202515985952
H            2.47058131864334        2.66586221082446       -3.04393684631202
C            1.89235352173326       -3.54652178839628       -0.17043062041815
C            2.83760990549034       -4.66994618821906        0.23057477765668
C            0.41199718295597        4.80300545239125       -2.85303412829089
C            0.76831444039489        5.94233951452935       -3.79719786841131
C           -2.65008964046340        2.03042545720986        0.84496668051135
C           -4.71427486886772       -1.22415197585911       -1.08658073615619
C           -5.02444034054157        3.25970931358373       -3.46931268751138
C           -5.74602229490495        2.50267852239275       -4.59562230987281
C           -6.01050541410484        3.53246417188823       -2.32126993681359
C           -4.54836936371350        4.60928984646612       -4.02364854058015
C           -2.19021434288013       -3.55989195728722        3.10431326086089
C           -1.43806609900665       -4.84090234505113        2.70769800375463
C           -3.69519747860074       -3.83479016392169        2.96904473663808
C           -1.87126265660862       -3.23145540918569        4.56345576358609
C            4.68919573115016        1.29557473187533       -2.21133396341083
C            4.87460918622057        2.41891940385451       -3.24177146731477
C            5.24369056865799       -0.00377855972576       -2.81789032933149
C            5.50153135958152        1.66013465474206       -0.96056388679583
H            6.28223066799349        0.12750732216945       -3.11908001539034
H            4.66704980013973       -0.29034083890712       -3.69547248947680
H            5.20401956514498       -0.82406460015337       -2.10499420103419
H            5.92840064818142        2.52693722087674       -3.49425250883764
H            4.53005052828131        3.37273893875677       -2.84586606919853
H            4.33377304176581        2.19858904002119       -4.16036414099671
H            6.55125254647708        1.80666490176968       -1.21245688092979
H            5.44153627682654        0.87617405986555       -0.21001579191810
H            5.12421902661066        2.58228505032404       -0.52344310443672
H           -2.12121608045643       -4.06313042862330        5.22060318554992
H           -2.43351513452648       -2.36273358714750        4.88843265196421
H           -0.81412346071504       -3.00839118976473        4.67404864803093
H           -3.96768289357586       -4.72970192129362        3.52700195080669
H           -3.96496499448445       -3.98392755555306        1.92497674868116
H           -4.28162814119957       -3.01182433493639        3.36664560610550
H           -5.39882602360095        5.19564695681660       -4.36773274202888
H           -3.87824023918991        4.46895335942953       -4.86990070270896
H           -4.03467789616852        5.18435347211896       -3.25516737163396
H           -6.83629660787838        4.15405042405172       -2.66488892712129
H           -5.50910397781208        4.04994790373189       -1.50514311623407
H           -6.42723462882919        2.60843301514318       -1.92734614020839
H           -6.56307270200397        3.10046817343562       -4.99754741580249
H           -6.16246815238581        1.56357709774500       -4.23865688432752
H           -5.05517361623917        2.27855815689396       -5.40656390464919
H           -1.82585630768684       -5.69183646250909        3.26605567869774
H           -0.37585183236534       -4.76650956504206        2.92991957554517
H           -1.55863594427724       -5.04386989024566        1.64521919388074
H            2.07228489438851       -2.47050285903857        1.71166407784277
H            3.15730311612711       -1.93855424367262        0.45993855984049
H            2.01528397476644       -3.31549096551275       -1.23378825124426
H            0.85474786576084       -3.86612099232405       -0.03709167815445
H            3.87825527382700       -4.38553202254296        0.07360065499196
H            2.64489804782501       -5.56717859839179       -0.35597328271266
H            2.71660569727206       -4.92720642831041        1.28298733048691
H           -3.20061061171049        2.71578038903131        1.49057763280173
H           -2.74559125863217        2.37766624983834       -0.18479517174742
H           -1.59902648438698        2.02505138951827        1.13318592610452
H           -4.71934042381646       -2.18737758045131       -0.57599313609011
H           -5.27000455303125       -1.32072447806195       -2.02493978697853
H           -5.18553740551304       -0.47765097412292       -0.44157158213808
H           -0.61524415420794        3.59201080699440       -4.32590248941682
H            1.07082048131812        3.20788832900808       -4.16326123480421
H            1.21168917372678        4.66553537069929       -2.11771812120842
H           -0.49156775705566        5.05613470810998       -2.28844984713090
H            1.68173550969047        5.72276806257237       -4.34970818190181
H            0.92576096580977        6.86981807476089       -3.24772677614610
H           -0.02721106418687        6.11491711226998       -4.52188641305966
C           -0.56941590914054        3.66286374627873        3.02822750655295
C            1.92913784052248       -2.41865955869075        6.37612567842659
C           -4.77584801093541        1.22158721923115        4.43547338945519
C           -3.73822202189608        0.41542397066213        4.87075953031866
C           -2.40649112334228        0.90571815017302        4.83799175055721
C           -2.15909162112746        2.12241170950469        4.15698120575084
C           -3.24266978884661        2.94684968074879        3.84620859380185
C           -4.55388244254819        2.50970131279421        3.96908724667440
C           -1.29816738568170        0.21762060385728        5.44032564972466
C           -0.01102884350377        0.44506516494315        4.89276347997017
C            0.20355397631022        1.55149156430648        4.03613876840868
N           -0.84795112637012        2.43961824247976        3.78440762931067
C           -1.40076847839448       -0.66212972490580        6.56417390982607
C           -0.37835041646659       -1.62035878882012        6.78017654102495
N            0.83657393713000       -1.48541794848658        6.09963806816450
C            1.05976471864138       -0.42247470777743        5.21812581820861
C            2.30411187351920       -0.18417691036201        4.64207476551631
C            2.53376356525819        0.90096687930203        3.80464413072200
C            1.47888510447420        1.75614077345666        3.51818603818636
C           -2.47377042404771       -0.62447866099590        7.49199404965783
C           -2.67509043448324       -1.68681804149843        8.35897376642754
C           -1.78913927819911       -2.75409252491247        8.41577589040710
C           -0.62563240035692       -2.67602611377211        7.65755207673413
O           -3.33522851161280        0.46975721804657        7.61334192923901
O           -3.93502161868906       -0.90189102888268        5.23668329250951
H           -5.78172236863577        0.84071194631377        4.44898458446759
H           -3.06189776139233        3.94393091972662        3.49031783467242
H           -3.53984793225785       -1.64660222406136        8.99818107174097
H            0.08435818584559       -3.48020185749702        7.73642722284688
H            3.12703377028393       -0.84197402505085        4.85476811601114
H            1.65959354528911        2.60048005550596        2.88239552949455
C            2.00115798944296       -3.54560824849567        5.34679646567573
C            3.20656083284884       -4.45109042330738        5.55325252430347
C            0.00933126372210        4.77001446926389        3.90509550040769
C            0.32886605533732        6.02699069088232        3.10821526517955
C           -2.67365949743921        1.69737649264249        7.84785386298057
C           -5.25469060584224       -1.27086432885310        5.56091452377619
C           -5.74842387859967        3.33972425621637        3.49658049177989
C           -6.38102657109039        2.64083286019760        2.28061360051443
C           -6.78737341629572        3.45069726696605        4.62334085929899
C           -5.33942627323079        4.75870471731707        3.07910013366799
C           -2.01824758880416       -3.96216180246746        9.32665291120204
C           -2.03997802067394       -5.24152427492781        8.47532872722561
C           -3.34859535072769       -3.86902754583115       10.08646846180198
C           -0.88167419103398       -4.05183042527011       10.35801048194231
C            3.94863972818598        1.16092450886346        3.28186340142389
C            3.98510297680951        2.30113446503950        2.25530296649594
C            4.50326528409602       -0.10105727378610        2.60670091040222
C            4.85217542476601        1.54155012620364        4.46497280551640
H            5.50016283191955        0.08207295115420        2.20720403868771
H            3.84928608381841       -0.39002521270485        1.78997991047711
H            4.57301584792457       -0.93509416645259        3.30100678226189
H            5.00045020612804        2.43938543321053        1.88862515204637
H            3.66857258415590        3.24241799375183        2.70085381100548
H            3.34393052641427        2.07496017072063        1.40439101857702
H            5.86695512928876        1.74110322630786        4.12294933357233
H            4.89408271313851        0.74057561867316        5.20014570195600
H            4.47621633181217        2.43514038499571        4.95992294572597
H           -1.03975306430924       -4.89308853854036       11.03160254686617
H           -0.83690435157725       -3.14172124298481       10.95364355629575
H            0.08335202122325       -4.18660840190568        9.87469616667568
H           -3.49203601135150       -4.75281940103389       10.70659090387091
H           -4.18581446095710       -3.80544312887417        9.39419371808277
H           -3.36444321373925       -2.99889959967872       10.73981847200624
H           -6.21691150265872        5.32977098416294        2.78033570610930
H           -4.65761944149057        4.73687893654367        2.23054255331873
H           -4.86222643223521        5.28293844799663        3.90535954860950
H           -7.63336900921225        4.05875392020206        4.30569651703728
H           -6.34387675864495        3.91285436103462        5.50339273068022
H           -7.16840529066369        2.47382265253150        4.91105371704692
H           -7.21761537449122        3.22301863157864        1.89589360347004
H           -6.75057352917958        1.65198358578517        2.54209897637919
H           -5.64997376681482        2.52079063908503        1.48325020501812
H           -2.21988392024897       -6.11538007469769        9.10030442117120
H           -1.09568368471492       -5.38845165331006        7.95590688871168
H           -2.83111254681482       -5.18511335928042        7.72994921055855
H            1.81060893522440       -2.82697526792123        7.38227622623501
H            2.87279273418548       -1.86636890779160        6.40236807778848
H            2.03535590965365       -3.10347877884644        4.34518571099962
H            1.08136416602059       -4.13703233801039        5.39945410940319
H            4.13782561788544       -3.89034647533279        5.47285112608375
H            3.23005093525334       -5.24516831078839        4.80757557815877
H            3.18197212924093       -4.91866400282125        6.53729184702294
H           -3.43398939331391        2.47674772256582        7.90165334202207
H           -1.97908519680547        1.93825910819295        7.04099502343322
H           -2.12543957818485        1.66292226736219        8.79529977302238
H           -5.21937805370547       -2.27535224991202        5.98474519352316
H           -5.89395550410850       -1.28888375959594        4.67192682621638
H           -5.66047878765927       -0.58150436994609        6.30503455775927
H           -1.48201386675799        4.01467258555699        2.54601125011841
H            0.11525072495881        3.42924665135996        2.20672442245434
H            0.91465174601371        4.39971073246568        4.39650178022468
H           -0.70779592118358        5.00282068803755        4.69908070051953
H            1.05715578691319        5.81939541594001        2.32418525333296