116
 energy: -213.869376690778 gnorm: 0.153811191181 xtb: 6.7.1 (edcfbbe)
C           -2.26170000000000        2.72640000000000       -0.98390000000000
C           -2.01680000000000        1.50080000000000       -0.37710000000000
C           -1.13960000000000        1.46290000000000        0.76110000000000
C           -0.30830000000000        2.59150000000000        1.01450000000000
C           -0.57710000000000        3.78900000000000        0.33420000000000
C           -1.56290000000000        3.86970000000000       -0.61970000000000
C           -0.98670000000000        0.32360000000000        1.61180000000000
C            0.19810000000000        0.24410000000000        2.34810000000000
C            1.04920000000000        1.38160000000000        2.43050000000000
N            0.75710000000000        2.55880000000000        1.84530000000000
C           -1.91760000000000       -0.74640000000000        1.79280000000000
C           -1.42500000000000       -1.97040000000000        2.32730000000000
N           -0.21590000000000       -2.08500000000000        2.92470000000000
C            0.53650000000000       -0.96940000000000        3.01360000000000
C            1.72190000000000       -1.00230000000000        3.75390000000000
C            2.54940000000000        0.10140000000000        3.83800000000000
C            2.21590000000000        1.27470000000000        3.18950000000000
C           -3.32900000000000       -0.59390000000000        1.58590000000000
C           -4.12900000000000       -1.72690000000000        1.63890000000000
C           -3.60960000000000       -2.96450000000000        1.99750000000000
C           -2.28770000000000       -3.07630000000000        2.35730000000000
O           -3.83090000000000        0.69210000000000        1.44250000000000
O           -2.59300000000000        0.35740000000000       -0.96430000000000
C           -1.82400000000000        5.15550000000000       -1.30160000000000
C           -4.50860000000000       -4.13310000000000        2.10440000000000
H           -0.01130000000000        4.67130000000000        0.57610000000000
H           -2.96510000000000        2.77480000000000       -1.79450000000000
H            2.86810000000000        2.12460000000000        3.27420000000000
H            1.99780000000000       -1.90150000000000        4.27400000000000
H           -1.92160000000000       -4.01840000000000        2.72210000000000
H           -5.18330000000000       -1.66560000000000        1.44670000000000
O           -1.07080000000000        6.09410000000000       -1.12830000000000
O           -2.92580000000000        5.20470000000000       -2.10570000000000
C           -3.01000000000000        6.46130000000000       -2.69460000000000
C            3.79060000000000        0.03780000000000        4.63480000000000
O            3.98190000000000       -0.89920000000000        5.38560000000000
O            4.65850000000000        1.08010000000000        4.47290000000000
C            5.72160000000000        0.93660000000000        5.35180000000000
O           -5.67010000000000       -4.03510000000000        1.75810000000000
O           -3.95780000000000       -5.27210000000000        2.61740000000000
C           -4.92960000000000       -6.26350000000000        2.68680000000000
C           -5.20470000000000        0.77860000000000        1.16560000000000
C           -1.66040000000000       -0.63550000000000       -1.33970000000000
H           -4.48670000000000       -7.17030000000000        3.10410000000000
H           -5.30930000000000       -6.45560000000000        1.68020000000000
H           -5.74470000000000       -5.91280000000000        3.32510000000000
H            6.46970000000000        1.70350000000000        5.14000000000000
H            6.14900000000000       -0.06310000000000        5.23630000000000
H            5.32880000000000        1.05910000000000        6.36260000000000
H           -2.20620000000000       -1.48370000000000       -1.75420000000000
H           -1.08270000000000       -0.96380000000000       -0.47690000000000
H           -0.98950000000000       -0.22760000000000       -2.09660000000000
H           -5.45540000000000        1.83360000000000        1.04710000000000
H           -5.77840000000000        0.36630000000000        1.99660000000000
H           -5.42190000000000        0.25060000000000        0.23570000000000
H           -3.89310000000000        6.49840000000000       -3.33620000000000
H           -2.10620000000000        6.63340000000000       -3.28500000000000
H           -3.08000000000000        7.21630000000000       -1.90730000000000
C           -2.99480000000000        1.62740000000000        4.37310000000000
C           -2.56770000000000        0.66160000000000        5.27710000000000
C           -1.37540000000000        0.91500000000000        6.04250000000000
C           -0.51060000000000        1.96590000000000        5.61870000000000
C           -0.98730000000000        2.88240000000000        4.66900000000000
C           -2.22650000000000        2.74830000000000        4.08990000000000
C           -0.95910000000000        0.13530000000000        7.16880000000000
C            0.39830000000000        0.19750000000000        7.50610000000000
C            1.22380000000000        1.21150000000000        6.94310000000000
N            0.75720000000000        2.12020000000000        6.06510000000000
C           -1.77890000000000       -0.68710000000000        8.00690000000000
C           -1.13170000000000       -1.68160000000000        8.79450000000000
N            0.20520000000000       -1.72680000000000        8.98410000000000
C            0.93620000000000       -0.73570000000000        8.43770000000000
C            2.28300000000000       -0.61470000000000        8.78980000000000
C            3.07760000000000        0.39790000000000        8.28780000000000
C            2.55310000000000        1.29620000000000        7.37440000000000
C           -3.19710000000000       -0.50830000000000        8.14760000000000
C           -3.92250000000000       -1.49160000000000        8.80920000000000
C           -3.29500000000000       -2.56360000000000        9.43140000000000
C           -1.92310000000000       -2.63180000000000        9.45500000000000
O           -3.76530000000000        0.67270000000000        7.68630000000000
O           -3.30480000000000       -0.53600000000000        5.32880000000000
C           -2.69870000000000        3.77320000000000        3.13250000000000
C           -4.10020000000000       -3.59170000000000       10.12530000000000
H           -0.36700000000000        3.71180000000000        4.38010000000000
H           -3.90490000000000        1.46420000000000        3.82620000000000
H            3.17710000000000        2.08120000000000        6.98910000000000
H            2.70870000000000       -1.30640000000000        9.49430000000000
H           -1.44580000000000       -3.42120000000000       10.00650000000000
H           -4.99110000000000       -1.42790000000000        8.88770000000000
O           -1.96710000000000        4.70230000000000        2.84970000000000
O           -3.95530000000000        3.61810000000000        2.62130000000000
C           -4.23000000000000        4.66450000000000        1.74750000000000
C            4.47040000000000        0.51850000000000        8.77720000000000
O            4.87800000000000       -0.26950000000000        9.60920000000000
O            5.22570000000000        1.53620000000000        8.27030000000000
C            6.47430000000000        1.53150000000000        8.88360000000000
O           -5.31340000000000       -3.51020000000000       10.12650000000000
O           -3.40170000000000       -4.59450000000000       10.73490000000000
C           -4.28870000000000       -5.47450000000000       11.34420000000000
C           -5.17000000000000        0.68320000000000        7.64500000000000
C           -2.51900000000000       -1.69870000000000        5.21590000000000
H           -3.72350000000000       -6.27680000000000       11.82330000000000
H           -4.95700000000000       -5.88480000000000       10.58310000000000
H           -4.87280000000000       -4.92730000000000       12.08830000000000
H            7.08030000000000        2.34300000000000        8.47550000000000
H            6.95640000000000        0.56810000000000        8.69920000000000
H            6.33610000000000        1.66870000000000        9.95900000000000
H           -3.13160000000000       -2.48890000000000        4.78050000000000
H           -2.16500000000000       -2.01990000000000        6.19340000000000
H           -1.67420000000000       -1.47720000000000        4.56480000000000
H           -5.48790000000000        1.60960000000000        7.16490000000000
H           -5.57250000000000        0.64880000000000        8.65840000000000
H           -5.52100000000000       -0.16360000000000        7.05260000000000
H           -5.25430000000000        4.57150000000000        1.38130000000000
H           -3.52680000000000        4.61920000000000        0.91330000000000
H           -4.10270000000000        5.61020000000000        2.28040000000000
116
 energy: -213.898457981312 gnorm: 0.068424712344 xtb: 6.7.1 (edcfbbe)
C           -2.26235763479744        2.71025697914467       -0.99105183863445
C           -2.01483627907388        1.49827444002721       -0.37836772200769
C           -1.14874781784733        1.45638678128900        0.74982762000339
C           -0.31572958586109        2.58761010288264        1.01264486670521
C           -0.57824531649985        3.79469281956357        0.34081224397643
C           -1.56956030138175        3.86570679995274       -0.60961680089285
C           -0.99573497201487        0.32800720916471        1.61013883902192
C            0.19174455703773        0.24894669458112        2.34559499184614
C            1.04448815270018        1.38780719754778        2.42411700128115
N            0.73780822083535        2.55029391031166        1.84233480066513
C           -1.93017186347773       -0.73552046450327        1.79576622662571
C           -1.42386348431554       -1.96322948023137        2.32099452177275
N           -0.21066180677888       -2.07334771450239        2.89265966402425
C            0.53325840221707       -0.96642889658627        3.00915199131722
C            1.72165115175049       -1.00664797734920        3.75518412955901
C            2.54680221920447        0.10604932202532        3.83104500803160
C            2.21879337745498        1.28854415897951        3.18464580703965
C           -3.32993726606117       -0.59717773183051        1.58148778942591
C           -4.12829094151138       -1.72298552667004        1.64067848699829
C           -3.59481727578642       -2.96580244798674        1.99655389704922
C           -2.27243008194906       -3.08495497203877        2.35381903619607
O           -3.82216190158915        0.67021379164011        1.43049703722884
O           -2.59004632946041        0.36531931568190       -0.94443403919083
C           -1.80631251438327        5.15960994950790       -1.28568664443178
C           -4.51737685245307       -4.11678694116274        2.09043771152443
H            0.00265257487709        4.67143147430976        0.57631489715194
H           -2.96829415535162        2.75766006411554       -1.80370786975771
H            2.86708304276081        2.14300755004604        3.27050373977154
H            1.99792246992937       -1.91138169793372        4.27244650354320
H           -1.89911531915161       -4.02331237894336        2.72576528617927
H           -5.18599637570347       -1.67085928432335        1.44672421212349
O           -1.06758905295007        6.10239233369093       -1.13053954227546
O           -2.89580009316759        5.20587784140814       -2.08560991293332
C           -3.01311737860474        6.46683357617197       -2.69891028939091
C            3.77771399729719        0.02084451323997        4.64177524731008
O            3.98318033405898       -0.90085995594827        5.39755512954023
O            4.63716850346015        1.04593574102786        4.47096146883813
C            5.73456726746779        0.93509143503636        5.34228618893760
O           -5.67647277975564       -4.03435794091581        1.75460959082309
O           -3.97683111231116       -5.24413580829396        2.60147385953111
C           -4.93446789165740       -6.27074081771441        2.68695228429148
C           -5.20017836412917        0.77590748710110        1.16250219931383
C           -1.65849746319204       -0.62557301782367       -1.33584614586990
H           -4.46564212192944       -7.15987290525972        3.10564919567786
H           -5.32745450028114       -6.48313079141207        1.68906495628374
H           -5.76017979147148       -5.94262527327830        3.32449966192265
H            6.46110425441395        1.71113987305939        5.10854094042740
H            6.18317115664574       -0.05704477962003        5.24479638072593
H            5.37100944456724        1.05809582280042        6.36166251731298
H           -2.22329940645021       -1.46164591802957       -1.74675977851256
H           -1.06889116509209       -0.98027674695387       -0.48885840530736
H           -0.98667848855399       -0.23063331917707       -2.10361094235227
H           -5.42642187498658        1.83572945457918        1.05063074524149
H           -5.78880847135702        0.37154692835706        1.99082478820203
H           -5.44128865650474        0.25521790437305        0.23268563634040
H           -3.89994945112346        6.47493380026238       -3.33070392341954
H           -2.11911933617308        6.66094019819169       -3.29808053413863
H           -3.08798192568793        7.23901168839724       -1.92832296800955
C           -2.99739019353891        1.61253975597525        4.37305197673842
C           -2.56838418290973        0.66229459869423        5.27845796685324
C           -1.38520853378267        0.90142038706436        6.03464314317596
C           -0.51508398858079        1.95692506195160        5.61533235764053
C           -0.98339478565883        2.88597084153368        4.66877917407246
C           -2.22715504641715        2.74583845629168        4.09728091918872
C           -0.96655535392694        0.13720605108515        7.16763023828185
C            0.39264325530519        0.19906095294490        7.50430376537712
C            1.22066116201578        1.20820424739851        6.93118875043262
N            0.74110961953734        2.11009863720095        6.06847789380994
C           -1.78844653238939       -0.67496701657139        8.00962103525165
C           -1.13040274016986       -1.67217659328913        8.79577615130579
N            0.19853012654511       -1.71453639406338        8.97174120154715
C            0.93122947950828       -0.73090843425792        8.44098893793916
C            2.28412523901092       -0.61965494901684        8.79285841949608
C            3.07279765449618        0.40206711557005        8.28499685223018
C            2.55575398329207        1.30441490980794        7.36359563491813
C           -3.19767292222569       -0.51010275068118        8.15058052816937
C           -3.92003421203225       -1.48552108752833        8.81207522244530
C           -3.28008532000615       -2.56539546402225        9.42989542483813
C           -1.90835919270141       -2.63888394689589        9.45747356195241
O           -3.75799962080482        0.65006528604406        7.68492110190083
O           -3.29847176912096       -0.51731625402366        5.33509456961301
C           -2.67649854320178        3.77808295357923        3.13824478773349
C           -4.11217225531762       -3.57756772446608       10.11415375425379
H           -0.35438618494591        3.71190940424345        4.37832575151087
H           -3.91452898335192        1.45319494686742        3.83273746390757
H            3.17363643617057        2.09920667387334        6.98078968371434
H            2.70893680219064       -1.31599504324395        9.49747813008965
H           -1.42268227058720       -3.42287466506455       10.01179305815002
H           -4.99244393776428       -1.43187976524808        8.89050322738689
O           -1.96679984227381        4.71068381999653        2.84212293871673
O           -3.92144748036667        3.62273225139363        2.63538579893316
C           -4.23452622226989        4.66681315394737        1.74498261430023
C            4.45767907575271        0.50114501633521        8.79897828774341
O            4.88238560919251       -0.27464389059765        9.62112342028269
O            5.20089969692874        1.51998259978342        8.31012708286388
C            6.48187698621277        1.53625758958608        8.89283010837836
O           -5.32003806356595       -3.50996429712872       10.12608544784805
O           -3.42420457115121       -4.57012057178860       10.71896634243245
C           -4.29200472774730       -5.48062689295515       11.34798596372628
C           -5.16582758425976        0.68171897271472        7.64467430477411
C           -2.52068701556577       -1.69233615275545        5.23439901256319
H           -3.70208325396103       -6.26722327857661       11.81614873505992
H           -4.97001949909522       -5.90758772582353       10.60394796750032
H           -4.88599498521692       -4.95460479177668       12.10034455843317
H            7.05977326473397        2.35294276052920        8.46260252394783
H            6.98038877942447        0.58072425799964        8.70795290908022
H            6.37537441538708        1.67204572573826        9.97175814180462
H           -3.14362456623328       -2.46752831063555        4.78859916608767
H           -2.16922916820384       -2.03721638548773        6.20724856660611
H           -1.66241388060204       -1.50554798174299        4.59288168798316
H           -5.45818604500967        1.61448155038356        7.16310240112172
H           -5.58408682036957        0.65460433119504        8.65455739204284
H           -5.53921956347393       -0.15798495674214        7.05325473802994
H           -5.25998663233741        4.54898209951257        1.39736284704572
H           -3.54398786186390        4.63943987693531        0.89818660992140
H           -4.11733895855371        5.62612666822926        2.25699000619122
116
 energy: -213.910121789354 gnorm: 0.017349496137 xtb: 6.7.1 (edcfbbe)
C           -2.26037646308813        2.70410221581588       -0.99899838472601
C           -2.01224463584072        1.49943791946496       -0.38065773598230
C           -1.15731085641603        1.45382718036833        0.74395055204697
C           -0.32286345875606        2.58705225231337        1.01543598846137
C           -0.57882250743616        3.79993922722247        0.34553295446383
C           -1.57148009358535        3.86585626329577       -0.60371090379364
C           -1.00218042283933        0.33211145423744        1.61096144974728
C            0.18722663928952        0.25337874774520        2.34582469821708
C            1.04169750433711        1.39308264943793        2.42296371827614
N            0.72206825465518        2.54328262129563        1.84208977754864
C           -1.94144813246352       -0.72698950029967        1.79776441245313
C           -1.42415316328122       -1.95878571018006        2.31238844758302
N           -0.20765113552323       -2.06432385090061        2.86180409901357
C            0.53223028278791       -0.96583764765403        3.00114212473412
C            1.72181082061741       -1.00931909255541        3.75318478281285
C            2.54238064378924        0.11017788734778        3.82882630651558
C            2.22179610763909        1.29869189094216        3.18549373660196
C           -3.33448179057062       -0.59984983711173        1.57906263936336
C           -4.12707818670941       -1.72618342968412        1.63937637212137
C           -3.58217254415676       -2.97109590651655        1.99374764971040
C           -2.26036026209900       -3.09497812818683        2.34743204020735
O           -3.81955597507217        0.65011117174643        1.41681434925165
O           -2.58329167762153        0.37180718850261       -0.92781925437717
C           -1.78343170015909        5.17010484791180       -1.27319636743902
C           -4.53307471558104       -4.10265187152390        2.07840654069870
H            0.01334446323916        4.66981756734466        0.57886187657354
H           -2.96163869213114        2.74920964038077       -1.81748043728349
H            2.86507717913362        2.15755239824205        3.27029484007748
H            1.99636889406519       -1.91647663204237        4.26877339669025
H           -1.87394660911602       -4.02785687577884        2.72105701864466
H           -5.18634182308818       -1.68804831032233        1.44579163162909
O           -1.05262988966223        6.11648162114570       -1.12863991297291
O           -2.86561469181853        5.21564149520256       -2.06768649872457
C           -3.01929986838689        6.47552414424149       -2.70570473798214
C            3.76625378188218        0.00072929422054        4.65530842402156
O            3.97593246310958       -0.91096634503899        5.41832889770148
O            4.62104013797243        1.01025586844893        4.47802568643225
C            5.75524742398984        0.93421792426397        5.33110050538342
O           -5.69015516046281       -4.02715990456719        1.74264897025694
O           -4.00314992275452       -5.22319090776251        2.58473527868764
C           -4.94170120655257       -6.28334632722214        2.68674476225103
C           -5.19909485912112        0.78009177977306        1.15689703176730
C           -1.65937939059647       -0.61963041546701       -1.33686172458186
H           -4.43183554962600       -7.14671709909945        3.10796712635390
H           -5.34177957844088       -6.51551976301821        1.69613526730727
H           -5.77242970628851       -5.97554819326364        3.32797370423201
H            6.44922672919851        1.72467534177406        5.05432933286595
H            6.22310836119676       -0.04918778286925        5.23931166292702
H            5.42290127322375        1.06415844497099        6.36038609723562
H           -2.24614179376124       -1.44128512807370       -1.74561287557576
H           -1.05621195478515       -0.99634388234695       -0.50614247703975
H           -0.99047317055012       -0.22957489232732       -2.11203227561580
H           -5.39244973515649        1.84647232605785        1.05291551698634
H           -5.79789996506501        0.38384579012114        1.98406047951374
H           -5.46364678623228        0.26628183065408        0.22808580283167
H           -3.91386172272334        6.43756588244154       -3.32299077645500
H           -2.13681989521544        6.68501567852132       -3.31663037305073
H           -3.10322271269193        7.26083792947505       -1.94950825466237
C           -2.99775437189495        1.60589298901888        4.36976148299063
C           -2.56396333256021        0.65962125545245        5.27270881196472
C           -1.39031100313039        0.88993789876056        6.02773792103800
C           -0.51571982900660        1.94964362563125        5.61302057517850
C           -0.97753423046582        2.88632574131506        4.66636241346936
C           -2.22455149166166        2.74586778834909        4.10059823247651
C           -0.96993972847586        0.13822880608335        7.16791126780733
C            0.39066434669346        0.19977593050623        7.50390850267407
C            1.22151668830448        1.20499572561279        6.92426115172682
N            0.73149307958838        2.09837717872879        6.06991319606399
C           -1.79679874701654       -0.66415469572226        8.01433968479348
C           -1.13170214198808       -1.66542597626596        8.79859427342881
N            0.19009928832191       -1.70335501531023        8.96418422489463
C            0.92762033834264       -0.72827645662916        8.44399306514981
C            2.28432470265329       -0.62213755751075        8.79620793559749
C            3.06828596431640        0.40615835832812        8.28660075719869
C            2.56120292136924        1.30974796821376        7.35886364067776
C           -3.20103226543004       -0.51021007775257        8.15617449361632
C           -3.91788846904401       -1.48535206039737        8.81659401754765
C           -3.26836327148377       -2.56931780867620        9.43191423570995
C           -1.89847194905166       -2.64589743340444        9.46292872566586
O           -3.75530674052141        0.63014683652600        7.68402676270497
O           -3.28712222439966       -0.50584245049922        5.33391301631132
C           -2.65236205977080        3.79036089008974        3.14311710998259
C           -4.13070390248103       -3.56521725855626       10.10648773867478
H           -0.34098455480346        3.70775636415342        4.37779564884597
H           -3.91962398904560        1.44985227664136        3.83500308790929
H            3.17162134155379        2.11142791356535        6.97534626254485
H            2.70742429799833       -1.32205190704523        9.49913757547089
H           -1.40008587673037       -3.42363326314561       10.01538357804307
H           -4.99143032807408       -1.44454171496732        8.89906406141353
O           -1.95398373461908        4.72402604527595        2.83490595229010
O           -3.88787811253006        3.63348470106896        2.64487529420822
C           -4.24338978146077        4.67010736162072        1.74042872986172
C            4.44701035819271        0.48257164029833        8.82739060092134
O            4.88360424006036       -0.28999317041181        9.64114030747163
O            5.18130533915754        1.50331614841528        8.35354409159803
C            6.49128801018585        1.54407172186096        8.90418439296217
O           -5.33659999389357       -3.50389285762608       10.12063013799617
O           -3.45400889077501       -4.55158981273207       10.70714034435541
C           -4.29740247799000       -5.49160396054761       11.35445189558631
C           -5.16426746590741        0.68774703784012        7.64190718461311
C           -2.52556793227394       -1.69627317879669        5.25673072565251
H           -3.66796925054802       -6.25509317711124       11.80616111031393
H           -4.97945494481783       -5.93574562251904       10.62414768528835
H           -4.89496724137195       -4.98406401306072       12.11669366610713
H            7.02820302978818        2.37014567575952        8.44228443957399
H            7.00323121186084        0.59727535113272        8.71199599360322
H            6.41871343614186        1.68281602450874        9.98584854328348
H           -3.16388447364248       -2.45132021237554        4.79815486141076
H           -2.19533767993616       -2.05725605201711        6.23333686412357
H           -1.64554327624336       -1.54228167835702        4.63354443011712
H           -5.42288014411679        1.62844963102371        7.15760869180026
H           -5.59390231586305        0.66919808380592        8.64863464713181
H           -5.56000371747360       -0.14501279712856        7.05270157470987
H           -5.27199156593566        4.51228960414731        1.42212716541894
H           -3.56797785942307        4.65386761461052        0.88091673552495
H           -4.13945578337218        5.63958497911068        2.23629752256829
116
 energy: -213.913914444044 gnorm: 0.015722989918 xtb: 6.7.1 (edcfbbe)
C           -2.25036098383750        2.71145394177836       -1.00506913134806
C           -2.00838614283117        1.50650114609516       -0.38236287877264
C           -1.15999121411868        1.45845069779794        0.74671455055481
C           -0.32414673776998        2.59089980490280        1.02205768340638
C           -0.57466556767040        3.80467904502175        0.35033249414290
C           -1.56178349512729        3.87269503783561       -0.60400840600104
C           -1.00509346686135        0.33494160335227        1.61232750999373
C            0.18435174958099        0.25502279103264        2.34780833323948
C            1.03976508458973        1.39443952910176        2.42959220461300
N            0.71766761170619        2.54332196023796        1.84956908410239
C           -1.94545922096213       -0.72549904433316        1.79439688639928
C           -1.42532447144539       -1.96013950580800        2.30068890310191
N           -0.20629922134918       -2.06592513793432        2.84063403203788
C            0.53131715577518       -0.96848125284478        2.99371940985248
C            1.71894943267302       -1.01254809709401        3.75040162598680
C            2.53602796034580        0.10896929429251        3.83647087131947
C            2.22011091154103        1.29936684679201        3.19458931254866
C           -3.33865775533655       -0.60152368764549        1.57303465573300
C           -4.12743122125745       -1.73117031212567        1.63451113748310
C           -3.58023990904255       -2.97649323941102        1.98684843249201
C           -2.25734631364937       -3.10142252438286        2.33527926113388
O           -3.82111930959100        0.64455711259052        1.40335392054948
O           -2.58112790347256        0.37896193754165       -0.92338626879937
C           -1.76523893899684        5.18281031140655       -1.26920944344439
C           -4.54378231462979       -4.10120719002907        2.06289564104200
H            0.02195065970291        4.67025213291505        0.58612494688902
H           -2.94409519311987        2.75367254334692       -1.83024872712180
H            2.85952307682205        2.16141142282658        3.27975325299392
H            1.99277120678580       -1.92151298175725        4.26247790371843
H           -1.85877554664987       -4.03136373525005        2.70396090920332
H           -5.18673291730004       -1.70081875880520        1.44095940636075
O           -1.03432115130420        6.12973712202049       -1.12618386307757