116
 energy: -22.928061455056 gnorm: 0.329736929581 xtb: 6.6.1 (8d0f1dd)
C           -3.31122850772930        0.79849766164622       -0.92477639677520
C           -2.44380812530352       -0.12270372891954       -0.27661132624697
C           -1.41337090092821        0.39579727573559        0.56335275196199
C           -0.89266158675590        1.65801491088749        0.27377586709581
C           -1.72665675402493        2.51431363229076       -0.49448366572522
C           -2.95444148494349        2.13954154133227       -1.01494489940871
C           -0.74098268209890       -0.43411532818871        1.49825021926784
C            0.56872586496315        0.03782116815119        1.86248088067890
C            1.03782416582094        1.29402317993033        1.50887470833621
N            0.31238977034758        2.07067427098208        0.65193736800696
C           -1.29695700510141       -1.39996043042223        2.41574187746061
C           -0.38243517664656       -2.18060797534842        3.13232615520648
N            0.91308504082021       -1.90366887689689        3.30325166013478
C            1.37712470144904       -0.74872102533751        2.81811050966982
C            2.52149331701875       -0.17739833758153        3.39379298866852
C            2.95849061756259        1.02681208890480        2.95105897606587
C            2.24288949469137        1.78498308775960        2.03503020483770
C           -2.74860936222260       -1.74497937691422        2.38401158947411
C           -3.09416315450955       -2.91614440870436        3.00571134491758
C           -2.16786021984049       -3.77788778654213        3.63251872101904
C           -0.85708937311598       -3.40495313382985        3.68547234358092
O           -3.71994433332149       -0.94984598373544        1.67726658385724
O           -2.55702603277562       -1.47241711578389       -0.57241635275616
C           -3.84297843593025        3.13357444054366       -1.60938954875544
C           -2.68769581069131       -5.03867041417370        4.30484659386931
H           -1.39666850744143        3.51251503834900       -0.76806311868865
H           -4.27662633836220        0.55105838579656       -1.33106614114542
H            2.66329581305412        2.73912661909249        1.72562431984580
H            3.05775395548473       -0.69369546277216        4.16536137542516
H           -0.24710966264510       -4.12034095424229        4.22946223699121
H           -4.11477991332403       -3.04712728052358        3.03244694615357
O           -4.21824883374556        4.03433712717988       -0.87713382485991
O           -4.44510595673734        2.90643496899600       -2.81853501752979
C           -5.44216520282800        3.83300025693726       -3.02488532025093
C            4.23586651889298        1.50004220933226        3.59165660008449
O            5.05927614697201        0.66079890002952        3.91714215179376
O            4.47001334453535        2.86385149488593        3.72605651435371
C            5.79457498613219        3.08584475587818        4.15829123132174
O           -3.82227255313510       -5.27347675879771        4.16636005494405
O           -1.85023202017753       -5.79767454267276        5.06656077253571
C           -2.55119635829503       -6.86252441382958        5.62930343183426
C           -5.07197156564436       -1.42399175670916        1.58830531863830
C           -1.33089900128490       -2.23622472573986       -0.99264499351172
H           -2.54510546830388       -7.76426885143998        4.99136022291012
H           -3.57194749219491       -6.44405511486021        5.74196173723541
H           -2.09133598235598       -7.02043774843818        6.64022264233588
H            5.72707967266424        3.46798026205549        5.10135971236643
H            6.34060091246885        3.78468702308830        3.50069950143490
H            6.17933064298187        2.03010500085905        4.19342358084693
H           -0.91862729772622       -2.57650129080332       -0.01361370304871
H           -0.49769766914251       -1.60651221708571       -1.34094446550576
H           -1.52632419730509       -2.94569707152159       -1.75361447637286
H           -5.11788846557077       -2.41810833635233        1.17520213188926
H           -5.67929807973498       -0.69619639428435        1.04301666067831
H           -5.57598832326623       -1.42383358739762        2.57928294206544
H           -6.13050215934830        3.76035386975488       -2.23272855695873
H           -5.86615610071888        3.45938329385866       -4.02668959924245
H           -5.13479557532099        4.87790991548477       -2.98314551356402
C           -1.38192942069774        3.73616555005018        2.91232598411686
C           -1.84821468128685        2.59982427735607        3.49755545445181
C           -1.05946531454833        2.05730632010638        4.60922730982276
C            0.19893954712228        2.69376791964407        4.86302140881997
C            0.50425395911860        3.94630308659851        4.28768785650746
C           -0.26031777722226        4.46998310053134        3.25072669343212
C           -1.20488993561782        0.74454293276906        5.14851520323437
C           -0.06287609782692        0.02744069315890        5.60930570802864
C            1.19208754369866        0.71421540266195        5.78882868583885
N            1.19428660993148        2.06344359410476        5.62744624321596
C           -2.41361422770794        0.07928500213936        5.25249410304426
C           -2.45851584031083       -1.32662100968547        5.60237876023992
N           -1.29466212405906       -1.98318595734370        5.89916817085159
C           -0.14475655767527       -1.32117560077092        5.98824682881008
C            0.97209270935794       -1.98958449505532        6.53157704134458
C            2.21982707914082       -1.36973967291181        6.68703967237737
C            2.30561929262884       -0.09745313075593        6.26436900324455
C           -3.73018485967715        0.71367583494582        5.25810242262992
C           -4.89964478833448       -0.06184623426677        5.21204641615509
C           -4.82617965800088       -1.39228978090841        5.46901303780036
C           -3.67144193418464       -1.98914944386360        5.67265433266067
O           -3.75568638935321        2.07705011038914        5.52067969627343
O           -2.94192434743730        1.91263938797883        3.01658762327703
C            0.21273512614467        5.50086066357994        2.34765104514621
C           -6.06660304520411       -2.17604633098929        5.80641622556876
H            1.41756699010566        4.38133362238595        4.66974005703471
H           -1.82880610647429        4.11982501512100        2.06992133318584
H            3.26888037378556        0.32655662585251        6.31721410015598
H            0.87146188387207       -3.08471526305024        6.57830423410869
H           -3.67716811065157       -3.05999292755990        5.83019634570050
H           -5.77379677507622        0.43595144608221        4.71017130754348
O            1.34459852619901        5.82615848916894        2.44941456579099
O           -0.74718748219123        6.07961784856304        1.59848183464284
C           -0.21473095568964        7.24015934882472        1.05753806029483
C            3.53228080814219       -2.00967610361154        7.02506769044485
O            3.64093082622715       -3.14437803815732        7.50071391725347
O            4.56565258381079       -1.22937033368332        6.69086985080897
C            5.72579357310716       -1.80692399125161        7.22246151275881
O           -7.04801223588612       -1.95726935745904        5.14194115322235
O           -6.01514389321278       -2.93743591896022        6.94765316328794
C           -7.21292732384718       -3.62681918543340        7.15115816329978
C           -4.95459780685163        2.65960679932188        5.86868674392943
C           -3.68284113682406        2.59129188358641        2.05479246020704
H           -7.43119628931628       -4.22607794725959        6.20622607140901
H           -8.06548455146707       -2.91765848248592        7.29781126410398
H           -7.07314693247270       -4.33087306029711        7.91223421050944
H            6.57332189837178       -1.29353136199234        6.78341268688262
H            5.74663761932316       -2.84282155125561        6.88089468184451
H            5.69426191474290       -1.72781984964892        8.29460302186842
H           -4.10481209541493        3.44288266176275        2.60483747673152
H           -4.49244774344916        1.87419893016926        1.82433103764650
H           -3.18901540870812        2.85154642679373        1.06781919454921
H           -5.55414326821421        2.76698137191684        4.93950725322359
H           -4.78658370641210        3.62090640967288        6.25983200635257
H           -5.43485580473958        1.97242995129449        6.65265772412460
H            0.89164886030839        7.38838561720231        1.13776105146914
H           -0.62894889903848        8.04195665205089        1.64837664327952
H           -0.59282546386754        7.45699159724320        0.03719083132488
116
 energy: -22.786649864644 gnorm: 0.442511988313 xtb: 6.6.1 (8d0f1dd)
C           -2.96436473338480       -0.41757915493468       -1.77213901826254
C           -2.33264085171025       -1.11208404379524       -0.72074341285484
C           -1.50425530692481       -0.30493003631851        0.13887494034764
C           -1.04431721241026        0.91214727227271       -0.39824351237675
C           -1.52493682483627        1.45275377468717       -1.58756263568581
C           -2.56374032510829        0.84993373333121       -2.23729815616123
C           -0.89454070977969       -0.91667749934987        1.33936941908291
C            0.40690612500825       -0.42721261500786        1.64297895824772
C            0.73927216367513        0.86209178788686        1.14173519511307
N            0.21566490277009        1.40783338385343        0.01920669062033
C           -1.45291189824181       -1.81102701064990        2.31540160711852
C           -0.45855145873327       -2.66475720181925        2.94257415033818
N            0.86736945169455       -2.25821442302229        3.12783311212855
C            1.25059709998221       -1.08225190619780        2.59900557375699
C            2.44188986097011       -0.49208703832399        3.01042049585223
C            2.79217461674931        0.68249525355334        2.41660193214898
C            1.95806753938618        1.37001683062448        1.56667056520588
C           -2.84913133286772       -2.26102774343661        2.32729084658085
C           -3.26728129937050       -3.52768416323856        2.83638069222537
C           -2.23920336928489       -4.27032633769701        3.54464819631823
C           -0.90193382782548       -3.79369620572934        3.58102185822591
O           -3.66986781109467       -1.22487191024330        1.91044447715725
O           -2.85016600523820       -2.36038310149656       -0.35551763929909
C           -3.40664149298805        1.59400119171247       -3.15851490857219
C           -2.68076128602826       -5.35165615198351        4.44752379833872
H           -1.21295841572057        2.52190538332110       -1.70634110400261
H           -3.68936095016805       -1.09336081441447       -2.27068655766321
H            2.32503199010023        2.37321556585134        1.38255261236189
H            2.99131161569386       -0.80148002694314        3.91881177274522
H           -0.11174032853494       -4.37624578833741        4.06669634630764
H           -4.29328150536679       -3.83515758988527        2.91096129640247
O           -2.79750572507238        2.37874302695385       -3.83964444915785
O           -4.75448056063263        1.48822697585883       -3.23772530748148
C           -5.08969116995192        2.47734226734671       -4.10264020799018
C            4.09089104280665        1.29474134311580        2.89485030275145
O            4.57735003022816        1.11800801063813        3.97954797819251
O            4.74097150333181        1.85230436589075        1.90132523717169
C            5.84051022857292        2.46166491820756        2.17811962407580
O           -3.83633863776575       -5.36571639332692        4.89373895360806
O           -1.75878835796405       -6.35329514539605        4.58065246887365
C           -2.23141224550007       -7.39286554410182        5.43985352370541
C           -4.90102284968039       -1.61470145215741        1.21581723422844
C           -2.20782445540263       -3.46600111566642       -0.95977439397502
H           -3.22954099493168       -7.68713849473131        5.14702707749216
H           -2.20128863884250       -7.21566442246820        6.47879533711300
H           -1.80575784483064       -8.33725718185153        5.02848585353081
H            5.62008491666083        3.51110462327769        2.08814545140880
H            6.64810687118066        2.14067550852482        1.46174515408886
H            6.18965570345614        2.11989871319838        3.18992455406644
H           -2.79372224448989       -4.24318640315215       -0.89005708433770
H           -1.37869138118491       -3.85508568936983       -0.32143048433395
H           -1.98960048494053       -3.14633644561111       -1.98071310512485
H           -5.20696355023505       -2.51088821553470        1.66754260699680
H           -4.54577798802002       -1.64001225814462        0.18310833817685
H           -5.82539692324398       -0.99426727221717        1.27012709748500
H           -4.82002779122755        3.54188364673827       -3.73605633918252
H           -6.18090888855704        2.15325838538065       -4.07014484004201
H           -4.66353111483882        2.34789989469129       -5.15963570733016
C           -1.70100463354226        4.66111785423319        4.25782870259755
C           -1.70838940497095        3.27424406792387        4.30528310438460
C           -0.88486081755832        2.64678638073051        5.22840160970109
C            0.36454370370052        3.26539450316875        5.62095450893669
C            0.42555254908722        4.61689037344693        5.23339381726299
C           -0.58902974712517        5.37722375403751        4.69680363953016
C           -0.97701757185808        1.31339925110354        5.56951337565591
C            0.16359255413579        0.50894756195599        5.76218017864771
C            1.37959540979284        1.14958638027639        5.97759877966899
N            1.47665099170405        2.47301712821196        6.10612834836869
C           -2.30617236893178        0.70020746289616        5.64589569346210
C           -2.33776671435816       -0.67920242369314        5.68976809799153
N           -1.25200405011810       -1.50298862939714        5.80669888593357
C           -0.10129008229750       -0.86355621490083        5.91480735843629
C            1.04706851168747       -1.58138911306445        6.16465826030238
C            2.30037555827978       -0.98670373031095        6.39492262464907
C            2.51693497791787        0.38491569033667        6.36467374237904
C           -3.49198661701981        1.42138069169444        5.90214337902522
C           -4.73147808496444        0.84035592247522        5.79516507715620
C           -4.73468573478555       -0.55239805476782        5.75074589043984
C           -3.58323544334692       -1.30013992698967        5.66642929137706
O           -3.25099924993291        2.61504282992311        6.53921483450675
O           -2.55234263697680        2.46869016993843        3.49055756420883
C           -0.50168993267081        6.82913890361084        4.51368461777728
C           -6.01306632974591       -1.25456966569817        5.67706249686229
H            1.31568005098540        5.23524985869330        5.13863759520447
H           -2.37722085237797        5.22015780652621        3.63491763623083
H            3.41013823389364        0.83874062637416        6.62353272701489
H            0.76014363070091       -2.54984772761003        6.37114648256471
H           -3.76750559665281       -2.37489068193787        5.71851953859616
H           -5.63725377056483        1.49919059949577        5.89647364765832
O            0.61448720796729        7.35473775568074        4.35116363189883
O           -1.65932025740821        7.56641744978818        4.42443046323573
C           -1.25267441380092        8.90976489966134        4.63724417996271
C            3.38630095958037       -1.86179338860378        6.93183027466304
O            3.22541219264472       -2.66377121295845        7.88971276501796
O            4.61711592613966       -1.50853991972944        6.40805428350288
C            5.56059135827824       -1.99015569287987        7.31920073503140
O           -6.89523365531721       -0.93872375119518        6.52872219449543
O           -6.00740081905235       -2.28185321287771        4.80152514116310
C           -7.17473567898777       -3.04776413967209        4.72267375346143
C           -4.32314074886260        3.11488404167260        7.37553052297475
C           -3.14491700335555        3.27614741464239        2.38960458904551
H           -7.69411102364431       -2.76299359806600        3.84888680351586
H           -7.81995292575189       -2.73050323830791        5.64090934224855
H           -6.97861302979250       -4.04382158753482        4.70042327419092
H            5.67548877560153       -3.03768735362576        7.25929317698869
H            5.10810276954647       -1.67499423698841        8.24278832799421
H            6.39275501915121       -1.39694595613780        7.13630353860789
H           -3.71705355442440        4.05872863933063        2.63336084798276
H           -3.64904093751530        2.61898028479358        1.65322514607344
H           -2.36886091226622        3.67062093346583        1.63532145679961
H           -5.30973565087142        2.57413715030398        7.30371268307692
H           -4.45129950401826        4.03576843804885        7.07007358448956
H           -4.05660901238962        3.18409959388302        8.44573376154237
H           -1.94256616910867        9.53218135953739        4.12085462571424
H           -0.24453403040845        9.23844354867566        4.33382566998617
H           -1.41897618405369        9.13901318096754        5.67968023883475
116
 energy: -22.826763215427 gnorm: 0.403062757664 xtb: 6.6.1 (8d0f1dd)
C           -2.75661413793901       -0.89160343321712       -2.08625277263503
C           -2.49385725336038       -1.36757233649373       -0.79265542058713
C           -1.70047120170777       -0.47018165849705       -0.02257539196852
C           -1.20446054083979        0.77140654185266       -0.48334616339502
C           -1.75481039148817        1.33382098566253       -1.63227857053199
C           -2.50138135254445        0.48654790260989       -2.45153092231016
C           -1.14894814448622       -1.00393088564702        1.15959589088602
C            0.10820763819273       -0.53299786388409        1.42486405412746
C            0.52375806613160        0.83865198283906        1.14995626870257
N           -0.30385215772961        1.50426412878338        0.26015282293406
C           -1.66854929201449       -2.08402913497718        1.96812887865935
C           -0.73138464738008       -2.83232750121672        2.71801436117924
N            0.59490354324328       -2.47900221014506        2.82521936252580
C            0.94872605935014       -1.29592594420769        2.29866532585965
C            2.18048325446459       -0.70219241728188        2.76696337756346
C            2.57007512393858        0.60869708341264        2.51648664185730
C            1.68273438425079        1.36886157727177        1.72218585214522
C           -3.08020675522524       -2.21458039693388        2.14339678518613
C           -3.53253613974767       -3.27155165944392        2.85826582600280
C           -2.66385001237347       -4.22737838820520        3.43398620906690
C           -1.28024402724935       -4.00837088374391        3.23426743202849
O           -3.94679995493123       -1.40519832095440        1.36944699422307
O           -2.58323536615686       -2.74881431883723       -0.57494411834459
C           -3.10024694635337        1.03000429405611       -3.66542234765287
C           -3.16987193371830       -5.29540740113235        4.44607392909286
H           -1.29446060652573        2.13266698255978       -2.17109468015056
H           -3.35490838478012       -1.50993087521011       -2.79779475825926
H            2.00593946036293        2.27452133853392        1.23717864368841
H            2.69658882786696       -1.37905184409450        3.45841816385538
H           -0.72204782752479       -4.64140571400665        3.89008978413199
H           -4.59048390652557       -3.29816080870674        2.92583645676233
O           -3.36241450731708        2.22721549214729       -3.79853781710720
O           -3.49951799486830        0.09633633920748       -4.56887631204799
C           -4.31492047179594        0.60115897131991       -5.57057385102688
C            3.97627781370851        1.03075380892015        2.58189453272692
O            4.88612510125128        0.26794475585248        2.87694664702935
O            4.16766778078290        2.28534612625635        2.21130480548196
C            5.44466088240253        2.76720556422060        2.31169066631026
O           -4.21114975688928       -5.91976536537592        4.17091251667277
O           -2.39079542743175       -5.49327262441957        5.49841829999300
C           -2.89010187266181       -6.48106379736545        6.18626045098829
C           -5.24118723237262       -1.02538043595863        1.96161474544032
C           -1.79871478948356       -3.70049453631592       -1.45946156091135
H           -2.48330484600497       -7.45626081756038        5.72787858382722
H           -4.00979617649932       -6.32095440913132        6.09432695159105
H           -2.44875994256481       -6.38673822860901        7.15410474938145
H            5.52535630383273        3.41050544132927        3.15273349056923
H            5.75754303781524        3.28998222540438        1.41420454078655
H            6.12967979269498        1.79042676114890        2.41562791663945
H           -1.51908416077935       -4.37008572890180       -0.70752145645401
H           -0.86452132849896       -3.22256438044900       -1.74801978271135
H           -2.18208311356441       -4.10449441620035       -2.33943089349448
H           -5.12255966993688       -1.59945116931571        2.89546470306688
H           -6.08631631399858       -1.33633130851505        1.22571770698360
H           -5.25887840159623        0.03830396183715        2.23802517557814
H           -5.05444178490708        1.30602051371737       -5.17474610128190
H           -4.83570480397977       -0.07910400468998       -6.11500585558811
H           -3.69215015415978        1.19762677559187       -6.18861469965474
C           -1.49661838183871        5.07412258904452        5.05402254176411
C           -1.64292543052715        3.73994628445139        5.00333286870956
C           -0.77816855875608        2.90308926630739        5.83462955323036
C            0.35242298635349        3.49812985222879        6.42421068536951
C            0.36333144053653        4.92542733291048        6.50207206740984
C           -0.54512535505258        5.71525581917149        5.77545271202676
C           -1.16565335481006        1.57162710563667        6.04926483702894
C           -0.00917166671946        0.80445719409038        6.18384075107259
C            1.20065598262274        1.40889825346989        6.75818425925226
N            1.30245817523533        2.75653505018978        7.01863215909002
C           -2.44357411908262        0.81213600616720        5.90336018686200
C           -2.34591007572252       -0.62117522464728        5.63071032592238
N           -1.20350168966816       -1.28072111100182        5.62961535662760
C           -0.04467347544278       -0.62786201824876        5.89073228639917
C            1.20137621469624       -1.22054206093974        5.92131340065758
C            2.40232041074723       -0.52874015425288        6.17208814880730
C            2.43032223772196        0.74898414399086        6.66507598534998
C           -3.70488558668515        1.56639142217499        5.92779916643442
C           -4.81487803721448        0.82518459950515        5.50377853474948
C           -4.81298192123110       -0.53518528289323        5.41087729065312
C           -3.61673081378759       -1.24744248371966        5.45433660993758
O           -3.90778555362115        2.86436715333441        6.48685915192174
O           -2.38790088210869        3.23636388435152        3.96489870255869
C           -0.40622197059840        7.16352173854723        5.80338953976791
C           -6.03072976465287       -1.49527643303498        5.34915844075733
H            1.15521180185783        5.35667275448265        7.12645590996073
H           -2.25734417605865        5.68392850451088        4.63469282463703
H            3.29602713518714        1.11502364121446        7.19336031938753
H            1.27449557396348       -2.28223727638748        5.78148399463987
H           -3.63552064023424       -2.24247060673885        5.09593664847948
H           -5.76963186873129        1.34594513737658        5.36305105467418
O            0.00041691993477        7.70853307404416        6.77757331529509
O           -1.04498218431782        7.82249942253524        4.74033951935184
C           -0.88070900744269        9.18173040351019        4.84241267587420
C            3.59717381728073       -1.40689743454320        5.91442339464157
O            3.53108427639464       -2.29051820661101        5.07703516847490
O            4.75159763843369       -1.20151426108440        6.66159188013622
C            5.86887516319124       -1.89092059410830        6.14207417283811
O           -7.13539182772650       -1.15048056613733        5.12361335452375
O           -5.82307624954402       -2.81835511155090        5.66845398350200
C           -7.00685184338057       -3.57172671265220        5.36946614774166
C           -3.33874742535351        3.01602426265027        7.78599394211913
C           -1.77360130054889        3.30440749526799        2.67398788592122
H           -6.74911710503354       -4.57271101116520        5.33256559122304
H           -7.55618886421187       -3.26116503072178        4.45957867829919
H           -7.68602139752491       -3.51817467102880        6.14802398756761
H            6.20882639099597       -1.47814644975298        5.32551261850853
H            5.55943808065129       -2.89706359024556        5.74537811284327
H            6.64154455408864       -1.84730374920569        6.88840956864062
H           -0.74017705185854        3.48481657568457        2.90970349072541
H           -2.23742805101412        4.15018302287914        2.07990798976211
H           -1.92771585221109        2.32739336116612        2.25785367347120
H           -4.14313790324874        2.81106475280262        8.56008640659167
H           -2.85093800818421        3.87290345383348        8.05793020082213
H           -2.59528019733412        2.24692712694743        7.88729035596179
H           -0.61226177941028        9.39356110534468        5.88615116567891
H           -1.81515336169076        9.62236993433687        4.77935250496076
H           -0.19171906134339        9.55133040325873        4.06270079535113
116
 energy: -22.836338569216 gnorm: 0.381097095466 xtb: 6.6.1 (8d0f1dd)
C           -2.85968798222260       -0.68010320592732       -2.45302587634208
C           -2.43390389804304       -1.17008666193823       -1.16607836443626
C           -1.87126260091544       -0.29834748984953       -0.15842214952562
C           -1.37156433112484        0.94734960012307       -0.58816665543797
C           -1.69991313811210        1.36249112290233       -1.98338701861572
C           -2.50019056475058        0.60383748071079       -2.77712558856504
C           -1.29992616699928       -0.78370738040871        1.05303567080721
C           -0.10648622318900       -0.27860748615311        1.48232465583803
C            0.25151405144565        1.01155300585614        1.06138400436072
N           -0.48892530360250        1.77291818289586        0.16205883665540
C           -1.89692467347822       -1.79165542494263        1.81560831486015
C           -1.14264316870818       -2.59903084284383        2.65033559206610
N            0.13247949074754       -2.25139962837280        2.83913034999115
C            0.68967421669411       -1.09034244812163        2.37099395761292
C            1.92427375332896       -0.55080095107509        2.76071987863875
C            2.29953156824450        0.75445451713914        2.45539431847690
C            1.45406864969595        1.48945031963587        1.62337726226205
C           -3.31667025756357       -1.99917192641485        1.87038789480895
C           -3.70256153039123       -3.10104880056335        2.60287612504882
C           -2.89039632674594       -3.95197342664533        3.34894355245069
C           -1.53786668237784       -3.79445977859141        3.27212341803848
O           -4.18479852548049       -1.14038193860992        1.17194598800613
O           -2.50813839649145       -2.50980549371113       -0.82157355537477
C           -3.06246004028174        1.11721512669953       -4.02219438356602
C           -3.37286125565940       -5.02597522982193        4.36877407035940
H           -1.45212455092595        2.24664210159513       -2.47103482905587
H           -3.19834523843793       -1.28115754631149       -3.31357848709256
H            1.79304363790050        2.36988928110037        1.12737849020133
H            2.52055535573556       -1.21861121653919        3.34286631334366
H           -0.72347949510471       -4.25745903359314        3.79452681810938
H           -4.80244072788448       -3.21090900660192        2.56202356089394
O           -3.06965356109448        2.27263609502595       -4.43130971363895