      -----------------------------------------------------------      
     |                   =====================                   |     
     |                           x T B                           |     
     |                   =====================                   |     
     |                         S. Grimme                         |     
     |          Mulliken Center for Theoretical Chemistry        |     
     |                    University of Bonn                     |     
      -----------------------------------------------------------      

   * xtb version 6.6.1 (8d0f1dd) compiled by 'runner@Mac-1690902418499.local' on 2023-08-01

   xtb is free software: you can redistribute it and/or modify it under
   the terms of the GNU Lesser General Public License as published by
   the Free Software Foundation, either version 3 of the License, or
   (at your option) any later version.
   
   xtb is distributed in the hope that it will be useful,
   but WITHOUT ANY WARRANTY; without even the implied warranty of
   MERCHANTABILITY or FITNESS FOR A PARTICULAR PURPOSE.  See the
   GNU Lesser General Public License for more details.
   
   Cite this work as:
   * C. Bannwarth, E. Caldeweyher, S. Ehlert, A. Hansen, P. Pracht,
     J. Seibert, S. Spicher, S. Grimme, WIREs Comput. Mol. Sci., 2020, 11,
     e01493. DOI: 10.1002/wcms.1493
   
   for GFN2-xTB:
   * C. Bannwarth, S. Ehlert and S. Grimme., J. Chem. Theory Comput., 2019,
     15, 1652-1671. DOI: 10.1021/acs.jctc.8b01176
   for GFN1-xTB:
   * S. Grimme, C. Bannwarth, P. Shushkov, J. Chem. Theory Comput., 2017,
     13, 1989-2009. DOI: 10.1021/acs.jctc.7b00118
   for GFN0-xTB:
   * P. Pracht, E. Caldeweyher, S. Ehlert, S. Grimme, ChemRxiv, 2019, preprint.
     DOI: 10.26434/chemrxiv.8326202.v1
   for GFN-FF:
   * S. Spicher and S. Grimme, Angew. Chem. Int. Ed., 2020, 59, 15665-15673.
     DOI: 10.1002/anie.202004239
   
   for ALPB and GBSA implicit solvation:
   * S. Ehlert, M. Stahn, S. Spicher, S. Grimme, J. Chem. Theory Comput.,
     2021, 17, 4250-4261. DOI: 10.1021/acs.jctc.1c00471
   
   for DFT-D4:
   * E. Caldeweyher, C. Bannwarth and S. Grimme, J. Chem. Phys., 2017,
     147, 034112. DOI: 10.1063/1.4993215
   * E. Caldeweyher, S. Ehlert, A. Hansen, H. Neugebauer, S. Spicher,
     C. Bannwarth and S. Grimme, J. Chem. Phys., 2019, 150, 154122.
     DOI: 10.1063/1.5090222
   * E. Caldeweyher, J.-M. Mewes, S. Ehlert and S. Grimme, Phys. Chem. Chem. Phys.
     2020, 22, 8499-8512. DOI: 10.1039/D0CP00502A
   
   for sTDA-xTB:
   * S. Grimme and C. Bannwarth, J. Chem. Phys., 2016, 145, 054103.
     DOI: 10.1063/1.4959605
   
   in the mass-spec context:
   * V. Asgeirsson, C. Bauer and S. Grimme, Chem. Sci., 2017, 8, 4879.
     DOI: 10.1039/c7sc00601b
   * J. Koopman and S. Grimme, ACS Omega 2019, 4, 12, 15120-15133.
     DOI: 10.1021/acsomega.9b02011
   
   for metadynamics refer to:
   * S. Grimme, J. Chem. Theory Comput., 2019, 155, 2847-2862
     DOI: 10.1021/acs.jctc.9b00143
   
   for SPH calculations refer to:
   * S. Spicher and S. Grimme, J. Chem. Theory Comput., 2021, 17, 1701-1714
     DOI: 10.1021/acs.jctc.0c01306
   
   with help from (in alphabetical order)
   P. Atkinson, C. Bannwarth, F. Bohle, G. Brandenburg, E. Caldeweyher
   M. Checinski, S. Dohm, S. Ehlert, S. Ehrlich, I. Gerasimov, C. Hölzer
   A. Katbashev, J. Koopman, C. Lavigne, S. Lehtola, F. März, M. Müller,
   F. Musil, H. Neugebauer, J. Pisarek, C. Plett, P. Pracht, F. Pultar,
   J. Seibert, P. Shushkov, S. Spicher, M. Stahn, M. Steiner, T. Strunk,
   J. Stückrath, T. Rose, and J. Unsleber
   
 * started run on 2025/03/14 at 12:41:00.220     

           -------------------------------------------------
          |                Calculation Setup                |
           -------------------------------------------------

          program call               : xtb scoord.19 --md --gfnff --input md_settings.inp
          coordinate file            : scoord.19
          omp threads                :                     8

   ID    Z sym.   atoms
    1    6 C      1-9, 11, 12, 14-21, 24, 25, 34, 35, 38, 41-43, 59-67, 69,
                  70, 72-79, 82, 83, 92, 93, 96, 99-101
    2    7 N      10, 13, 68, 71
    3    8 O      22, 23, 32, 33, 36, 37, 39, 40, 80, 81, 90, 91, 94, 95, 97,
                  98
    4    1 H      26-31, 44-58, 84-89, 102-116

molecular fragmentation (1/2 indicates fragments):
111111111111111111111111111111111111111111111111111111111122222222222222
22222222222222222222222222222222222222222222
# atoms in fragment 1/2:    58    58
 fragment masses (1/2) :      501.47      501.47
CMA distance (Bohr)    :   9.115
constraining FC (au)   :  0.0500

          ==================== Thresholds ====================
          CN  :   150.00000
          rep :   500.00000
          disp:  2500.00000
          HB1 :   250.00000
          HB2 :   450.00000

          Pauling EN used:
          Z : 1  EN :  2.20
          Z : 6  EN :  2.55
          Z : 7  EN :  3.04
          Z : 8  EN :  3.44
          electric field strengths (au): 0.000

           ------------------------------------------------- 
          |           Force Field Initialization            |
           ------------------------------------------------- 

          distances ...
          ----------------------------------------
          generating topology and atomic info file ...
          pair mat ...
          computing topology distances matrix with Floyd-Warshall algo ...
          making topology EEQ charges ...
          #fragments for EEQ constrain: 2
          ----------------------------------------
          generating topology and atomic info file ...
          pair mat ...
          computing topology distances matrix with Floyd-Warshall algo ...
          making topology EEQ charges ...
          rings ...
          # BATM   1140
          # H in HB   42
          doing iterative Hueckel for 2 subsystem(s) ...

  atom   neighbors  erfCN metchar sp-hybrid imet pi  qest     coordinates
    1  C       3    2.80   0.00         2    0    1  -0.013   -8.916027   -3.119327    1.511038
    2  C       3    2.82   0.00         2    0    1   0.104   -6.334201   -3.401200    0.983209
    3  C       3    2.82   0.00         2    0    1   0.014   -4.593001   -1.569862    2.133182
    4  C       3    2.90   0.00         2    0    1   0.068   -5.395419    1.014757    2.579048
    5  C       3    2.82   0.00         2    0    1  -0.010   -8.008264    1.255348    2.842409
    6  C       3    2.80   0.00         2    0    1   0.024   -9.841264   -0.738728    2.475550
    7  C       3    2.81   0.00         2    0    1   0.003   -1.916827   -2.087158    2.239928
    8  C       3    2.83   0.00         2    0    1   0.018   -0.371083    0.270750    2.345465
    9  C       3    2.91   0.00         2    0    1   0.069   -1.572138    2.695895    2.768751
   10  N       2    1.96   0.00         2    0    1  -0.182   -3.989969    3.131251    2.915205
   11  C       3    2.81   0.00         2    0    1   0.014   -0.582734   -4.418805    2.663843
   12  C       3    2.85   0.00         2    0    1   0.068    2.097854   -4.403497    2.517287
   13  N       2    1.96   0.00         2    0    1  -0.182    3.401911   -2.273546    2.202581
   14  C       3    2.84   0.00         2    0    1   0.069    2.237323   -0.010689    2.500360
   15  C       3    2.85   0.00         2    0    1  -0.009    3.610809    2.344708    2.760072
   16  C       3    2.80   0.00         2    0    1   0.024    2.585675    4.679661    2.893321
   17  C       3    2.85   0.00         2    0    1  -0.009    0.050030    4.882598    2.741578
   18  C       3    2.80   0.00         2    0    1   0.104   -1.622191   -6.687074    3.763068
   19  C       3    2.81   0.00         2    0    1  -0.013   -0.130591   -8.848511    3.757273
   20  C       3    2.80   0.00         2    0    1   0.024    2.475628   -8.950948    2.938764
   21  C       3    2.83   0.00         2    0    1  -0.010    3.581806   -6.603885    2.558458
   22  O       2    1.90   0.00         3    0    1  -0.326   -3.975162   -6.350235    5.054224
   23  O       2    1.91   0.00         3    0    1  -0.326   -5.258098   -5.312008   -0.357040
   24  C       3    2.80   0.00         2    0    1   0.224  -12.622218   -0.425703    3.053259
   25  C       3    2.80   0.00         2    0    1   0.224    3.520326  -11.435511    2.536323
   26  H       1    0.97   0.00         0    0    0   0.083   -8.545615    3.056891    3.634437
   27  H       1    0.97   0.00         0    0    0   0.084  -10.240049   -4.681945    1.677661
   28  H       1    0.98   0.00         0    0    0   0.084   -0.837717    6.641172    3.034263
   29  H       1    0.98   0.00         0    0    0   0.084    5.494699    1.786449    2.956588
   30  H       1    0.97   0.00         0    0    0   0.083    5.538147   -6.122020    2.212586
   31  H       1    0.97   0.01         0    0    0   0.084   -0.706674  -10.709344    4.569022
   32  O       1    0.98   0.00         2    0    1  -0.364  -13.731498   -2.436166    3.494273
   33  O       2    1.91   0.00         3    0    1  -0.315  -13.592583    1.825545    2.744861
   34  C       4    3.49   0.00         3    0    0   0.037  -16.341331    2.132614    2.892616
   35  C       3    2.95   0.00         2    0    1   0.223    4.070171    7.179239    2.535710
   36  O       1    0.98   0.00         2    0    1  -0.365    6.273881    7.148944    3.285058
   37  O       2    1.92   0.00         3    0    1  -0.315    2.900456    9.219790    1.700849
   38  C       4    3.60   0.00         3    0    0   0.039    4.470965   11.211415    2.069399
   39  O       1    0.98   0.00         2    0    1  -0.364    2.169974  -13.323345    2.618971
   40  O       2    1.89   0.00         3    0    1  -0.315    6.141331  -11.699476    2.048706
   41  C       4    3.47   0.00         3    0    0   0.037    6.775932  -14.328016    1.131811
   42  C       4    3.48   0.00         3    0    0   0.033   -5.643034   -8.587187    5.184695
   43  C       4    3.47   0.00         3    0    0   0.033   -7.015564   -6.791009   -1.807738
   44  H       1    0.98   0.00         0    0    0   0.079    8.055182  -13.699103   -0.138813
   45  H       1    0.98   0.00         0    0    0   0.079    5.212324  -15.133466    0.218833
   46  H       1    0.96   0.01         0    0    0   0.079    7.362968  -15.200643    3.048863
   47  H       1    0.98   0.00         0    0    0   0.078    6.106793   10.811643    3.177120
   48  H       1    0.97   0.01         0    0    0   0.078    3.471208   12.629640    3.287959
   49  H       1    0.96   0.01         0    0    0   0.078    4.839218   12.166406    0.178401
   50  H       1    0.96   0.01         0    0    0   0.076   -5.868711   -7.378152   -3.546800
   51  H       1    0.96   0.01         0    0    0   0.076   -8.611164   -5.433191   -2.441117
   52  H       1    0.96   0.01         0    0    0   0.076   -8.118973   -8.089384   -0.441920
   53  H       1    0.98   0.00         0    0    0   0.076   -7.487939   -7.976856    4.823630
   54  H       1    0.98   0.00         0    0    0   0.076   -5.530373   -9.656217    6.873339
   55  H       1    0.96   0.01         0    0    0   0.076   -5.208060   -9.463400    3.251332
   56  H       1    0.98   0.00         0    0    0   0.079  -16.929340    3.213787    4.472513
   57  H       1    0.97   0.01         0    0    0   0.079  -17.228159    0.294522    3.297797
   58  H       1    0.97   0.00         0    0    0   0.079  -17.058790    2.793257    1.105223
   59  C       3    2.81   0.00         2    0    1  -0.013    0.923280    8.801636    9.845340
   60  C       3    2.81   0.00         2    0    1   0.104   -0.763483    7.092259    8.767648
   61  C       3    2.83   0.00         2    0    1   0.014   -0.422860    4.425021    9.385506
   62  C       3    2.87   0.00         2    0    1   0.068    2.008054    3.661514   10.125482
   63  C       3    2.85   0.00         2    0    1  -0.010    3.864664    5.465959   10.792350
   64  C       3    2.81   0.00         2    0    1   0.024    3.353722    8.029339   10.602251
   65  C       3    2.83   0.00         2    0    1   0.003   -2.350787    2.467023    9.540499
   66  C       3    2.84   0.00         2    0    1   0.018   -1.437508    0.019937    9.492074
   67  C       3    2.87   0.00         2    0    1   0.069    1.200910   -0.531798    9.529171
   68  N       2    1.98   0.00         2    0    1  -0.182    2.923139    1.430960    9.736226
   69  C       3    2.84   0.00         2    0    1   0.014   -4.907448    2.785520    9.850811
   70  C       3    2.82   0.00         2    0    1   0.068   -6.677246    0.696837    9.554321
   71  N       2    1.93   0.00         2    0    1  -0.182   -5.647544   -1.720359    9.144154
   72  C       3    2.81   0.00         2    0    1   0.069   -3.094864   -2.220972    9.188294
   73  C       3    2.81   0.00         2    0    1  -0.009   -2.073569   -4.725126    9.156856
   74  C       3    2.81   0.00         2    0    1   0.024    0.551555   -5.016971    9.003648
   75  C       3    2.84   0.00         2    0    1  -0.009    2.093361   -2.956087    9.358801
   76  C       3    2.83   0.00         2    0    1   0.104   -5.789566    4.958279   11.075539
   77  C       3    2.85   0.00         2    0    1  -0.013   -8.455299    5.409554   11.050774
   78  C       3    2.81   0.00         2    0    1   0.024  -10.089975    3.680654   10.003706
   79  C       3    2.82   0.00         2    0    1  -0.010   -9.187964    1.369477    9.255657
   80  O       2    1.91   0.00         3    0    1  -0.326   -4.178322    6.530777   12.404215
   81  O       2    1.90   0.00         3    0    1  -0.326   -2.984134    7.685552    7.256182
   82  C       3    2.90   0.00         2    0    1   0.224    5.449652    9.766642   11.269861
   83  C       3    2.86   0.00         2    0    1   0.224  -12.600540    4.851638    9.728737
   84  H       1    0.98   0.00         0    0    0   0.083    5.657038    4.682063   11.169630
   85  H       1    0.98   0.00         0    0    0   0.084    0.481557   10.648799    9.682181
   86  H       1    0.98   0.00         0    0    0   0.084    4.079457   -3.009275    9.347594
   87  H       1    0.98   0.00         0    0    0   0.084   -3.208036   -6.250873    9.566672
   88  H       1    0.97   0.00         0    0    0   0.083  -10.464212   -0.184075    8.898915
   89  H       1    0.97   0.01         0    0    0   0.084   -9.021798    7.371950   11.629695
   90  O       1    0.98   0.00         2    0    1  -0.364    5.257106   11.908273   10.295939
   91  O       2    1.91   0.00         3    0    1  -0.315    7.219174    9.297593   13.011268
   92  C       4    3.54   0.00         3    0    0   0.037    8.881016   11.454144   12.974316
   93  C       3    2.88   0.00         2    0    1   0.223    1.678843   -7.442593    9.409217
   94  O       1    0.98   0.00         2    0    1  -0.365    0.456159   -9.375578    9.182225
   95  O       2    1.92   0.00         3    0    1  -0.315    4.144337   -7.318553   10.014073
   96  C       4    3.52   0.00         3    0    0   0.039    5.382347   -9.550263    9.645902
   97  O       1    0.98   0.00         2    0    1  -0.364  -12.704434    7.220473    9.693085
   98  O       2    1.91   0.00         3    0    1  -0.315  -14.696755    3.249527   10.103939
   99  C       4    3.52   0.00         3    0    0   0.037  -16.849034    4.715017   10.694372
  100  C       4    3.47   0.00         3    0    0   0.033   -5.049021    7.301391   14.879519
  101  C       4    3.49   0.00         3    0    0   0.033   -4.253087    9.916925    8.232126
  102  H       1    0.97   0.01         0    0    0   0.079  -16.951176    6.797940   10.427805
  103  H       1    0.97   0.00         0    0    0   0.079  -17.156739    4.323184   12.665252
  104  H       1    0.98   0.00         0    0    0   0.079  -18.288423    3.782273    9.655502
  105  H       1    0.97   0.00         0    0    0   0.078    7.357746   -9.013550    9.446819
  106  H       1    0.97   0.00         0    0    0   0.078    4.912654  -10.397886    7.822402
  107  H       1    0.95   0.02         0    0    0   0.078    5.600250  -11.151497   11.157529
  108  H       1    0.96   0.01         0    0    0   0.076   -3.370014   10.739291   10.029117
  109  H       1    0.98   0.00         0    0    0   0.076   -6.163039    9.625438    8.552607
  110  H       1    0.98   0.00         0    0    0   0.076   -3.826425   11.068928    6.717281
  111  H       1    0.97   0.01         0    0    0   0.076   -6.346193    8.942386   14.623658
  112  H       1    0.95   0.02         0    0    0   0.076   -3.488781    7.392809   16.471669
  113  H       1    0.98   0.00         0    0    0   0.076   -6.224227    5.885411   15.618788
  114  H       1    0.95   0.02         0    0    0   0.079   10.172504   11.625822   11.159799
  115  H       1    0.97   0.00         0    0    0   0.079   10.200653   11.337289   14.515891
  116  H       1    0.98   0.00         0    0    0   0.079    7.897408   13.224021   13.135253

          #atoms :   116
          #bonds :   124
          #angl  :   206
          #tors  :   302
          #nmol  :   2
          #optfrag :   2
           ------------------------------------------------- 
          |                   G F N - F F                   |
          |          A general generic force-field          |
          |                  Version 1.0.3                  | 
           ------------------------------------------------- 
          Number of HB bonds (bound hydrogen)     17480
          Number of HB bonds (unbound hydrogen)   513
          Number of XB bonds                      0

 E+G (total)                   0 d,  0 h,  0 min,  0.002 sec
 distance/D3 list               ...        0 min,  0.000 sec (  0.458%)
 non bonded repulsion           ...        0 min,  0.000 sec (  3.929%)
 dCN                            ...        0 min,  0.000 sec (  5.157%)
 EEQ energy and q               ...        0 min,  0.000 sec ( 11.006%)
 D3                             ...        0 min,  0.000 sec ( 18.261%)
 EEQ gradient                   ...        0 min,  0.000 sec (  3.270%)
 bonds                          ...        0 min,  0.000 sec (  5.246%)
 bend and torsion               ...        0 min,  0.000 sec (  4.398%)
 bonded ATM                     ...        0 min,  0.000 sec (  2.534%)
 HB/XB (incl list setup)        ...        0 min,  0.001 sec ( 45.373%)

         :::::::::::::::::::::::::::::::::::::::::::::::::::::
         ::                     SUMMARY                     ::
         :::::::::::::::::::::::::::::::::::::::::::::::::::::
         :: total energy             -22.808028613867 Eh    ::
         :: gradient norm              0.437801256228 Eh/a0 ::
         ::.................................................::
         :: bond energy              -23.497991321009 Eh    ::
         :: angle energy               0.139337261488 Eh    ::
         :: torsion energy             0.092318076754 Eh    ::
         :: repulsion energy           1.578415138314 Eh    ::
         :: electrostat energy        -0.937928428444 Eh    ::
         :: dispersion energy         -0.149964134447 Eh    ::
         :: HB energy                 -0.004674074357 Eh    ::
         :: XB energy                  0.000000000000 Eh    ::
         :: bonded atm energy         -0.027541132166 Eh    ::
         :: external energy            0.000000000000 Eh    ::
         :: add. restraining           0.000000000000 Eh    ::
         :: total charge               0.000000000000 e     ::
         :::::::::::::::::::::::::::::::::::::::::::::::::::::

           -------------------------------------------------
          |                Property Printout                |
           -------------------------------------------------

           -------------------------------------------------
          | TOTAL ENERGY              -22.808028613867 Eh   |
          | GRADIENT NORM               0.437801256228 Eh/α |
           -------------------------------------------------
           ------------------------------------------------- 
          |               Molecular Dynamics                |
           ------------------------------------------------- 
 trajectories on xtb.trj or xtb.trj.<n>

 MD time /ps        :   20.00
 dt /fs             :    2.00
 SCC accuracy       :    2.00
 temperature /K     :  600.00
 max steps          : 10000
 block length (av.) :  2500
 dumpstep(trj) /fs  :  500.00   250
 dumpstep(coords)/fs: 1000.00   500
 H atoms mass (amu) :     4
 # deg. of freedom  :   348
 SHAKE off
 Berendsen THERMOSTAT on
         time (ps)    <Epot>      Ekin   <T>   T     Etot
      0    0.00      0.00000   0.6897    0.    0.   -22.11830
est. speed in wall clock h for 100 ps :  0.02
    200    0.40    -22.52289   0.4140  847.  751.   -22.22112
    400    0.80    -22.59670   0.4194  800.  761.   -22.30402
    600    1.20    -22.63144   0.3944  769.  716.   -22.33355
    800    1.60    -22.65405   0.3635  745.  660.   -22.37063
   1000    2.00    -22.66930   0.3638  724.  660.   -22.38976
   1200    2.40    -22.68169   0.3626  709.  658.   -22.39866
   1400    2.80    -22.69119   0.3639  696.  660.   -22.40736
   1600    3.20    -22.69850   0.3513  685.  638.   -22.39720
   1800    3.60    -22.70403   0.3456  676.  627.   -22.41915
   2000    4.00    -22.70888   0.3305  670.  600.   -22.41964
   2200    4.40    -22.71317   0.3562  664.  646.   -22.39704
   2400    4.80    -22.71665   0.3400  659.  617.   -22.41845
block <Epot> / <T> :     -22.72714  656.     drift:  0.99D+02   Tbath : 600.
   2600    5.20    -22.71921   0.3069  654.  557.   -22.42994
   2800    5.60    -22.72167   0.3263  650.  592.   -22.41386
   3000    6.00    -22.72330   0.3427  646.  622.   -22.42575
   3200    6.40    -22.72511   0.3426  644.  622.   -22.44387
   3400    6.80    -22.72701   0.3412  642.  619.   -22.41475
   3600    7.20    -22.72899   0.3298  640.  598.   -22.42102
   3800    7.60    -22.73083   0.3009  638.  546.   -22.42839
   4000    8.00    -22.73228   0.3397  636.  616.   -22.44110
   4200    8.40    -22.73340   0.3195  634.  580.   -22.42856
   4400    8.80    -22.73464   0.3217  633.  584.   -22.43218
   4600    9.20    -22.73565   0.3169  631.  575.   -22.40866
   4800    9.60    -22.73636   0.3229  629.  586.   -22.41939
   5000   10.00    -22.73676   0.3199  628.  581.   -22.41950
block <Epot> / <T> :     -22.75549  599.     drift:  0.99D+02   Tbath : 600.
   5200   10.40    -22.73742   0.3328  627.  604.   -22.42676
   5400   10.80    -22.73816   0.3469  626.  630.   -22.41275
   5600   11.20    -22.73899   0.3016  626.  547.   -22.44055
   5800   11.60    -22.73965   0.3469  625.  630.   -22.38718
   6000   12.00    -22.74019   0.3237  624.  587.   -22.44126
   6200   12.40    -22.74063   0.3444  623.  625.   -22.44256
   6400   12.80    -22.74102   0.3447  622.  626.   -22.41133
   6600   13.20    -22.74163   0.3204  622.  581.   -22.43903
   6800   13.60    -22.74220   0.3182  621.  577.   -22.41567
   7000   14.00    -22.74244   0.3209  620.  582.   -22.45131
   7200   14.40    -22.74248   0.3228  619.  586.   -22.43588
   7400   14.80    -22.74275   0.3656  619.  664.   -22.41441
block <Epot> / <T> :     -22.75552  601.     drift:  0.99D+02   Tbath : 600.
   7600   15.20    -22.74322   0.3351  619.  608.   -22.41457
   7800   15.60    -22.74344   0.2970  618.  539.   -22.41624
   8000   16.00    -22.74370   0.3402  618.  617.   -22.41565
   8200   16.40    -22.74402   0.3178  617.  577.   -22.42075
   8400   16.80    -22.74428   0.3161  617.  574.   -22.43051
   8600   17.20    -22.74450   0.3271  616.  594.   -22.41974
   8800   17.60    -22.74475   0.3501  616.  635.   -22.40593
   9000   18.00    -22.74497   0.3509  616.  637.   -22.41119
   9200   18.40    -22.74512   0.3411  615.  619.   -22.44948
   9400   18.80    -22.74520   0.3310  615.  601.   -22.43524
   9600   19.20    -22.74532   0.3283  615.  596.   -22.42607
   9800   19.60    -22.74538   0.3214  614.  583.   -22.42970
 average properties 
 Epot               :  -22.745610409425609     
 Epot (accurate SCC):  -22.747848224514389     
 Ekin               :  0.33837354752193205     
 Etot               :  -22.407236861903677     
 T                  :   614.08055215142861     
 thermostating problem
 normal exit of md()
########################################################################
[WARNING] Runtime exception occurred
-1- gfnff_setup: Could not read topology file.
########################################################################
Note: The following floating-point exceptions are signalling: IEEE_UNDERFLOW_FLAG
normal termination of xtb

------------------------------------------------------------------------
 * finished run on 2025/03/14 at 12:41:16.600     
------------------------------------------------------------------------
 total:
 * wall-time:     0 d,  0 h,  0 min, 16.379 sec
 *  cpu-time:     0 d,  0 h,  0 min, 31.705 sec
 * ratio c/w:     1.936 speedup
 SCF:
 * wall-time:     0 d,  0 h,  0 min,  0.003 sec
 *  cpu-time:     0 d,  0 h,  0 min,  0.005 sec
 * ratio c/w:     1.714 speedup
 MD:
 * wall-time:     0 d,  0 h,  0 min, 16.360 sec
 *  cpu-time:     0 d,  0 h,  0 min, 31.690 sec
 * ratio c/w:     1.937 speedup

