Optimization of monomers started
      -----------------------------------------------------------      
     |                   =====================                   |     
     |                           x T B                           |     
     |                   =====================                   |     
     |                         S. Grimme                         |     
     |          Mulliken Center for Theoretical Chemistry        |     
     |                    University of Bonn                     |     
      -----------------------------------------------------------      

   * xtb version 6.7.1 (edcfbbe) compiled by 'runner@Mac-1732539442253.local' on 2024-11-25

   xtb is free software: you can redistribute it and/or modify it under
   the terms of the GNU Lesser General Public License as published by
   the Free Software Foundation, either version 3 of the License, or
   (at your option) any later version.
   
   xtb is distributed in the hope that it will be useful,
   but WITHOUT ANY WARRANTY; without even the implied warranty of
   MERCHANTABILITY or FITNESS FOR A PARTICULAR PURPOSE.  See the
   GNU Lesser General Public License for more details.
   
   Cite this work as:
   * C. Bannwarth, E. Caldeweyher, S. Ehlert, A. Hansen, P. Pracht,
     J. Seibert, S. Spicher, S. Grimme, WIREs Comput. Mol. Sci., 2020, 11,
     e01493. DOI: 10.1002/wcms.1493
   
   for GFN2-xTB:
   * C. Bannwarth, S. Ehlert and S. Grimme., J. Chem. Theory Comput., 2019,
     15, 1652-1671. DOI: 10.1021/acs.jctc.8b01176
   for GFN1-xTB:
   * S. Grimme, C. Bannwarth, P. Shushkov, J. Chem. Theory Comput., 2017,
     13, 1989-2009. DOI: 10.1021/acs.jctc.7b00118
   for GFN0-xTB:
   * P. Pracht, E. Caldeweyher, S. Ehlert, S. Grimme, ChemRxiv, 2019, preprint.
     DOI: 10.26434/chemrxiv.8326202.v1
   for GFN-FF:
   * S. Spicher and S. Grimme, Angew. Chem. Int. Ed., 2020, 59, 15665-15673.
     DOI: 10.1002/anie.202004239
   
   for ALPB and GBSA implicit solvation:
   * S. Ehlert, M. Stahn, S. Spicher, S. Grimme, J. Chem. Theory Comput.,
     2021, 17, 4250-4261. DOI: 10.1021/acs.jctc.1c00471
   
   for ddCOSMO and CPCM-X implicit solvation:
   * M. Stahn, S. Ehlert, S. Grimme, J. Phys. Chem. A,
     2023, XX, XXXX-XXXX. DOI: 10.1021/acs.jpca.3c04382
   
   for DFT-D4:
   * E. Caldeweyher, C. Bannwarth and S. Grimme, J. Chem. Phys., 2017,
     147, 034112. DOI: 10.1063/1.4993215
   * E. Caldeweyher, S. Ehlert, A. Hansen, H. Neugebauer, S. Spicher,
     C. Bannwarth and S. Grimme, J. Chem. Phys., 2019, 150, 154122.
     DOI: 10.1063/1.5090222
   * E. Caldeweyher, J.-M. Mewes, S. Ehlert and S. Grimme, Phys. Chem. Chem. Phys.
     2020, 22, 8499-8512. DOI: 10.1039/D0CP00502A
   
   for sTDA-xTB:
   * S. Grimme and C. Bannwarth, J. Chem. Phys., 2016, 145, 054103.
     DOI: 10.1063/1.4959605
   
   in the mass-spec context:
   * V. Asgeirsson, C. Bauer and S. Grimme, Chem. Sci., 2017, 8, 4879.
     DOI: 10.1039/c7sc00601b
   * J. Koopman and S. Grimme, ACS Omega 2019, 4, 12, 15120-15133.
     DOI: 10.1021/acsomega.9b02011
   
   for metadynamics refer to:
   * S. Grimme, J. Chem. Theory Comput., 2019, 155, 2847-2862
     DOI: 10.1021/acs.jctc.9b00143
   
   for SPH calculations refer to:
   * S. Spicher and S. Grimme, J. Chem. Theory Comput., 2021, 17, 1701-1714
     DOI: 10.1021/acs.jctc.0c01306
   
   for ONIOM refer to:
   * C. Plett, A. Katbashev, S. Ehlert, S. Grimme, M. Bursch,
     Phys. Chem. Chem. Phys., 2023, 25, 17860-17868. DOI: 10.1039/D3CP02178E
   
   for DIPRO refer to:
   * J. Kohn, N. Gildemeister, S. Grimme, D. Fazzi, A. Hansen,
     J. Chem. Phys., 2023, just accepted.
   
   for PTB refer to:
   * S. Grimme, M. Mueller, A. Hansen, J. Chem. Phys., 2023, 158, 124111.
     DOI: 10.1063/5.0137838
   
   with help from (in alphabetical order)
   P. Atkinson, C. Bannwarth, F. Bohle, G. Brandenburg, E. Caldeweyher
   M. Checinski, S. Dohm, S. Ehlert, S. Ehrlich, I. Gerasimov, C. Hölzer
   A. Katbashev, J. Kohn, J. Koopman, C. Lavigne, S. Lehtola, F. März, M. Müller,
   F. Musil, H. Neugebauer, J. Pisarek, C. Plett, P. Pracht, F. Pultar,
   J. Seibert, P. Shushkov, S. Spicher, M. Stahn, M. Steiner, T. Strunk,
   J. Stückrath, T. Rose, and J. Unsleber
   
 * started run on 2025/03/13 at 11:44:08.729     
   ID    Z sym.   atoms
    1    6 C      1-9, 11, 12, 14-21, 24-32, 34, 35, 37-44
    2    7 N      10, 13, 33, 36
    3    8 O      22, 23, 45, 46
    4    5 B      47
    5   16 S      48, 54, 60, 66, 72, 78
    6    9 F      49-53, 55-59, 61-65, 67-71, 73-77, 79-83
    7    1 H      84-95

           -------------------------------------------------
          |                Calculation Setup                |
           -------------------------------------------------

          program call               : xtb Base1SF5.mol --opt tight --cycles 500 --chrg 0 --uhf 1 gfn 2
          coordinate file            : Base1SF5.mol
          omp threads                :                     8


molecular fragmentation (1/2 indicates fragments):
111111111111111111111111111111111111111111111111111111111111111111111111
11111111111111111111211
# atoms in fragment 1/2:    94     1
 fragment masses (1/2) :     1360.67        1.01
CMA distance (Bohr)    :  12.422
constraining FC (au)   :  0.0500

           -------------------------------------------------
          |                 G F N 2 - x T B                 |
           -------------------------------------------------

        Reference                      10.1021/acs.jctc.8b01176
      * Hamiltonian:
        H0-scaling (s, p, d)           1.850000    2.230000    2.230000
        zeta-weighting                 0.500000
      * Dispersion:
        s8                             2.700000
        a1                             0.520000
        a2                             5.000000
        s9                             5.000000
      * Repulsion:
        kExp                           1.500000    1.000000
        rExp                           1.000000
      * Coulomb:
        alpha                          2.000000
        third order                    shell-resolved
        anisotropic                    true
        a3                             3.000000
        a5                             4.000000
        cn-shift                       1.200000
        cn-exp                         4.000000
        max-rad                        5.000000


          ...................................................
          :                      SETUP                      :
          :.................................................:
          :  # basis functions                 380          :
          :  # atomic orbitals                 374          :
          :  # shells                          184          :
          :  # electrons                       457          :
          :  max. iterations                   250          :
          :  Hamiltonian                  GFN2-xTB          :
          :  restarted?                      false          :
          :  GBSA solvation                  false          :
          :  PC potential                    false          :
          :  electronic temp.          300.0000000     K    :
          :  accuracy                    1.0000000          :
          :  -> integral cutoff          0.2500000E+02      :
          :  -> integral neglect         0.1000000E-07      :
          :  -> SCF convergence          0.1000000E-05 Eh   :
          :  -> wf. convergence          0.1000000E-03 e    :
          :  Broyden damping             0.4000000          :
          :  net charge                          0          :
          :  unpaired electrons                  1          :
          ...................................................

 iter      E             dE          RMSdq      gap      omega  full diag
   1   -279.3837105 -0.279384E+03  0.753E+00    0.04       0.0  T
   2   -279.2018695  0.181841E+00  0.451E+00    0.15       1.0  T
   3   -262.6518667  0.165500E+02  0.620E+00    0.15       1.0  T
   4   -262.1508577  0.501009E+00  0.577E+00    0.14       1.0  T
   5   -279.4289578 -0.172781E+02  0.229E+00    0.24       1.0  T
   6   -279.8175086 -0.388551E+00  0.136E+00    0.18       1.0  T
   7   -279.8416977 -0.241892E-01  0.108E+00    0.06       1.0  T
   8   -279.9167766 -0.750789E-01  0.737E-01    0.12       1.0  T
   9   -279.9650843 -0.483076E-01  0.522E-01    0.01       1.0  T
  10   -279.9341034  0.309808E-01  0.487E-01    0.03       1.0  T
  11   -279.9302458  0.385763E-02  0.609E-01    0.08       1.0  T
  12   -279.9149767  0.152692E-01  0.590E-01    0.11       1.0  T
  13   -279.9722785 -0.573018E-01  0.309E-01    0.04       1.0  T
  14   -279.9540932  0.181853E-01  0.338E-01    0.07       1.0  T
  15   -279.9556451 -0.155182E-02  0.314E-01    0.04       1.0  T
  16   -279.9845488 -0.289038E-01  0.688E-02    0.01       1.0  T
  17   -279.9848011 -0.252257E-03  0.626E-02    0.01       1.0  T
  18   -279.9847036  0.974831E-04  0.459E-02    0.00       1.0  T
  19   -279.9850862 -0.382599E-03  0.170E-02    0.01       1.0  T
  20   -279.9850976 -0.114385E-04  0.102E-02    0.01       1.0  T
  21   -279.9851059 -0.829103E-05  0.680E-03    0.01       1.5  T
  22   -279.9851148 -0.889859E-05  0.330E-03    0.01       3.1  T
  23   -279.9851098  0.499483E-05  0.494E-03    0.01       2.1  T
  24   -279.9851166 -0.671921E-05  0.776E-04    0.01      13.2  T
  25   -279.9851166 -0.266990E-07  0.392E-04    0.01      26.2  T
  26   -279.9851166 -0.176385E-07  0.196E-04    0.01      52.3  T

   *** convergence criteria satisfied after 26 iterations ***

         #    Occupation            Energy/Eh            Energy/eV
      -------------------------------------------------------------
         1        2.0000           -0.9059514             -24.6522
       ...           ...                  ...                  ...
       223        2.0000           -0.4723000             -12.8519
       224        2.0000           -0.4668797             -12.7044
       225        2.0000           -0.4613420             -12.5538
       226        1.9981           -0.4561883             -12.4135
       227        1.9765           -0.4537946             -12.3484
       228        1.8886           -0.4522385             -12.3060
       229        0.6187           -0.4477820             -12.1848 (HOMO)
       230        0.5181           -0.4474725             -12.1763 (LUMO)
       231                         -0.3900825             -10.6147
       232                         -0.3889302             -10.5833
       233                         -0.3845813             -10.4650
       234                         -0.3830192             -10.4225
       ...                                ...                  ...
       374                          0.8228514              22.3909
      -------------------------------------------------------------
                  HL-Gap            0.0003095 Eh            0.0084 eV
             Fermi-level           -0.4488999 Eh          -12.2152 eV

 SCC (total)                   0 d,  0 h,  0 min,  2.764 sec
 SCC setup                      ...        0 min,  0.001 sec (  0.032%)
 Dispersion                     ...        0 min,  0.001 sec (  0.031%)
 classical contributions        ...        0 min,  0.000 sec (  0.010%)
 integral evaluation            ...        0 min,  0.008 sec (  0.304%)
 iterations                     ...        0 min,  2.705 sec ( 97.894%)
 molecular gradient             ...        0 min,  0.031 sec (  1.124%)
 printout                       ...        0 min,  0.017 sec (  0.606%)

         :::::::::::::::::::::::::::::::::::::::::::::::::::::
         ::                     SUMMARY                     ::
         :::::::::::::::::::::::::::::::::::::::::::::::::::::
         :: total energy            -278.291584403205 Eh    ::
         :: gradient norm              0.490570018564 Eh/a0 ::
         :: HOMO-LUMO gap              0.008422268376 eV    ::
         ::.................................................::
         :: SCC energy              -279.983971367885 Eh    ::
         :: -> isotropic ES            0.155481412485 Eh    ::
         :: -> anisotropic ES         -0.101540198747 Eh    ::
         :: -> anisotropic XC          0.012177451495 Eh    ::
         :: -> dispersion             -0.162701636796 Eh    ::
         :: repulsion energy           1.692386964680 Eh    ::
         :: add. restraining           0.000000000000 Eh    ::
         :: total charge               0.000000000000 e     ::
         :::::::::::::::::::::::::::::::::::::::::::::::::::::

      ----------------------------------------------------------- 
     |                   =====================                   |
     |                        A N C O P T                        |
     |                   =====================                   |
     |               Approximate Normal Coordinate               |
     |                Rational Function Optimizer                |
      ----------------------------------------------------------- 
      ----------------------------------------------------------- 
     |                   =====================                   |
     |                        A N C O P T                        |
     |                   =====================                   |
     |               Approximate Normal Coordinate               |
     |                Rational Function Optimizer                |
      ----------------------------------------------------------- 

          ...................................................
          :                      SETUP                      :
          :.................................................:
          :   optimization level             tight          :
          :   max. optcycles                   500          :
          :   ANC micro-cycles                  20          :
          :   degrees of freedom               279          :
          :.................................................:
          :   RF solver                   davidson          :
          :   write xtbopt.log                true          :
          :   linear?                        false          :
          :   energy convergence         0.1000000E-05 Eh   :
          :   grad. convergence          0.8000000E-03 Eh/α :
          :   maxmium RF displ.          1.0000000          :
          :   Hlow (freq-cutoff)         0.1000000E-01      :
          :   Hmax (freq-cutoff)         5.0000000          :
          :   S6 in model hess.         20.0000000          :
          ...................................................

generating ANC from exact Hessian ...
Using Lindh-Hessian (1995)
 Shifting diagonal of input Hessian by    1.1024336905352119E-002
 Lowest  eigenvalues of input Hessian
    0.010000    0.010682    0.000000    0.000000    0.000000    0.000000
    0.000000    0.000000    0.011081    0.011121    0.011250    0.011500
    0.011594    0.011737    0.011820    0.011943    0.012226    0.012580
 Highest eigenvalues
    1.997650    2.025387    2.053347    2.079145    2.136791    2.181026


........................................................................
.............................. CYCLE    1 ..............................
........................................................................

 iter      E             dE          RMSdq      gap      omega  full diag
   1   -279.9851166 -0.279985E+03  0.791E-05    0.01       0.0  T
   2   -279.9851165  0.645584E-07  0.440E-04    0.01      23.3  T
   3   -279.9851166 -0.632052E-07  0.120E-04    0.01      85.4  T
     SCC iter.                  ...        0 min,  0.227 sec
     gradient                   ...        0 min,  0.034 sec
 * total energy  :  -278.2915844 Eh     change       -0.5911716E-08 Eh
   gradient norm :     0.4905708 Eh/α   predicted     0.0000000E+00 (-100.00%)
   displ. norm   :     0.6175961 α      lambda       -0.2450933E+00
   maximum displ.:     0.1519695 α      in ANC's #149, #144, #182, ...

........................................................................
.............................. CYCLE    2 ..............................
........................................................................

 iter      E             dE          RMSdq      gap      omega  full diag
   1   -280.1902809 -0.280190E+03  0.395E-01    0.01       0.0  T
   2   -279.8457760  0.344505E+00  0.105E+00    0.19       1.0  T
   3   -279.8719802 -0.262042E-01  0.102E+00    0.19       1.0  T
   4   -280.1820336 -0.310053E+00  0.327E-01    0.03       1.0  T
   5   -280.1885174 -0.648371E-02  0.192E-01    0.02       1.0  T
   6   -280.1904304 -0.191302E-02  0.185E-01    0.01       1.0  T
   7   -280.1922766 -0.184621E-02  0.141E-01    0.01       1.0  T
   8   -280.1915168  0.759831E-03  0.140E-01    0.02       1.0  T
   9   -280.1917664 -0.249683E-03  0.124E-01    0.02       1.0  T
  10   -280.1927770 -0.101051E-02  0.826E-02    0.01       1.0  T
  11   -280.1933565 -0.579510E-03  0.690E-02    0.00       1.0  T
  12   -280.1933945 -0.380657E-04  0.661E-02    0.00       1.0  T
  13   -280.1934796 -0.850585E-04  0.558E-02    0.00       1.0  T
  14   -280.1935947 -0.115133E-03  0.315E-02    0.00       1.0  T
  15   -280.1937044 -0.109685E-03  0.124E-02    0.00       1.0  T
  16   -280.1937089 -0.444339E-05  0.625E-03    0.00       1.6  T
  17   -280.1937136 -0.477401E-05  0.462E-03    0.00       2.2  T
  18   -280.1937164 -0.277340E-05  0.175E-03    0.00       5.9  T
  19   -280.1937168 -0.383446E-06  0.410E-04    0.00      25.0  T
  20   -280.1937168 -0.338014E-07  0.333E-04    0.00      30.8  T
     SCC iter.                  ...        0 min,  1.806 sec
     gradient                   ...        0 min,  0.033 sec
 * total energy  :  -278.4964030 Eh     change       -0.2048186E+00 Eh
   gradient norm :     0.3102646 Eh/α   predicted    -0.1693374E+00 ( -17.32%)
   displ. norm   :     0.7262282 α      lambda       -0.1961075E+00
   maximum displ.:     0.1736095 α      in ANC's #149, #100, #144, ...

........................................................................
.............................. CYCLE    3 ..............................
........................................................................

 iter      E             dE          RMSdq      gap      omega  full diag
   1   -280.3980135 -0.280398E+03  0.490E-01    0.03       0.0  T
   2   -280.0001060  0.397908E+00  0.117E+00    0.21       1.0  T
   3   -280.1319183 -0.131812E+00  0.953E-01    0.25       1.0  T
   4   -280.3836180 -0.251700E+00  0.419E-01    0.06       1.0  T
   5   -280.3948050 -0.111870E-01  0.243E-01    0.04       1.0  T
   6   -280.4024779 -0.767294E-02  0.190E-01    0.00       1.0  T
   7   -280.4040178 -0.153984E-02  0.150E-01    0.01       1.0  T
   8   -280.4036348  0.382945E-03  0.144E-01    0.02       1.0  T
   9   -280.4046628 -0.102792E-02  0.119E-01    0.01       1.0  T
  10   -280.4056233 -0.960557E-03  0.677E-02    0.00       1.0  T
  11   -280.4059580 -0.334731E-03  0.337E-02    0.00       1.0  T
  12   -280.4060016 -0.435786E-04  0.200E-02    0.00       1.0  T
  13   -280.4059625  0.391635E-04  0.185E-02    0.00       1.0  T
  14   -280.4060355 -0.730844E-04  0.304E-03    0.00       3.4  T
  15   -280.4060355  0.880091E-07  0.237E-03    0.00       4.3  T
  16   -280.4060356 -0.121416E-06  0.204E-03    0.00       5.0  T
  17   -280.4060363 -0.672694E-06  0.818E-04    0.00      12.5  T
  18   -280.4060364 -0.163549E-06  0.358E-04    0.00      28.6  T
     SCC iter.                  ...        0 min,  1.486 sec
     gradient                   ...        0 min,  0.032 sec
 * total energy  :  -278.6322764 Eh     change       -0.1358734E+00 Eh
   gradient norm :     0.1252343 Eh/α   predicted    -0.1497681E+00 (  10.23%)
   displ. norm   :     0.6447203 α      lambda       -0.6491916E-01
   maximum displ.:     0.1771293 α      in ANC's #63, #56, #45, ...

........................................................................
.............................. CYCLE    4 ..............................
........................................................................

 iter      E             dE          RMSdq      gap      omega  full diag
   1   -280.5160372 -0.280516E+03  0.366E-01    0.01       0.0  T
   2   -280.4931430  0.228942E-01  0.351E-01    0.07       1.0  T
   3   -280.1170813  0.376062E+00  0.115E+00    0.19       1.0  T
   4   -280.4829360 -0.365855E+00  0.425E-01    0.11       1.0  T
   5   -280.4975845 -0.146486E-01  0.258E-01    0.06       1.0  T
   6   -280.5144584 -0.168739E-01  0.110E-01    0.02       1.0  T
   7   -280.5166349 -0.217644E-02  0.551E-02    0.01       1.0  T
   8   -280.5168622 -0.227351E-03  0.330E-02    0.01       1.0  T
   9   -280.5168508  0.114192E-04  0.295E-02    0.01       1.0  T
  10   -280.5168776 -0.268042E-04  0.194E-02    0.01       1.0  T
  11   -280.5168598  0.177593E-04  0.191E-02    0.01       1.0  T
  12   -280.5168165  0.433115E-04  0.205E-02    0.01       1.0  T
  13   -280.5169187 -0.102139E-03  0.465E-03    0.01       2.2  T
  14   -280.5168975  0.211253E-04  0.111E-02    0.01       1.0  T
  15   -280.5169107 -0.131574E-04  0.753E-03    0.01       1.4  T
  16   -280.5169209 -0.101529E-04  0.203E-03    0.01       5.0  T
  17   -280.5169212 -0.348939E-06  0.147E-03    0.01       7.0  T
  18   -280.5169214 -0.165955E-06  0.660E-04    0.01      15.5  T
  19   -280.5169215 -0.994669E-07  0.957E-05    0.01     107.2  T
     SCC iter.                  ...        0 min,  1.443 sec
     gradient                   ...        0 min,  0.056 sec
 * total energy  :  -278.6803474 Eh     change       -0.4807097E-01 Eh
   gradient norm :     0.0798508 Eh/α   predicted    -0.4595188E-01 (  -4.41%)
   displ. norm   :     0.6185795 α      lambda       -0.3444715E-01
   maximum displ.:     0.1717071 α      in ANC's #63, #56, #52, ...

........................................................................
.............................. CYCLE    5 ..............................
........................................................................

 iter      E             dE          RMSdq      gap      omega  full diag
   1   -280.5767361 -0.280577E+03  0.365E-01    0.04       0.0  T
   2   -280.1875941  0.389142E+00  0.117E+00    0.21       1.0  T
   3   -280.5402095 -0.352615E+00  0.413E-01    0.12       1.0  T
   4   -280.5369087  0.330080E-02  0.479E-01    0.16       1.0  T
   5   -280.5718510 -0.349424E-01  0.224E-01    0.05       1.0  T
   6   -280.5812747 -0.942366E-02  0.946E-02    0.01       1.0  T
   7   -280.5814810 -0.206307E-03  0.815E-02    0.01       1.0  T
   8   -280.5817732 -0.292233E-03  0.560E-02    0.01       1.0  T
   9   -280.5816447  0.128553E-03  0.642E-02    0.01       1.0  T
  10   -280.5818839 -0.239248E-03  0.485E-02    0.01       1.0  T
  11   -280.5819094 -0.255019E-04  0.401E-02    0.01       1.0  T
  12   -280.5818693  0.400551E-04  0.341E-02    0.01       1.0  T
  13   -280.5821354 -0.266082E-03  0.103E-02    0.01       1.0  T
  14   -280.5821349  0.579251E-06  0.821E-03    0.01       1.2  T
  15   -280.5821457 -0.108038E-04  0.210E-03    0.01       4.9  T
  16   -280.5821467 -0.101986E-05  0.113E-03    0.01       9.1  T
  17   -280.5821439  0.281207E-05  0.401E-03    0.01       2.6  T
  18   -280.5821461 -0.227598E-05  0.180E-03    0.01       5.7  T
  19   -280.5821468 -0.624550E-06  0.129E-04    0.01      79.3  T
  20   -280.5821468  0.522709E-08  0.166E-04    0.01      61.7  T
     SCC iter.                  ...        0 min,  2.512 sec
     gradient                   ...        0 min,  0.047 sec
 * total energy  :  -278.7049650 Eh     change       -0.2461763E-01 Eh
   gradient norm :     0.0568379 Eh/α   predicted    -0.2381407E-01 (  -3.26%)
   displ. norm   :     0.6470415 α      lambda       -0.2015468E-01
   maximum displ.:     0.2235953 α      in ANC's #39, #63, #45, ...

........................................................................
.............................. CYCLE    6 ..............................
........................................................................

 iter      E             dE          RMSdq      gap      omega  full diag
   1   -280.6015010 -0.280602E+03  0.365E-01    0.01       0.0  T
   2   -280.5670069  0.344940E-01  0.410E-01    0.10       1.0  T
   3   -280.2243111  0.342696E+00  0.112E+00    0.26       1.0  T
   4   -280.5879264 -0.363615E+00  0.308E-01    0.07       1.0  T
   5   -280.6013597 -0.134334E-01  0.108E-01    0.02       1.0  T
   6   -280.6015686 -0.208884E-03  0.724E-02    0.01       1.0  T
   7   -280.6020955 -0.526836E-03  0.554E-02    0.01       1.0  T
   8   -280.6023263 -0.230812E-03  0.470E-02    0.01       1.0  T
   9   -280.6021094  0.216875E-03  0.521E-02    0.02       1.0  T
  10   -280.6022405 -0.131088E-03  0.404E-02    0.02       1.0  T
  11   -280.6023935 -0.153061E-03  0.208E-02    0.01       1.0  T
  12   -280.6024321 -0.385574E-04  0.976E-03    0.01       1.1  T
  13   -280.6024560 -0.239139E-04  0.630E-03    0.01       1.6  T
  14   -280.6024583 -0.229453E-05  0.291E-03    0.01       3.5  T
  15   -280.6024598 -0.146751E-05  0.293E-03    0.01       3.5  T
  16   -280.6024605 -0.747304E-06  0.768E-04    0.01      13.4  T
  17   -280.6024604  0.153406E-06  0.157E-03    0.01       6.5  T
  18   -280.6024606 -0.211951E-06  0.893E-04    0.01      11.5  T
     SCC iter.                  ...        0 min,  1.868 sec
     gradient                   ...        0 min,  0.038 sec
 * total energy  :  -278.7153116 Eh     change       -0.1034658E-01 Eh
   gradient norm :     0.0743614 Eh/α   predicted    -0.1429635E-01 (  38.17%)
   displ. norm   :     0.5297917 α      lambda       -0.1478571E-01
   maximum displ.:     0.1264206 α      in ANC's #15, #25, #45, ...

........................................................................
.............................. CYCLE    7 ..............................
........................................................................

 iter      E             dE          RMSdq      gap      omega  full diag
   1   -280.6197442 -0.280620E+03  0.241E-01    0.02       0.0  T
   2   -280.4858243  0.133920E+00  0.688E-01    0.25       1.0  T
   3   -280.5801026 -0.942783E-01  0.401E-01    0.15       1.0  T
   4   -280.6197966 -0.396940E-01  0.122E-01    0.01       1.0  T
   5   -280.6209620 -0.116535E-02  0.629E-02    0.02       1.0  T
   6   -280.6206856  0.276328E-03  0.566E-02    0.02       1.0  T
   7   -280.6211069 -0.421254E-03  0.419E-02    0.01       1.0  T
   8   -280.6211268 -0.198642E-04  0.365E-02    0.01       1.0  T
   9   -280.6211449 -0.181028E-04  0.233E-02    0.01       1.0  T
  10   -280.6212322 -0.873174E-04  0.631E-03    0.01       1.6  T
  11   -280.6212311  0.108675E-05  0.545E-03    0.01       1.9  T
  12   -280.6212326 -0.153989E-05  0.434E-03    0.01       2.4  T
  13   -280.6212362 -0.351911E-05  0.219E-03    0.01       4.7  T
  14   -280.6212364 -0.258605E-06  0.140E-03    0.01       7.3  T
  15   -280.6212369 -0.522025E-06  0.553E-04    0.01      18.6  T
  16   -280.6212369  0.414511E-07  0.579E-04    0.01      17.7  T
     SCC iter.                  ...        0 min,  3.850 sec
     gradient                   ...        0 min,  0.039 sec
 * total energy  :  -278.7236943 Eh     change       -0.8382667E-02 Eh
   gradient norm :     0.0363684 Eh/α   predicted    -0.9467877E-02 (  12.95%)
   displ. norm   :     0.4357697 α      lambda       -0.5229663E-02
   maximum displ.:     0.1584566 α      in ANC's #8, #15, #16, ...

........................................................................
.............................. CYCLE    8 ..............................
........................................................................

 iter      E             dE          RMSdq      gap      omega  full diag
   1   -280.6303913 -0.280630E+03  0.140E-01    0.01       0.0  T
   2   -280.6113012  0.190901E-01  0.278E-01    0.09       1.0  T
   3   -280.5955908  0.157104E-01  0.370E-01    0.12       1.0  T
   4   -280.6298476 -0.342568E-01  0.713E-02    0.01       1.0  T
   5   -280.6302523 -0.404751E-03  0.425E-02    0.02       1.0  T
   6   -280.6304802 -0.227819E-03  0.209E-02    0.01       1.0  T
   7   -280.6305615 -0.813850E-04  0.854E-03    0.01       1.2  T
   8   -280.6305635 -0.190805E-05  0.701E-03    0.01       1.5  T
   9   -280.6305665 -0.303203E-05  0.410E-03    0.01       2.5  T
  10   -280.6305693 -0.283596E-05  0.111E-03    0.01       9.3  T
  11   -280.6305695 -0.172224E-06  0.522E-04    0.01      19.6  T
  12   -280.6305695 -0.789015E-08  0.279E-04    0.01      36.7  T
     SCC iter.                  ...        0 min,  1.202 sec
     gradient                   ...        0 min,  0.036 sec
 * total energy  :  -278.7277279 Eh     change       -0.4033633E-02 Eh
   gradient norm :     0.0217738 Eh/α   predicted    -0.3111399E-02 ( -22.86%)
   displ. norm   :     0.5823798 α      lambda       -0.4406273E-02
   maximum displ.:     0.2488295 α      in ANC's #8, #15, #16, ...

........................................................................
.............................. CYCLE    9 ..............................
........................................................................

 iter      E             dE          RMSdq      gap      omega  full diag
   1   -280.6404171 -0.280640E+03  0.145E-01    0.02       0.0  T
   2   -280.6397102  0.706934E-03  0.987E-02    0.02       1.0  T
   3   -280.5400792  0.996309E-01  0.590E-01    0.20       1.0  T
   4   -280.6347306 -0.946514E-01  0.162E-01    0.04       1.0  T
   5   -280.6401684 -0.543781E-02  0.480E-02    0.02       1.0  T
   6   -280.6404921 -0.323678E-03  0.151E-02    0.02       1.0  T
   7   -280.6404909  0.119388E-05  0.124E-02    0.02       1.0  T
   8   -280.6405000 -0.908192E-05  0.909E-03    0.02       1.1  T
   9   -280.6404884  0.115948E-04  0.905E-03    0.02       1.1  T
  10   -280.6405053 -0.169124E-04  0.192E-03    0.02       5.3  T
  11   -280.6405060 -0.667830E-06  0.692E-04    0.02      14.8  T
  12   -280.6405060 -0.361302E-07  0.507E-04    0.02      20.3  T
     SCC iter.                  ...        0 min,  1.353 sec
     gradient                   ...        0 min,  0.036 sec
 * total energy  :  -278.7302284 Eh     change       -0.2500485E-02 Eh
   gradient norm :     0.0271575 Eh/α   predicted    -0.2950367E-02 (  17.99%)
   displ. norm   :     0.6113025 α      lambda       -0.4480480E-02
   maximum displ.:     0.2686408 α      in ANC's #15, #8, #16, ...

........................................................................
.............................. CYCLE   10 ..............................
........................................................................

 iter      E             dE          RMSdq      gap      omega  full diag
   1   -280.6478449 -0.280648E+03  0.205E-01    0.03       0.0  T
   2   -280.3127492  0.335096E+00  0.104E+00    0.26       1.0  T
   3   -280.6473419 -0.334593E+00  0.145E-01    0.03       1.0  T
   4   -280.6463027  0.103918E-02  0.141E-01    0.04       1.0  T
   5   -280.6501855 -0.388271E-02  0.689E-02    0.02       1.0  T
   6   -280.6503596 -0.174146E-03  0.488E-02    0.02       1.0  T
   7   -280.6503093  0.503311E-04  0.473E-02    0.02       1.0  T
   8   -280.6506367 -0.327469E-03  0.402E-02    0.02       1.0  T
   9   -280.6506767 -0.399205E-04  0.264E-02    0.02       1.0  T
  10   -280.6507334 -0.567446E-04  0.652E-03    0.02       1.6  T
  11   -280.6507354 -0.197940E-05  0.801E-03    0.02       1.3  T
  12   -280.6507392 -0.384170E-05  0.242E-03    0.02       4.2  T
  13   -280.6507395 -0.306194E-06  0.510E-04    0.02      20.1  T
  14   -280.6507395  0.116868E-07  0.725E-04    0.02      14.2  T
     SCC iter.                  ...        0 min,  1.443 sec
     gradient                   ...        0 min,  0.038 sec
 * total energy  :  -278.7303670 Eh     change       -0.1386433E-03 Eh
   gradient norm :     0.0528089 Eh/α   predicted    -0.3077398E-02 (2119.65%)
   displ. norm   :     0.2239880 α      lambda       -0.4397527E-02
   maximum displ.:     0.0877108 α      in ANC's #8, #16, #15, ...

........................................................................
.............................. CYCLE   11 ..............................
........................................................................

 iter      E             dE          RMSdq      gap      omega  full diag
   1   -280.6451388 -0.280645E+03  0.994E-02    0.02       0.0  T
   2   -280.5726733  0.724655E-01  0.508E-01    0.19       1.0  T
   3   -280.6389835 -0.663102E-01  0.168E-01    0.05       1.0  T
   4   -280.6455430 -0.655948E-02  0.496E-02    0.02       1.0  T
   5   -280.6457212 -0.178171E-03  0.293E-02    0.02       1.0  T
   6   -280.6457295 -0.837218E-05  0.263E-02    0.02       1.0  T
   7   -280.6457377 -0.812493E-05  0.235E-02    0.02       1.0  T
   8   -280.6457681 -0.304128E-04  0.169E-02    0.02       1.0  T
   9   -280.6458176 -0.495562E-04  0.518E-03    0.02       2.0  T
  10   -280.6458234 -0.573494E-05  0.115E-03    0.02       8.9  T
  11   -280.6458229  0.459412E-06  0.152E-03    0.02       6.8  T
  12   -280.6458235 -0.584832E-06  0.460E-04    0.02      22.3  T
  13   -280.6458235 -0.175050E-07  0.236E-04    0.02      43.5  T
     SCC iter.                  ...        0 min,  0.977 sec
     gradient                   ...        0 min,  0.049 sec
 * total energy  :  -278.7326703 Eh     change       -0.2303280E-02 Eh
   gradient norm :     0.0253006 Eh/α   predicted    -0.2309073E-02 (   0.25%)
   displ. norm   :     0.3425331 α      lambda       -0.2943896E-02
   maximum displ.:     0.1168157 α      in ANC's #22, #8, #16, ...

........................................................................
.............................. CYCLE   12 ..............................
........................................................................

 iter      E             dE          RMSdq      gap      omega  full diag
   1   -280.6514683 -0.280651E+03  0.139E-01    0.02       0.0  T
   2   -280.5987877  0.526806E-01  0.445E-01    0.16       1.0  T
   3   -280.6364830 -0.376953E-01  0.253E-01    0.08       1.0  T
   4   -280.6505047 -0.140217E-01  0.102E-01    0.02       1.0  T
   5   -280.6517961 -0.129139E-02  0.364E-02    0.02       1.0  T
   6   -280.6518484 -0.523429E-04  0.292E-02    0.02       1.0  T
   7   -280.6519190 -0.705905E-04  0.219E-02    0.02       1.0  T
   8   -280.6519406 -0.215950E-04  0.182E-02    0.02       1.0  T
   9   -280.6519854 -0.447770E-04  0.813E-03    0.02       1.3  T
  10   -280.6519989 -0.135299E-04  0.121E-03    0.02       8.5  T
  11   -280.6519987  0.228271E-06  0.140E-03    0.02       7.3  T
  12   -280.6519991 -0.368780E-06  0.557E-04    0.02      18.4  T
  13   -280.6519991 -0.673206E-07  0.244E-04    0.02      42.1  T
     SCC iter.                  ...        0 min,  1.096 sec
     gradient                   ...        0 min,  0.033 sec
 * total energy  :  -278.7330250 Eh     change       -0.3547014E-03 Eh
   gradient norm :     0.0307103 Eh/α   predicted    -0.1644654E-02 ( 363.67%)
   displ. norm   :     0.3213570 α      lambda       -0.2452431E-02
   maximum displ.:     0.1524433 α      in ANC's #15, #16, #8, ...

........................................................................
.............................. CYCLE   13 ..............................
........................................................................

 iter      E             dE          RMSdq      gap      omega  full diag
   1   -280.6515188 -0.280652E+03  0.842E-02    0.02       0.0  T
   2   -280.6324434  0.190754E-01  0.273E-01    0.09       1.0  T
   3   -280.6464633 -0.140199E-01  0.148E-01    0.04       1.0  T
   4   -280.6511015 -0.463813E-02  0.626E-02    0.02       1.0  T
   5   -280.6516583 -0.556819E-03  0.114E-02    0.02       1.0  T
   6   -280.6516533  0.492449E-05  0.103E-02    0.02       1.0  T
   7   -280.6516659 -0.125084E-04  0.698E-03    0.02       1.5  T
   8   -280.6516745 -0.868875E-05  0.222E-03    0.02       4.6  T
   9   -280.6516749 -0.354963E-06  0.123E-03    0.02       8.3  T
  10   -280.6516752 -0.283487E-06  0.517E-04    0.02      19.8  T
  11   -280.6516752 -0.396685E-07  0.190E-04    0.02      54.0  T
     SCC iter.                  ...        0 min,  0.802 sec
     gradient                   ...        0 min,  0.032 sec
 * total energy  :  -278.7346598 Eh     change       -0.1634799E-02 Eh
   gradient norm :     0.0144325 Eh/α   predicted    -0.1352850E-02 ( -17.25%)
   displ. norm   :     0.4973577 α      lambda       -0.1733653E-02
   maximum displ.:     0.2259458 α      in ANC's #15, #8, #16, ...

........................................................................
.............................. CYCLE   14 ..............................
........................................................................

 iter      E             dE          RMSdq      gap      omega  full diag
   1   -280.6529399 -0.280653E+03  0.952E-02    0.02       0.0  T
   2   -280.6411803  0.117596E-01  0.219E-01    0.07       1.0  T
   3   -280.6376631  0.351725E-02  0.248E-01    0.07       1.0  T
   4   -280.6524748 -0.148118E-01  0.556E-02    0.02       1.0  T
   5   -280.6529977 -0.522891E-03  0.142E-02    0.02       1.0  T
   6   -280.6530185 -0.208364E-04  0.880E-03    0.02       1.2  T
   7   -280.6530282 -0.961353E-05  0.529E-03    0.02       1.9  T
   8   -280.6530308 -0.267261E-05  0.275E-03    0.02       3.7  T
   9   -280.6530318 -0.967457E-06  0.104E-03    0.02       9.8  T
  10   -280.6530319 -0.110951E-06  0.365E-04    0.02      28.1  T
  11   -280.6530319 -0.389878E-08  0.234E-04    0.02      43.9  T
     SCC iter.                  ...        0 min,  0.619 sec
     gradient                   ...        0 min,  0.032 sec
 * total energy  :  -278.7355327 Eh     change       -0.8728417E-03 Eh
   gradient norm :     0.0187944 Eh/α   predicted    -0.1081252E-02 (  23.88%)
   displ. norm   :     0.4770608 α      lambda       -0.1288320E-02
   maximum displ.:     0.2026455 α      in ANC's #8, #16, #15, ...

........................................................................
.............................. CYCLE   15 ..............................
........................................................................

 iter      E             dE          RMSdq      gap      omega  full diag
   1   -280.6489592 -0.280649E+03  0.714E-02    0.02       0.0  T
   2   -280.6467715  0.218770E-02  0.100E-01    0.03       1.0  T
   3   -280.6309110  0.158606E-01  0.266E-01    0.08       1.0  T
   4   -280.6489213 -0.180104E-01  0.223E-02    0.02       1.0  T
   5   -280.6489524 -0.310581E-04  0.128E-02    0.02       1.0  T
   6   -280.6489825 -0.301219E-04  0.630E-03    0.02       1.6  T
   7   -280.6489858 -0.324384E-05  0.326E-03    0.02       3.1  T
   8   -280.6489875 -0.175967E-05  0.148E-03    0.02       6.9  T
   9   -280.6489876 -0.955395E-07  0.127E-03    0.02       8.1  T
  10   -280.6489879 -0.290354E-06  0.344E-04    0.02      29.8  T
  11   -280.6489879 -0.126622E-07  0.158E-04    0.02      65.1  T
     SCC iter.                  ...        0 min,  0.787 sec
     gradient                   ...        0 min,  0.031 sec
 * total energy  :  -278.7363470 Eh     change       -0.8143009E-03 Eh
   gradient norm :     0.0125478 Eh/α   predicted    -0.7907649E-03 (  -2.89%)
   displ. norm   :     0.4640179 α      lambda       -0.1050048E-02
   maximum displ.:     0.1900532 α      in ANC's #16, #15, #8, ...

........................................................................
.............................. CYCLE   16 ..............................
........................................................................

 iter      E             dE          RMSdq      gap      omega  full diag
   1   -280.6551058 -0.280655E+03  0.842E-02    0.02       0.0  T
   2   -280.6432910  0.118148E-01  0.218E-01    0.06       1.0  T
   3   -280.6458820 -0.259105E-02  0.195E-01    0.06       1.0  T
   4   -280.6550732 -0.919122E-02  0.264E-02    0.02       1.0  T
   5   -280.6551705 -0.973074E-04  0.121E-02    0.02       1.0  T
   6   -280.6551806 -0.100570E-04  0.726E-03    0.02       1.4  T
   7   -280.6551860 -0.540457E-05  0.415E-03    0.02       2.5  T
   8   -280.6551889 -0.290913E-05  0.206E-03    0.02       5.0  T
   9   -280.6551894 -0.464975E-06  0.108E-03    0.02       9.5  T
  10   -280.6551895 -0.158168E-06  0.417E-04    0.02      24.6  T
  11   -280.6551896 -0.332574E-07  0.155E-04    0.02      66.1  T
     SCC iter.                  ...        0 min,  0.704 sec
     gradient                   ...        0 min,  0.030 sec
 * total energy  :  -278.7369370 Eh     change       -0.5900248E-03 Eh
   gradient norm :     0.0134382 Eh/α   predicted    -0.6380703E-03 (   8.14%)
   displ. norm   :     0.3755592 α      lambda       -0.6819484E-03
   maximum displ.:     0.1501642 α      in ANC's #16, #15, #7, ...

........................................................................
.............................. CYCLE   17 ..............................
........................................................................

 iter      E             dE          RMSdq      gap      omega  full diag
   1   -280.6552792 -0.280655E+03  0.528E-02    0.02       0.0  T
   2   -280.6543638  0.915432E-03  0.667E-02    0.03       1.0  T
   3   -280.6420188  0.123449E-01  0.228E-01    0.07       1.0  T
   4   -280.6549774 -0.129585E-01  0.371E-02    0.02       1.0  T
   5   -280.6552788 -0.301408E-03  0.936E-03    0.02       1.1  T
   6   -280.6552639  0.148916E-04  0.110E-02    0.02       1.0  T
   7   -280.6552914 -0.274685E-04  0.374E-03    0.02       2.7  T
   8   -280.6552936 -0.218761E-05  0.135E-03    0.02       7.6  T
   9   -280.6552937 -0.151347E-06  0.917E-04    0.02      11.2  T
  10   -280.6552939 -0.177594E-06  0.266E-04    0.02      38.5  T
     SCC iter.                  ...        0 min,  0.669 sec
     gradient                   ...        0 min,  0.031 sec
 * total energy  :  -278.7374647 Eh     change       -0.5277279E-03 Eh
   gradient norm :     0.0096961 Eh/α   predicted    -0.3890716E-03 ( -26.27%)
   displ. norm   :     0.4534177 α      lambda       -0.7818111E-03
   maximum displ.:     0.1931110 α      in ANC's #7, #16, #26, ...

........................................................................
.............................. CYCLE   18 ..............................
........................................................................

 iter      E             dE          RMSdq      gap      omega  full diag
   1   -280.6558822 -0.280656E+03  0.648E-02    0.02       0.0  T
   2   -280.6557723  0.109913E-03  0.423E-02    0.02       1.0  T
   3   -280.6314710  0.243012E-01  0.304E-01    0.11       1.0  T
   4   -280.6558490 -0.243780E-01  0.212E-02    0.02       1.0  T
   5   -280.6558775 -0.284456E-04  0.125E-02    0.02       1.0  T
   6   -280.6558954 -0.179511E-04  0.664E-03    0.02       1.5  T
   7   -280.6559021 -0.665807E-05  0.248E-03    0.02       4.1  T
   8   -280.6559026 -0.528361E-06  0.150E-03    0.02       6.8  T
   9   -280.6559028 -0.219251E-06  0.775E-04    0.02      13.2  T
  10   -280.6559029 -0.668085E-07  0.365E-04    0.02      28.1  T
     SCC iter.                  ...        0 min,  0.621 sec
     gradient                   ...        0 min,  0.031 sec
 * total energy  :  -278.7380624 Eh     change       -0.5977064E-03 Eh
   gradient norm :     0.0104547 Eh/α   predicted    -0.4712711E-03 ( -21.15%)
   displ. norm   :     0.5193259 α      lambda       -0.7343267E-03
   maximum displ.:     0.2515405 α      in ANC's #7, #26, #14, ...

........................................................................
.............................. CYCLE   19 ..............................
........................................................................

 iter      E             dE          RMSdq      gap      omega  full diag
   1   -280.6568956 -0.280657E+03  0.717E-02    0.02       0.0  T
   2   -280.6563142  0.581369E-03  0.631E-02    0.02       1.0  T
   3   -280.6282204  0.280938E-01  0.330E-01    0.12       1.0  T
   4   -280.6566592 -0.284388E-01  0.339E-02    0.02       1.0  T
   5   -280.6568671 -0.207899E-03  0.167E-02    0.02       1.0  T
   6   -280.6569149 -0.478478E-04  0.535E-03    0.02       1.9  T
   7   -280.6569174 -0.252727E-05  0.230E-03    0.02       4.5  T
   8   -280.6569179 -0.459216E-06  0.129E-03    0.02       8.0  T
   9   -280.6569180 -0.578968E-07  0.903E-04    0.02      11.4  T
  10   -280.6569181 -0.168009E-06  0.332E-04    0.02      30.9  T
     SCC iter.                  ...        0 min,  0.769 sec
     gradient                   ...        0 min,  0.032 sec
 * total energy  :  -278.7386406 Eh     change       -0.5782319E-03 Eh
   gradient norm :     0.0112343 Eh/α   predicted    -0.4661898E-03 ( -19.38%)
   displ. norm   :     0.5498064 α      lambda       -0.7608024E-03
   maximum displ.:     0.2950200 α      in ANC's #7, #14, #26, ...

........................................................................
.............................. CYCLE   20 ..............................
........................................................................

 iter      E             dE          RMSdq      gap      omega  full diag
   1   -280.6564809 -0.280656E+03  0.790E-02    0.02       0.0  T
   2   -280.6503530  0.612790E-02  0.160E-01    0.05       1.0  T
   3   -280.6465119  0.384116E-02  0.202E-01    0.06       1.0  T
   4   -280.6563063 -0.979442E-02  0.326E-02    0.02       1.0  T
   5   -280.6565315 -0.225247E-03  0.560E-03    0.02       1.8  T
   6   -280.6565302  0.133878E-05  0.468E-03    0.02       2.2  T
   7   -280.6565331 -0.289247E-05  0.263E-03    0.02       3.9  T
   8   -280.6565338 -0.755382E-06  0.144E-03    0.02       7.1  T
   9   -280.6565341 -0.222709E-06  0.612E-04    0.02      16.8  T
  10   -280.6565341 -0.617759E-07  0.242E-04    0.02      42.4  T
     SCC iter.                  ...        0 min,  0.659 sec
     gradient                   ...        0 min,  0.038 sec
 * total energy  :  -278.7392585 Eh     change       -0.6178057E-03 Eh
   gradient norm :     0.0114327 Eh/α   predicted    -0.4953974E-03 ( -19.81%)
   displ. norm   :     0.5862768 α      lambda       -0.8798279E-03
   maximum displ.:     0.3290836 α      in ANC's #7, #14, #26, ...
 * RMSD in coord.:     0.6878472 α      energy gain  -0.4476741E+00 Eh

generating ANC from exact Hessian ...
Using Lindh-Hessian (1995)
 Shifting diagonal of input Hessian by    1.0505334179135649E-002
 Lowest  eigenvalues of input Hessian
    0.010000    0.000000    0.000000    0.000000    0.000000    0.000000
    0.000000    0.010589    0.010618    0.010768    0.010790    0.011186
    0.011344    0.011508    0.011682    0.011796    0.012492    0.012507
 Highest eigenvalues
    2.266314    2.279759    2.287519    2.290016    2.297074    2.308110


........................................................................
.............................. CYCLE   21 ..............................
........................................................................

 iter      E             dE          RMSdq      gap      omega  full diag
   1   -280.6583519 -0.280658E+03  0.850E-02    0.02       0.0  T
   2   -280.6555253  0.282657E-02  0.115E-01    0.03       1.0  T
   3   -280.6373333  0.181920E-01  0.287E-01    0.10       1.0  T
   4   -280.6580095 -0.206762E-01  0.408E-02    0.03       1.0  T
   5   -280.6583594 -0.349886E-03  0.120E-02    0.02       1.0  T
   6   -280.6583771 -0.177395E-04  0.704E-03    0.02       1.5  T
   7   -280.6583848 -0.767210E-05  0.379E-03    0.02       2.7  T
   8   -280.6583861 -0.126112E-05  0.254E-03    0.02       4.0  T
   9   -280.6583870 -0.931188E-06  0.113E-03    0.02       9.1  T
  10   -280.6583873 -0.269577E-06  0.317E-04    0.02      32.3  T
  11   -280.6583873  0.441821E-08  0.295E-04    0.02      34.8  T
     SCC iter.                  ...        0 min,  0.711 sec
     gradient                   ...        0 min,  0.032 sec
 * total energy  :  -278.7399945 Eh     change       -0.7360532E-03 Eh
   gradient norm :     0.0116919 Eh/α   predicted     0.0000000E+00 (-100.00%)
   displ. norm   :     0.1428531 α      lambda       -0.4912173E-03
   maximum displ.:     0.0689554 α      in ANC's #22, #16, #10, ...

........................................................................
.............................. CYCLE   22 ..............................
........................................................................

 iter      E             dE          RMSdq      gap      omega  full diag
   1   -280.6596954 -0.280660E+03  0.344E-02    0.02       0.0  T
   2   -280.6594887  0.206661E-03  0.350E-02    0.02       1.0  T
   3   -280.6520572  0.743150E-02  0.172E-01    0.05       1.0  T
   4   -280.6596377 -0.758048E-02  0.165E-02    0.02       1.0  T
   5   -280.6596929 -0.551497E-04  0.636E-03    0.02       1.6  T
   6   -280.6596977 -0.484821E-05  0.333E-03    0.02       3.1  T
   7   -280.6596990 -0.125264E-05  0.201E-03    0.02       5.1  T
   8   -280.6596998 -0.788628E-06  0.812E-04    0.02      12.6  T
   9   -280.6596998 -0.659642E-07  0.442E-04    0.02      23.2  T
     SCC iter.                  ...        0 min,  0.635 sec
     gradient                   ...        0 min,  0.031 sec
 * total energy  :  -278.7404153 Eh     change       -0.4207572E-03 Eh
   gradient norm :     0.0070753 Eh/α   predicted    -0.2506221E-03 ( -40.44%)
   displ. norm   :     0.4428568 α      lambda       -0.1055823E-02
   maximum displ.:     0.2021696 α      in ANC's #22, #16, #10, ...

........................................................................
.............................. CYCLE   23 ..............................
........................................................................

 iter      E             dE          RMSdq      gap      omega  full diag
   1   -280.6605235 -0.280661E+03  0.902E-02    0.02       0.0  T
   2   -280.6570334  0.349014E-02  0.129E-01    0.04       1.0  T
   3   -280.6404397  0.165936E-01  0.280E-01    0.08       1.0  T
   4   -280.6601950 -0.197553E-01  0.441E-02    0.02       1.0  T
   5   -280.6604562 -0.261183E-03  0.234E-02    0.02       1.0  T
   6   -280.6605650 -0.108774E-03  0.632E-03    0.02       1.6  T
   7   -280.6605626  0.238052E-05  0.518E-03    0.02       2.0  T
   8   -280.6605677 -0.509046E-05  0.242E-03    0.02       4.2  T
   9   -280.6605678 -0.973016E-07  0.185E-03    0.02       5.5  T
  10   -280.6605685 -0.755705E-06  0.406E-04    0.02      25.3  T
  11   -280.6605685 -0.128196E-07  0.257E-04    0.02      40.0  T
     SCC iter.                  ...        0 min,  0.666 sec
     gradient                   ...        0 min,  0.030 sec
 * total energy  :  -278.7411536 Eh     change       -0.7383114E-03 Eh
   gradient norm :     0.0060471 Eh/α   predicted    -0.6315004E-03 ( -14.47%)
   displ. norm   :     0.4062056 α      lambda       -0.5419747E-03
   maximum displ.:     0.1585285 α      in ANC's #16, #22, #10, ...

........................................................................
.............................. CYCLE   24 ..............................
........................................................................

 iter      E             dE          RMSdq      gap      omega  full diag
   1   -280.6600540 -0.280660E+03  0.700E-02    0.02       0.0  T
   2   -280.6571866  0.286748E-02  0.114E-01    0.04       1.0  T
   3   -280.6500882  0.709832E-02  0.199E-01    0.06       1.0  T
   4   -280.6600038 -0.991555E-02  0.225E-02    0.02       1.0  T
   5   -280.6600644 -0.606588E-04  0.111E-02    0.02       1.0  T
   6   -280.6600794 -0.149858E-04  0.587E-03    0.02       1.7  T
   7   -280.6600824 -0.297750E-05  0.289E-03    0.02       3.6  T
   8   -280.6600839 -0.153762E-05  0.117E-03    0.02       8.8  T
   9   -280.6600841 -0.159270E-06  0.666E-04    0.02      15.4  T
  10   -280.6600842 -0.531546E-07  0.329E-04    0.02      31.2  T
     SCC iter.                  ...        0 min,  0.694 sec
     gradient                   ...        0 min,  0.035 sec
 * total energy  :  -278.7415913 Eh     change       -0.4377423E-03 Eh
   gradient norm :     0.0090289 Eh/α   predicted    -0.3157015E-03 ( -27.88%)
   displ. norm   :     0.5567125 α      lambda       -0.6833156E-03
   maximum displ.:     0.2404234 α      in ANC's #16, #10, #22, ...

........................................................................
.............................. CYCLE   25 ..............................
........................................................................

 iter      E             dE          RMSdq      gap      omega  full diag
   1   -280.6586041 -0.280659E+03  0.885E-02    0.02       0.0  T
   2   -280.6546338  0.397034E-02  0.137E-01    0.04       1.0  T
   3   -280.6421603  0.124734E-01  0.255E-01    0.08       1.0  T
   4   -280.6585730 -0.164127E-01  0.238E-02    0.02       1.0  T
   5   -280.6586267 -0.536431E-04  0.123E-02    0.02       1.0  T
   6   -280.6586428 -0.161359E-04  0.783E-03    0.02       1.3  T
   7   -280.6586513 -0.846197E-05  0.291E-03    0.02       3.5  T
   8   -280.6586515 -0.204881E-06  0.212E-03    0.02       4.8  T
   9   -280.6586520 -0.542560E-06  0.109E-03    0.02       9.4  T
  10   -280.6586521 -0.130011E-06  0.517E-04    0.02      19.8  T
  11   -280.6586522 -0.217543E-07  0.329E-04    0.02      31.2  T
     SCC iter.                  ...        0 min,  0.584 sec
     gradient                   ...        0 min,  0.032 sec
 * total energy  :  -278.7421304 Eh     change       -0.5390936E-03 Eh
   gradient norm :     0.0111610 Eh/α   predicted    -0.4475490E-03 ( -16.98%)
   displ. norm   :     0.4985076 α      lambda       -0.6538229E-03
   maximum displ.:     0.2289873 α      in ANC's #16, #10, #7, ...

........................................................................
.............................. CYCLE   26 ..............................
........................................................................

 iter      E             dE          RMSdq      gap      omega  full diag
   1   -280.6578977 -0.280658E+03  0.766E-02    0.02       0.0  T
   2   -280.6569955  0.902222E-03  0.769E-02    0.03       1.0  T
   3   -280.6314764  0.255191E-01  0.319E-01    0.10       1.0  T
   4   -280.6575780 -0.261016E-01  0.379E-02    0.02       1.0  T
   5   -280.6578776 -0.299532E-03  0.167E-02    0.02       1.0  T
   6   -280.6578951 -0.175597E-04  0.114E-02    0.02       1.0  T
   7   -280.6579221 -0.269571E-04  0.362E-03    0.02       2.8  T
   8   -280.6579234 -0.130333E-05  0.232E-03    0.02       4.4  T
   9   -280.6579238 -0.459483E-06  0.125E-03    0.02       8.2  T
  10   -280.6579240 -0.124907E-06  0.657E-04    0.02      15.6  T
  11   -280.6579240 -0.787535E-07  0.261E-04    0.02      39.3  T
     SCC iter.                  ...        0 min,  0.621 sec
     gradient                   ...        0 min,  0.030 sec
 * total energy  :  -278.7426222 Eh     change       -0.4918069E-03 Eh
   gradient norm :     0.0131970 Eh/α   predicted    -0.4081526E-03 ( -17.01%)
   displ. norm   :     0.3641136 α      lambda       -0.7272369E-03
   maximum displ.:     0.1564173 α      in ANC's #16, #4, #27, ...

........................................................................
.............................. CYCLE   27 ..............................
........................................................................

 iter      E             dE          RMSdq      gap      omega  full diag
   1   -280.6596002 -0.280660E+03  0.603E-02    0.02       0.0  T
   2   -280.6580852  0.151497E-02  0.828E-02    0.03       1.0  T
   3   -280.6460421  0.120431E-01  0.232E-01    0.07       1.0  T
   4   -280.6592535 -0.132114E-01  0.423E-02    0.02       1.0  T
   5   -280.6595316 -0.278061E-03  0.213E-02    0.02       1.0  T
   6   -280.6596257 -0.941638E-04  0.412E-03    0.02       2.5  T
   7   -280.6596269 -0.115931E-05  0.214E-03    0.02       4.8  T
   8   -280.6596270 -0.159106E-06  0.153E-03    0.02       6.7  T
   9   -280.6596271 -0.135662E-07  0.126E-03    0.02       8.2  T
  10   -280.6596274 -0.305505E-06  0.346E-04    0.02      29.6  T
  11   -280.6596274  0.369198E-09  0.294E-04    0.02      34.9  T
     SCC iter.                  ...        0 min,  1.586 sec
     gradient                   ...        0 min,  0.038 sec
 * total energy  :  -278.7431639 Eh     change       -0.5417303E-03 Eh
   gradient norm :     0.0133150 Eh/α   predicted    -0.4118272E-03 ( -23.98%)
   displ. norm   :     0.3591306 α      lambda       -0.6799545E-03
   maximum displ.:     0.1378023 α      in ANC's #4, #16, #10, ...

........................................................................
.............................. CYCLE   28 ..............................
........................................................................

 iter      E             dE          RMSdq      gap      omega  full diag
   1   -280.6613284 -0.280661E+03  0.578E-02    0.02       0.0  T
   2   -280.6520749  0.925345E-02  0.191E-01    0.06       1.0  T
   3   -280.6583698 -0.629483E-02  0.114E-01    0.04       1.0  T
   4   -280.6612149 -0.284519E-02  0.336E-02    0.02       1.0  T
   5   -280.6613533 -0.138386E-03  0.178E-02    0.02       1.0  T
   6   -280.6614023 -0.489776E-04  0.435E-03    0.02       2.4  T
   7   -280.6614045 -0.217530E-05  0.186E-03    0.02       5.5  T
   8   -280.6614047 -0.223380E-06  0.121E-03    0.02       8.5  T
   9   -280.6614048 -0.739325E-07  0.806E-04    0.02      12.7  T
  10   -280.6614049 -0.774368E-07  0.356E-04    0.02      28.8  T
     SCC iter.                  ...        0 min,  1.038 sec
     gradient                   ...        0 min,  0.037 sec
 * total energy  :  -278.7436908 Eh     change       -0.5268564E-03 Eh
   gradient norm :     0.0123147 Eh/α   predicted    -0.3838272E-03 ( -27.15%)
   displ. norm   :     0.4918348 α      lambda       -0.7412071E-03
   maximum displ.:     0.1958039 α      in ANC's #4, #10, #16, ...

........................................................................
.............................. CYCLE   29 ..............................
........................................................................

 iter      E             dE          RMSdq      gap      omega  full diag
   1   -280.6619038 -0.280662E+03  0.722E-02    0.02       0.0  T
   2   -280.6508164  0.110875E-01  0.211E-01    0.06       1.0  T
   3   -280.6566990 -0.588260E-02  0.149E-01    0.05       1.0  T
   4   -280.6619272 -0.522822E-02  0.213E-02    0.02       1.0  T
   5   -280.6619539 -0.267261E-04  0.140E-02    0.02       1.0  T
   6   -280.6619832 -0.292397E-04  0.416E-03    0.02       2.5  T
   7   -280.6619845 -0.138749E-05  0.174E-03    0.02       5.9  T
   8   -280.6619847 -0.157463E-06  0.124E-03    0.02       8.3  T
   9   -280.6619848 -0.116800E-06  0.688E-04    0.02      14.9  T
  10   -280.6619849 -0.514622E-07  0.309E-04    0.02      33.2  T
     SCC iter.                  ...        0 min,  1.197 sec
     gradient                   ...        0 min,  0.033 sec
 * total energy  :  -278.7442948 Eh     change       -0.6039802E-03 Eh
   gradient norm :     0.0112789 Eh/α   predicted    -0.4602737E-03 ( -23.79%)
   displ. norm   :     0.5160215 α      lambda       -0.8205316E-03
   maximum displ.:     0.2226440 α      in ANC's #4, #10, #16, ...

........................................................................
.............................. CYCLE   30 ..............................
........................................................................

 iter      E             dE          RMSdq      gap      omega  full diag
   1   -280.6635781 -0.280664E+03  0.806E-02    0.02       0.0  T
   2   -280.6552061  0.837203E-02  0.187E-01    0.05       1.0  T
   3   -280.6553252 -0.119110E-03  0.184E-01    0.06       1.0  T
   4   -280.6633391 -0.801384E-02  0.378E-02    0.02       1.0  T
   5   -280.6636000 -0.260908E-03  0.169E-02    0.02       1.0  T
   6   -280.6636374 -0.374538E-04  0.689E-03    0.02       1.5  T
   7   -280.6636447 -0.727459E-05  0.312E-03    0.02       3.3  T
   8   -280.6636458 -0.106016E-05  0.183E-03    0.02       5.6  T
   9   -280.6636463 -0.551093E-06  0.489E-04    0.02      21.0  T
  10   -280.6636463 -0.654046E-08  0.375E-04    0.02      27.3  T
     SCC iter.                  ...        0 min,  1.436 sec
     gradient                   ...        0 min,  0.087 sec
 * total energy  :  -278.7449296 Eh     change       -0.6348379E-03 Eh
   gradient norm :     0.0087781 Eh/α   predicted    -0.5195111E-03 ( -18.17%)
   displ. norm   :     0.7291415 α      lambda       -0.7897479E-03
   maximum displ.:     0.3007767 α      in ANC's #16, #4, #10, ...

........................................................................
.............................. CYCLE   31 ..............................
........................................................................

 iter      E             dE          RMSdq      gap      omega  full diag
   1   -280.6603888 -0.280660E+03  0.105E-01    0.02       0.0  T
   2   -280.6595931  0.795760E-03  0.851E-02    0.03       1.0  T
   3   -280.6071354  0.524577E-01  0.444E-01    0.17       1.0  T
   4   -280.6597276 -0.525923E-01  0.610E-02    0.03       1.0  T
   5   -280.6602871 -0.559463E-03  0.300E-02    0.02       1.0  T
   6   -280.6603849 -0.978186E-04  0.165E-02    0.02       1.0  T
   7   -280.6604337 -0.487351E-04  0.691E-03    0.02       1.5  T
   8   -280.6604352 -0.154031E-05  0.557E-03    0.02       1.8  T
   9   -280.6604391 -0.394326E-05  0.296E-03    0.02       3.5  T
  10   -280.6604407 -0.151272E-05  0.101E-03    0.02      10.1  T
  11   -280.6604407 -0.750140E-07  0.788E-04    0.02      13.0  T
  12   -280.6604407 -0.130203E-07  0.664E-04    0.02      15.4  T
     SCC iter.                  ...        0 min,  1.161 sec
     gradient                   ...        0 min,  0.040 sec
 * total energy  :  -278.7454549 Eh     change       -0.5252966E-03 Eh
   gradient norm :     0.0125472 Eh/α   predicted    -0.6048090E-03 (  15.14%)
   displ. norm   :     0.4354348 α      lambda       -0.9315773E-03
   maximum displ.:     0.2007752 α      in ANC's #4, #16, #2, ...

........................................................................
.............................. CYCLE   32 ..............................
........................................................................

 iter      E             dE          RMSdq      gap      omega  full diag
   1   -280.6650963 -0.280665E+03  0.859E-02    0.02       0.0  T
   2   -280.6599257  0.517058E-02  0.148E-01    0.05       1.0  T
   3   -280.6475026  0.124231E-01  0.267E-01    0.08       1.0  T
   4   -280.6641027 -0.166001E-01  0.770E-02    0.03       1.0  T
   5   -280.6648337 -0.730958E-03  0.378E-02    0.03       1.0  T
   6   -280.6651782 -0.344559E-03  0.627E-03    0.02       1.6  T
   7   -280.6651805 -0.224439E-05  0.373E-03    0.02       2.8  T
   8   -280.6651761  0.439621E-05  0.510E-03    0.02       2.0  T
   9   -280.6651796 -0.355680E-05  0.299E-03    0.02       3.4  T
  10   -280.6651818 -0.217328E-05  0.583E-04    0.02      17.6  T
  11   -280.6651818 -0.945590E-09  0.506E-04    0.02      20.3  T
  12   -280.6651818 -0.421180E-07  0.214E-04    0.02      47.9  T
     SCC iter.                  ...        0 min,  1.241 sec
     gradient                   ...        0 min,  0.035 sec
 * total energy  :  -278.7459798 Eh     change       -0.5248499E-03 Eh
   gradient norm :     0.0090007 Eh/α   predicted    -0.5541037E-03 (   5.57%)
   displ. norm   :     0.5661224 α      lambda       -0.4854962E-03
   maximum displ.:     0.2438483 α      in ANC's #4, #16, #10, ...

........................................................................
.............................. CYCLE   33 ..............................
........................................................................

 iter      E             dE          RMSdq      gap      omega  full diag
   1   -280.6628904 -0.280663E+03  0.798E-02    0.02       0.0  T
   2   -280.6616022  0.128822E-02  0.858E-02    0.03       1.0  T
   3   -280.6362549  0.253473E-01  0.321E-01    0.10       1.0  T
   4   -280.6625916 -0.263367E-01  0.426E-02    0.03       1.0  T
   5   -280.6628684 -0.276805E-03  0.175E-02    0.02       1.0  T
   6   -280.6628948 -0.263491E-04  0.110E-02    0.02       1.0  T
   7   -280.6629199 -0.250773E-04  0.373E-03    0.03       2.8  T
   8   -280.6629209 -0.995780E-06  0.257E-03    0.02       4.0  T
   9   -280.6629214 -0.527204E-06  0.159E-03    0.02       6.5  T
  10   -280.6629217 -0.338654E-06  0.671E-04    0.02      15.3  T
  11   -280.6629218 -0.737799E-07  0.272E-04    0.03      37.7  T
     SCC iter.                  ...        0 min,  1.038 sec
     gradient                   ...        0 min,  0.033 sec
 * total energy  :  -278.7463626 Eh     change       -0.3828110E-03 Eh
   gradient norm :     0.0089752 Eh/α   predicted    -0.3205517E-03 ( -16.26%)
   displ. norm   :     0.5052134 α      lambda       -0.5305986E-03
   maximum displ.:     0.2327747 α      in ANC's #4, #16, #2, ...

........................................................................
.............................. CYCLE   34 ..............................
........................................................................

 iter      E             dE          RMSdq      gap      omega  full diag
   1   -280.6637178 -0.280664E+03  0.729E-02    0.03       0.0  T
   2   -280.6637132  0.450648E-05  0.432E-02    0.03       1.0  T
   3   -280.6592866  0.442667E-02  0.133E-01    0.04       1.0  T
   4   -280.6604990 -0.121247E-02  0.112E-01    0.04       1.0  T
   5   -280.6637092 -0.321020E-02  0.126E-02    0.03       1.0  T
   6   -280.6637328 -0.235843E-04  0.507E-03    0.03       2.0  T
   7   -280.6637346 -0.176356E-05  0.336E-03    0.03       3.1  T
   8   -280.6637363 -0.172815E-05  0.151E-03    0.03       6.8  T
   9   -280.6637365 -0.194845E-06  0.861E-04    0.03      11.9  T
  10   -280.6637366 -0.782664E-07  0.352E-04    0.03      29.1  T
     SCC iter.                  ...        0 min,  1.167 sec
     gradient                   ...        0 min,  0.036 sec
 * total energy  :  -278.7467522 Eh     change       -0.3896336E-03 Eh
   gradient norm :     0.0068724 Eh/α   predicted    -0.3330162E-03 ( -14.53%)
   displ. norm   :     0.4338434 α      lambda       -0.3567536E-03
   maximum displ.:     0.1986868 α      in ANC's #4, #16, #2, ...

........................................................................
.............................. CYCLE   35 ..............................
........................................................................

 iter      E             dE          RMSdq      gap      omega  full diag
   1   -280.6653576 -0.280665E+03  0.631E-02    0.03       0.0  T
   2   -280.6646394  0.718250E-03  0.642E-02    0.03       1.0  T
   3   -280.6460630  0.185764E-01  0.273E-01    0.09       1.0  T
   4   -280.6652101 -0.191471E-01  0.293E-02    0.03       1.0  T
   5   -280.6653361 -0.125990E-03  0.141E-02    0.03       1.0  T
   6   -280.6653693 -0.332214E-04  0.532E-03    0.03       1.9  T
   7   -280.6653726 -0.326203E-05  0.300E-03    0.03       3.4  T
   8   -280.6653738 -0.121195E-05  0.177E-03    0.03       5.8  T
   9   -280.6653741 -0.356403E-06  0.905E-04    0.03      11.3  T
  10   -280.6653742 -0.773799E-07  0.460E-04    0.03      22.3  T
     SCC iter.                  ...        0 min,  0.686 sec
     gradient                   ...        0 min,  0.032 sec
 * total energy  :  -278.7470206 Eh     change       -0.2683561E-03 Eh
   gradient norm :     0.0062015 Eh/α   predicted    -0.2119537E-03 ( -21.02%)
   displ. norm   :     0.4786986 α      lambda       -0.3176474E-03
   maximum displ.:     0.2162549 α      in ANC's #4, #2, #16, ...

........................................................................
.............................. CYCLE   36 ..............................
........................................................................

 iter      E             dE          RMSdq      gap      omega  full diag
   1   -280.6665112 -0.280667E+03  0.707E-02    0.03       0.0  T
   2   -280.6638707  0.264048E-02  0.109E-01    0.04       1.0  T
   3   -280.6547532  0.911756E-02  0.216E-01    0.07       1.0  T
   4   -280.6662894 -0.115363E-01  0.359E-02    0.03       1.0  T
   5   -280.6665029 -0.213457E-03  0.154E-02    0.03       1.0  T
   6   -280.6665400 -0.371001E-04  0.486E-03    0.03       2.1  T
   7   -280.6665417 -0.173844E-05  0.329E-03    0.03       3.1  T
   8   -280.6665433 -0.153157E-05  0.175E-03    0.03       5.9  T
   9   -280.6665433 -0.368981E-07  0.148E-03    0.03       6.9  T
  10   -280.6665436 -0.322912E-06  0.580E-04    0.03      17.7  T
  11   -280.6665437 -0.652576E-07  0.232E-04    0.03      44.1  T
     SCC iter.                  ...        0 min,  0.746 sec
     gradient                   ...        0 min,  0.030 sec
 * total energy  :  -278.7472450 Eh     change       -0.2244281E-03 Eh
   gradient norm :     0.0067878 Eh/α   predicted    -0.1952216E-03 ( -13.01%)
   displ. norm   :     0.5015630 α      lambda       -0.3245749E-03
   maximum displ.:     0.2177661 α      in ANC's #4, #2, #16, ...

........................................................................
.............................. CYCLE   37 ..............................
........................................................................

 iter      E             dE          RMSdq      gap      omega  full diag
   1   -280.6671107 -0.280667E+03  0.757E-02    0.03       0.0  T
   2   -280.6610946  0.601603E-02  0.159E-01    0.05       1.0  T
   3   -280.6597607  0.133393E-02  0.174E-01    0.06       1.0  T
   4   -280.6669781 -0.721742E-02  0.328E-02    0.03       1.0  T
   5   -280.6671296 -0.151439E-03  0.139E-02    0.03       1.0  T
   6   -280.6671612 -0.316538E-04  0.348E-03    0.03       2.9  T
   7   -280.6671611  0.971571E-07  0.267E-03    0.03       3.8  T
   8   -280.6671613 -0.174843E-06  0.222E-03    0.03       4.6  T
   9   -280.6671618 -0.548176E-06  0.106E-03    0.03       9.7  T
  10   -280.6671621 -0.227636E-06  0.286E-04    0.03      35.9  T
  11   -280.6671621 -0.347467E-08  0.203E-04    0.03      50.6  T
     SCC iter.                  ...        0 min,  0.934 sec
     gradient                   ...        0 min,  0.051 sec
 * total energy  :  -278.7474606 Eh     change       -0.2156044E-03 Eh
   gradient norm :     0.0063977 Eh/α   predicted    -0.2031173E-03 (  -5.79%)
   displ. norm   :     0.4038533 α      lambda       -0.2379641E-03
   maximum displ.:     0.1750068 α      in ANC's #2, #4, #16, ...

........................................................................
.............................. CYCLE   38 ..............................
........................................................................

 iter      E             dE          RMSdq      gap      omega  full diag
   1   -280.6681971 -0.280668E+03  0.614E-02    0.03       0.0  T
   2   -280.6618309  0.636616E-02  0.161E-01    0.05       1.0  T
   3   -280.6648716 -0.304062E-02  0.118E-01    0.05       1.0  T
   4   -280.6680992 -0.322763E-02  0.285E-02    0.03       1.0  T
   5   -280.6682301 -0.130904E-03  0.884E-03    0.03       1.2  T
   6   -280.6682405 -0.103966E-04  0.350E-03    0.03       2.9  T
   7   -280.6682426 -0.207031E-05  0.136E-03    0.03       7.6  T
   8   -280.6682426 -0.543080E-07  0.980E-04    0.03      10.5  T
   9   -280.6682427 -0.115631E-06  0.473E-04    0.03      21.7  T
     SCC iter.                  ...        0 min,  0.852 sec
     gradient                   ...        0 min,  0.032 sec
 * total energy  :  -278.7476464 Eh     change       -0.1857722E-03 Eh
   gradient norm :     0.0055777 Eh/α   predicted    -0.1383890E-03 ( -25.51%)
   displ. norm   :     0.5569879 α      lambda       -0.2677700E-03
   maximum displ.:     0.2395650 α      in ANC's #2, #4, #16, ...

........................................................................
.............................. CYCLE   39 ..............................
........................................................................

 iter      E             dE          RMSdq      gap      omega  full diag
   1   -280.6667774 -0.280667E+03  0.776E-02    0.03       0.0  T
   2   -280.6667489  0.284327E-04  0.481E-02    0.03       1.0  T
   3   -280.6527705  0.139784E-01  0.235E-01    0.07       1.0  T
   4   -280.6644108 -0.116403E-01  0.969E-02    0.04       1.0  T
   5   -280.6667688 -0.235795E-02  0.136E-02    0.03       1.0  T
   6   -280.6667840 -0.151665E-04  0.796E-03    0.03       1.3  T
   7   -280.6667944 -0.104207E-04  0.459E-03    0.03       2.2  T
   8   -280.6667976 -0.324454E-05  0.151E-03    0.03       6.8  T
   9   -280.6667973  0.320053E-06  0.137E-03    0.03       7.5  T
  10   -280.6667978 -0.453901E-06  0.332E-04    0.03      30.9  T
  11   -280.6667978 -0.253152E-08  0.258E-04    0.03      39.7  T
     SCC iter.                  ...        0 min,  0.873 sec
     gradient                   ...        0 min,  0.034 sec
 * total energy  :  -278.7478050 Eh     change       -0.1586450E-03 Eh
   gradient norm :     0.0071151 Eh/α   predicted    -0.1754240E-03 (  10.58%)
   displ. norm   :     0.4198200 α      lambda       -0.4276756E-03
   maximum displ.:     0.2269233 α      in ANC's #9, #2, #3, ...

........................................................................
.............................. CYCLE   40 ..............................
........................................................................

 iter      E             dE          RMSdq      gap      omega  full diag
   1   -280.6727242 -0.280673E+03  0.887E-02    0.03       0.0  T
   2   -280.6725086  0.215635E-03  0.634E-02    0.03       1.0  T
   3   -280.6412595  0.312491E-01  0.346E-01    0.13       1.0  T
   4   -280.6712064 -0.299469E-01  0.779E-02    0.03       1.0  T
   5   -280.6726792 -0.147280E-02  0.241E-02    0.03       1.0  T
   6   -280.6727006 -0.214559E-04  0.189E-02    0.03       1.0  T
   7   -280.6727782 -0.775163E-04  0.645E-03    0.03       1.6  T
   8   -280.6727832 -0.502229E-05  0.379E-03    0.03       2.7  T
   9   -280.6727846 -0.144260E-05  0.222E-03    0.03       4.6  T
  10   -280.6727854 -0.736633E-06  0.805E-04    0.03      12.7  T
  11   -280.6727854 -0.215933E-07  0.649E-04    0.03      15.8  T
     SCC iter.                  ...        0 min,  0.716 sec
     gradient                   ...        0 min,  0.034 sec
 * total energy  :  -278.7478361 Eh     change       -0.3104428E-04 Eh
   gradient norm :     0.0108754 Eh/α   predicted    -0.2515302E-03 ( 710.23%)
   displ. norm   :     0.2617574 α      lambda       -0.3854592E-03
   maximum displ.:     0.1101592 α      in ANC's #4, #10, #2, ...

........................................................................
.............................. CYCLE   41 ..............................
........................................................................

 iter      E             dE          RMSdq      gap      omega  full diag
   1   -280.6678698 -0.280668E+03  0.524E-02    0.03       0.0  T
   2   -280.6667390  0.113076E-02  0.773E-02    0.03       1.0  T
   3   -280.6610605  0.567848E-02  0.164E-01    0.06       1.0  T
   4   -280.6674673 -0.640681E-02  0.431E-02    0.03       1.0  T
   5   -280.6678403 -0.373000E-03  0.202E-02    0.03       1.0  T
   6   -280.6678945 -0.542182E-04  0.906E-03    0.03       1.1  T
   7   -280.6679102 -0.156480E-04  0.359E-03    0.03       2.9  T
   8   -280.6679112 -0.104171E-05  0.268E-03    0.03       3.8  T
   9   -280.6679116 -0.379113E-06  0.179E-03    0.03       5.7  T
  10   -280.6679123 -0.670648E-06  0.619E-04    0.03      16.6  T
  11   -280.6679123 -0.582562E-07  0.343E-04    0.03      29.9  T
     SCC iter.                  ...        0 min,  0.823 sec
     gradient                   ...        0 min,  0.033 sec
 * total energy  :  -278.7480081 Eh     change       -0.1720621E-03 Eh
   gradient norm :     0.0073324 Eh/α   predicted    -0.2059397E-03 (  19.69%)
   displ. norm   :     0.1663324 α      lambda       -0.2310759E-03
   maximum displ.:     0.0708514 α      in ANC's #16, #2, #17, ...

........................................................................
.............................. CYCLE   42 ..............................
........................................................................

 iter      E             dE          RMSdq      gap      omega  full diag
   1   -280.6667689 -0.280667E+03  0.465E-02    0.03       0.0  T
   2   -280.6482777  0.184912E-01  0.270E-01    0.09       1.0  T
   3   -280.6661992 -0.179216E-01  0.568E-02    0.03       1.0  T
   4   -280.6660778  0.121470E-03  0.554E-02    0.03       1.0  T
   5   -280.6668954 -0.817608E-03  0.125E-02    0.03       1.0  T
   6   -280.6668900  0.535970E-05  0.118E-02    0.03       1.0  T
   7   -280.6669251 -0.350498E-04  0.286E-03    0.03       3.6  T
   8   -280.6669251 -0.532613E-07  0.252E-03    0.03       4.1  T
   9   -280.6669255 -0.392679E-06  0.201E-03    0.03       5.1  T
  10   -280.6669265 -0.968261E-06  0.521E-04    0.03      19.7  T
  11   -280.6669265 -0.170073E-07  0.344E-04    0.03      29.8  T
     SCC iter.                  ...        0 min,  0.836 sec
     gradient                   ...        0 min,  0.034 sec
 * total energy  :  -278.7480854 Eh     change       -0.7725771E-04 Eh
   gradient norm :     0.0051655 Eh/α   predicted    -0.1187367E-03 (  53.69%)
   displ. norm   :     0.1578187 α      lambda       -0.1191788E-03
   maximum displ.:     0.0852241 α      in ANC's #2, #9, #3, ...
 * RMSD in coord.:     0.8489466 α      energy gain  -0.8826930E-02 Eh

generating ANC from exact Hessian ...
Using Lindh-Hessian (1995)
 Shifting diagonal of input Hessian by    9.9207481676582641E-003
 Lowest  eigenvalues of input Hessian
    0.000000    0.000000    0.000000    0.000000    0.000000    0.000000
    0.010000    0.010061    0.010199    0.010321    0.010475    0.010785
    0.010838    0.011038    0.011306    0.011704    0.011917    0.012495
 Highest eigenvalues
    2.266957    2.276811    2.281778    2.286166    2.287557    2.294207


........................................................................
.............................. CYCLE   43 ..............................
........................................................................

 iter      E             dE          RMSdq      gap      omega  full diag
   1   -280.6677475 -0.280668E+03  0.252E-02    0.03       0.0  T
   2   -280.6675882  0.159296E-03  0.284E-02    0.03       1.0  T
   3   -280.6642175  0.337073E-02  0.118E-01    0.04       1.0  T
   4   -280.6675625 -0.334502E-02  0.263E-02    0.03       1.0  T
   5   -280.6677378 -0.175249E-03  0.838E-03    0.03       1.2  T
   6   -280.6677464 -0.863462E-05  0.468E-03    0.03       2.2  T
   7   -280.6677518 -0.538753E-05  0.122E-03    0.03       8.4  T
   8   -280.6677515  0.285087E-06  0.146E-03    0.03       7.0  T
   9   -280.6677518 -0.301955E-06  0.882E-04    0.03      11.6  T
  10   -280.6677520 -0.204210E-06  0.163E-04    0.03      63.1  T
     SCC iter.                  ...        0 min,  0.899 sec
     gradient                   ...        0 min,  0.033 sec
 * total energy  :  -278.7481795 Eh     change       -0.9413883E-04 Eh
   gradient norm :     0.0032511 Eh/α   predicted     0.0000000E+00 (-100.00%)
   displ. norm   :     0.0538737 α      lambda       -0.5401645E-04
   maximum displ.:     0.0183640 α      in ANC's #16, #1, #12, ...

........................................................................
[...]
   
   for SPH calculations refer to:
   * S. Spicher and S. Grimme, J. Chem. Theory Comput., 2021, 17, 1701-1714
     DOI: 10.1021/acs.jctc.0c01306
   
   for ONIOM refer to:
   * C. Plett, A. Katbashev, S. Ehlert, S. Grimme, M. Bursch,
     Phys. Chem. Chem. Phys., 2023, 25, 17860-17868. DOI: 10.1039/D3CP02178E
   
   for DIPRO refer to:
   * J. Kohn, N. Gildemeister, S. Grimme, D. Fazzi, A. Hansen,
     J. Chem. Phys., 2023, just accepted.
   
   for PTB refer to:
   * S. Grimme, M. Mueller, A. Hansen, J. Chem. Phys., 2023, 158, 124111.
     DOI: 10.1063/5.0137838
   
   with help from (in alphabetical order)
   P. Atkinson, C. Bannwarth, F. Bohle, G. Brandenburg, E. Caldeweyher
   M. Checinski, S. Dohm, S. Ehlert, S. Ehrlich, I. Gerasimov, C. Hölzer
   A. Katbashev, J. Kohn, J. Koopman, C. Lavigne, S. Lehtola, F. März, M. Müller,
   F. Musil, H. Neugebauer, J. Pisarek, C. Plett, P. Pracht, F. Pultar,
   J. Seibert, P. Shushkov, S. Spicher, M. Stahn, M. Steiner, T. Strunk,
   J. Stückrath, T. Rose, and J. Unsleber
   
 * started run on 2025/03/13 at 12:06:19.213     
   ID    Z sym.   atoms
    1    6 C      1-9, 11, 12, 14-21, 24-32, 34, 35, 37-44, 96-104, 106, 107,
                  109-116, 119-127, 129, 130, 132-139
    2    7 N      10, 13, 33, 36, 105, 108, 128, 131
    3    8 O      22, 23, 45, 46, 117, 118, 140, 141
    4    5 B      47, 142
    5   16 S      48, 54, 60, 66, 72, 78, 143, 149, 155, 161, 167, 173
    6    9 F      49-53, 55-59, 61-65, 67-71, 73-77, 79-83, 144-148, 150-154,
                  156-160, 162-166, 168-172, 174-178
    7    1 H      84-95, 179-190

           -------------------------------------------------
          |                Calculation Setup                |
           -------------------------------------------------

          program call               : xtb opt_dimer.mol --dipro 0.3 --chrg 0 --uhf 2
          coordinate file            : opt_dimer.mol
          omp threads                :                     8


molecular fragmentation (1/2 indicates fragments):
111111111111111111111111111111111111111111111111111111111111111111111111
111111111111111111111112222222222222222222222222222222222222222222222222
2222222222222222222222222222222222222222222222
# atoms in fragment 1/2:    95    95
 fragment masses (1/2) :     1361.68     1361.68
CMA distance (Bohr)    :   9.504
constraining FC (au)   :  0.0500

           -------------------------------------------------
          |                 G F N 2 - x T B                 |
           -------------------------------------------------

        Reference                      10.1021/acs.jctc.8b01176
      * Hamiltonian:
        H0-scaling (s, p, d)           1.850000    2.230000    2.230000
        zeta-weighting                 0.500000
      * Dispersion:
        s8                             2.700000
        a1                             0.520000
        a2                             5.000000
        s9                             5.000000
      * Repulsion:
        kExp                           1.500000    1.000000
        rExp                           1.000000
      * Coulomb:
        alpha                          2.000000
        third order                    shell-resolved
        anisotropic                    true
        a3                             3.000000
        a5                             4.000000
        cn-shift                       1.200000
        cn-exp                         4.000000
        max-rad                        5.000000

q/qsh data taken from xtbrestart
CAMM data taken from xtbrestart
           -------------------------------------------------
          |                    D I P R O                    |
           -------------------------------------------------
Calculation for dimer 
--------------------- 
  
charge of dimer :   0.
unpaired e- of dimer :  2
repulsion energy          3.8525767318531E+00 Eh
dispersion energy         3.9185032636863E-02 Eh
number of electrons       9.1400000000000E+02 e
integral cutoff           1.9311100799991E+01 bohr

------------------------------------------------------------
  cycle        total energy    energy error   density error
------------------------------------------------------------
      1     -555.2291570877  -5.5912092E+02   2.8416903E-01
      2     -556.7982567058  -1.5690996E+00   1.5304477E-01
      3     -555.1461752495   1.6520815E+00   1.0595775E-01
      4     -540.3042885244   1.4841887E+01   1.3199908E-01
      5     -553.2173601804  -1.2913072E+01   7.6734379E-02
      6     -556.6265365294  -3.4091763E+00   4.9664103E-02
      7     -557.1472378440  -5.2070131E-01   3.4234543E-02
      8     -557.3508232859  -2.0358544E-01   2.7651894E-02
      9     -557.4945327903  -1.4370950E-01   2.4024676E-02
     10     -557.6490183228  -1.5448553E-01   1.4720027E-02
     11     -557.6459303116   3.0880112E-03   1.3989907E-02
     12     -557.4073678240   2.3856249E-01   2.1449809E-02
     13     -557.5626881594  -1.5532034E-01   1.5648555E-02
     14     -557.6752456909  -1.1255753E-01   6.3992017E-03
     15     -557.6771057477  -1.8600568E-03   5.2436119E-03
     16     -557.6882636677  -1.1157920E-02   3.6298508E-03
     17     -557.6924210892  -4.1574215E-03   1.9738876E-03
     18     -557.6922881188   1.3297041E-04   1.5131102E-03
     19     -557.6927952474  -5.0712868E-04   1.3520830E-03
     20     -557.6931327986  -3.3755113E-04   9.6223500E-04
     21     -557.6933906177  -2.5781917E-04   7.0789807E-04
     22     -557.6934714424  -8.0824677E-05   4.3279882E-04
     23     -557.6934740837  -2.6412904E-06   3.5556763E-04
     24     -557.6935045252  -3.0441556E-05   2.1442377E-04
     25     -557.6935120829  -7.5576542E-06   1.0685284E-04
     26     -557.6935134656  -1.3826786E-06   5.9748498E-05
     27     -557.6935145264  -1.0608212E-06   3.3935165E-05
     28     -557.6935149438  -4.1740498E-07   1.9710148E-05
------------------------------------------------------------

electronic energy        -5.6158527670830E+02 Eh
total energy             -5.5769351494381E+02 Eh

 total:                                   6.729 sec
 - repulsion                              0.000 sec (  0%)
 - dispersion                             0.011 sec (  0%)
 - coulomb                                0.004 sec (  0%)
 - hamiltonian                            0.018 sec (  0%)
 - scc                                    6.695 sec ( 99%)

Found 2 fragments!
Fragment 1:  1-95
Fragment 2:  96-190

[Info] Fragment spin read from .UHFfrag
Calculation for fragment 1
 ------------------------------
   
charge of fragment :   0.
unpaired e- of fragment :  1
------------------------------------------------------------
  cycle        total energy    energy error   density error
------------------------------------------------------------
      1     -277.5571221487  -2.7948827E+02   2.8365356E-01
      2     -278.0253987448  -4.6827660E-01   1.5263727E-01
      3     -271.0047562021   7.0206425E+00   1.4670892E-01
      4     -262.0292373025   8.9755189E+00   1.6897383E-01
      5     -278.0677016282  -1.6038464E+01   6.8113283E-02
      6     -278.6237666718  -5.5606504E-01   3.5727637E-02
      7     -278.6688297965  -4.5063125E-02   2.7824636E-02
      8     -278.7088365539  -4.0006757E-02   2.4050742E-02
      9     -278.7402836450  -3.1447091E-02   1.6666253E-02
     10     -278.7562910405  -1.6007396E-02   1.1534896E-02
     11     -278.7439218565   1.2369184E-02   8.4314681E-03
     12     -278.7308309676   1.3090889E-02   1.5025084E-02
     13     -278.7397261369  -8.8951693E-03   1.2799882E-02
     14     -278.7621693417  -2.2443205E-02   6.0319173E-03
     15     -278.7629694590  -8.0011726E-04   4.1630383E-03
     16     -278.7649769069  -2.0074479E-03   3.5926278E-03
     17     -278.7676169361  -2.6400292E-03   6.1963395E-04
     18     -278.7675534681   6.3467966E-05   1.1014740E-03
     19     -278.7677184652  -1.6499708E-04   2.0321668E-04
     20     -278.7677234127  -4.9474970E-06   1.8654806E-04
     21     -278.7677223897   1.0229872E-06   1.2520081E-04
     22     -278.7677271916  -4.8019087E-06   2.2574751E-05
     23     -278.7677272431  -5.1492577E-08   1.2452438E-05
------------------------------------------------------------

 total:                                   1.681 sec
Calculation for fragment 2
 ------------------------------
   
charge of fragment :   0.
unpaired e- of fragment :  1
------------------------------------------------------------
  cycle        total energy    energy error   density error
------------------------------------------------------------
      1     -277.5548717466  -2.7948059E+02   2.8479036E-01
      2     -277.9586581935  -4.0378645E-01   1.5306601E-01
      3     -268.8471091292   9.1115491E+00   1.5744528E-01
      4     -257.6653002719   1.1181809E+01   1.8546389E-01
      5     -278.1146164933  -2.0449316E+01   6.8214851E-02
      6     -278.6328698277  -5.1825333E-01   3.5541117E-02
      7     -278.5450972238   8.7772604E-02   3.5461865E-02
      8     -278.6778606411  -1.3276342E-01   2.5550420E-02
      9     -278.7416959126  -6.3835271E-02   1.7570034E-02
     10     -278.7132289189   2.8466994E-02   1.3639934E-02
     11     -278.7263462718  -1.3117353E-02   1.6669483E-02
     12     -278.7362948169  -9.9485450E-03   1.3399327E-02
     13     -278.7487159525  -1.2421136E-02   9.7187417E-03
     14     -278.7599529601  -1.1237008E-02   2.8359307E-03
     15     -278.7596132309   3.3972919E-04   3.7017392E-03
     16     -278.7620129493  -2.3997184E-03   1.6311351E-03
     17     -278.7622562370  -2.4328769E-04   7.0500189E-04
     18     -278.7621523440   1.0389299E-04   1.2957360E-03
     19     -278.7623866552  -2.3431122E-04   5.4275862E-04
     20     -278.7624243322  -3.7677037E-05   1.6094244E-04
     21     -278.7624257151  -1.3828948E-06   6.5077530E-05
     22     -278.7624259057  -1.9054522E-07   4.1793342E-05
     23     -278.7624259737  -6.7970802E-08   2.7162421E-05
     24     -278.7624261280  -1.5436473E-07   5.7070377E-06
------------------------------------------------------------

 total:                                   1.862 sec
   
   ::::::::::::::::::::::::::::::::::::::::::::::
   ::     D I P R O      C O U P L I N G S     ::
   ::::::::::::::::::::::::::::::::::::::::::::::
   
energy threshhold for near-degenerate orbitals near HOMO and LUMO considered for DIPRO:  0.300 eV
no. of orbitals within energy window of frag 1         6
no. of orbitals within energy window of frag 2         6
   
  Fragment 1 SOMO-3  Fragment 2 SOMO-3
--------------------------------------
E_mon(orb) frag1 frag2             -12.858   -12.653 eV
J(AB):               -0.011 eV
S(AB):             0.00040597 Eh
|J(AB,eff)|:            0.006 eV
   
  Fragment 1 SOMO-3  Fragment 2 SOMO-2
--------------------------------------
E_mon(orb) frag1 frag2             -12.858   -12.429 eV
J(AB):               -0.002 eV
S(AB):             0.00007560 Eh
|J(AB,eff)|:            0.001 eV
   
  Fragment 1 SOMO-3  Fragment 2 SOMO-1
--------------------------------------
E_mon(orb) frag1 frag2             -12.858   -12.408 eV
J(AB):                0.001 eV
S(AB):            -0.00004745 Eh
|J(AB,eff)|:            0.000 eV
   
  Fragment 1 SOMO-3  Fragment 2 SOMO 
--------------------------------------
E_mon(orb) frag1 frag2             -12.858   -12.467 eV
J(AB):               -0.015 eV
S(AB):             0.00055712 Eh
|J(AB,eff)|:            0.008 eV
   
  Fragment 1 SOMO-3  Fragment 2 LUMO 
--------------------------------------
E_mon(orb) frag1 frag2             -12.858   -12.158 eV
J(AB):               -0.008 eV
S(AB):             0.00021218 Eh
|J(AB,eff)|:            0.006 eV
   
  Fragment 1 SOMO-3  Fragment 2 LUMO+1
--------------------------------------
E_mon(orb) frag1 frag2             -12.858   -12.117 eV
J(AB):                0.021 eV
S(AB):            -0.00089059 Eh
|J(AB,eff)|:            0.010 eV
   
  Fragment 1 SOMO-2  Fragment 2 SOMO-3
--------------------------------------
E_mon(orb) frag1 frag2             -12.630   -12.653 eV
J(AB):               -0.013 eV
S(AB):             0.00046368 Eh
|J(AB,eff)|:            0.007 eV
   
  Fragment 1 SOMO-2  Fragment 2 SOMO-2
--------------------------------------
E_mon(orb) frag1 frag2             -12.630   -12.429 eV
J(AB):               -0.003 eV
S(AB):             0.00004908 Eh
|J(AB,eff)|:            0.003 eV
   
  Fragment 1 SOMO-2  Fragment 2 SOMO-1
--------------------------------------
E_mon(orb) frag1 frag2             -12.630   -12.408 eV
J(AB):               -0.007 eV
S(AB):             0.00029013 Eh
|J(AB,eff)|:            0.003 eV
   
  Fragment 1 SOMO-2  Fragment 2 SOMO 
--------------------------------------
E_mon(orb) frag1 frag2             -12.630   -12.467 eV
J(AB):                0.007 eV
S(AB):            -0.00025316 Eh
|J(AB,eff)|:            0.004 eV
   
  Fragment 1 SOMO-2  Fragment 2 LUMO 
--------------------------------------
E_mon(orb) frag1 frag2             -12.630   -12.158 eV
J(AB):               -0.000 eV
S(AB):             0.00007016 Eh
|J(AB,eff)|:            0.000 eV
   
  Fragment 1 SOMO-2  Fragment 2 LUMO+1
--------------------------------------
E_mon(orb) frag1 frag2             -12.630   -12.117 eV
J(AB):                0.022 eV
S(AB):            -0.00084540 Eh
|J(AB,eff)|:            0.012 eV
   
  Fragment 1 SOMO-1  Fragment 2 SOMO-3
--------------------------------------
E_mon(orb) frag1 frag2             -12.417   -12.653 eV
J(AB):                0.001 eV
S(AB):            -0.00004462 Eh
|J(AB,eff)|:            0.000 eV
   
  Fragment 1 SOMO-1  Fragment 2 SOMO-2
--------------------------------------
E_mon(orb) frag1 frag2             -12.417   -12.429 eV
J(AB):                0.007 eV
S(AB):            -0.00029791 Eh
|J(AB,eff)|:            0.003 eV
   
  Fragment 1 SOMO-1  Fragment 2 SOMO-1
--------------------------------------
E_mon(orb) frag1 frag2             -12.417   -12.408 eV
J(AB):                0.007 eV
S(AB):            -0.00031701 Eh
|J(AB,eff)|:            0.003 eV
   
  Fragment 1 SOMO-1  Fragment 2 SOMO 
--------------------------------------
E_mon(orb) frag1 frag2             -12.417   -12.467 eV
J(AB):               -0.001 eV
S(AB):             0.00003224 Eh
|J(AB,eff)|:            0.000 eV
   
  Fragment 1 SOMO-1  Fragment 2 LUMO 
--------------------------------------
E_mon(orb) frag1 frag2             -12.417   -12.158 eV
J(AB):                0.005 eV
S(AB):            -0.00016767 Eh
|J(AB,eff)|:            0.003 eV
   
  Fragment 1 SOMO-1  Fragment 2 LUMO+1
--------------------------------------
E_mon(orb) frag1 frag2             -12.417   -12.117 eV
J(AB):               -0.001 eV
S(AB):             0.00003232 Eh
|J(AB,eff)|:            0.000 eV
   
  Fragment 1 SOMO   Fragment 2 SOMO-3
--------------------------------------
E_mon(orb) frag1 frag2             -12.472   -12.653 eV
J(AB):               -0.011 eV
S(AB):             0.00041722 Eh
|J(AB,eff)|:            0.006 eV
   
  Fragment 1 SOMO   Fragment 2 SOMO-2
--------------------------------------
E_mon(orb) frag1 frag2             -12.472   -12.429 eV
J(AB):                0.004 eV
S(AB):            -0.00013362 Eh
|J(AB,eff)|:            0.003 eV
   
  Fragment 1 SOMO   Fragment 2 SOMO-1
--------------------------------------
E_mon(orb) frag1 frag2             -12.472   -12.408 eV
J(AB):               -0.001 eV
S(AB):             0.00003093 Eh
|J(AB,eff)|:            0.001 eV
   
  Fragment 1 SOMO   Fragment 2 SOMO 
--------------------------------------
E_mon(orb) frag1 frag2             -12.472   -12.467 eV
J(AB):               -0.008 eV
S(AB):             0.00023122 Eh
|J(AB,eff)|:            0.005 eV
   
  Fragment 1 SOMO   Fragment 2 LUMO 
--------------------------------------
E_mon(orb) frag1 frag2             -12.472   -12.158 eV
J(AB):                0.034 eV
S(AB):            -0.00130573 Eh
|J(AB,eff)|:            0.018 eV
   
  Fragment 1 SOMO   Fragment 2 LUMO+1
--------------------------------------
E_mon(orb) frag1 frag2             -12.472   -12.117 eV
J(AB):                0.015 eV
S(AB):            -0.00055153 Eh
|J(AB,eff)|:            0.008 eV
   
  Fragment 1 LUMO   Fragment 2 SOMO-3
--------------------------------------
E_mon(orb) frag1 frag2             -12.177   -12.653 eV
J(AB):                0.008 eV
S(AB):            -0.00028134 Eh
|J(AB,eff)|:            0.004 eV
   
  Fragment 1 LUMO   Fragment 2 SOMO-2
--------------------------------------
E_mon(orb) frag1 frag2             -12.177   -12.429 eV
J(AB):                0.015 eV
S(AB):            -0.00050594 Eh
|J(AB,eff)|:            0.008 eV
   
  Fragment 1 LUMO   Fragment 2 SOMO-1
--------------------------------------
E_mon(orb) frag1 frag2             -12.177   -12.408 eV
J(AB):                0.002 eV
S(AB):            -0.00008817 Eh
|J(AB,eff)|:            0.001 eV
   
  Fragment 1 LUMO   Fragment 2 SOMO 
--------------------------------------
E_mon(orb) frag1 frag2             -12.177   -12.467 eV
J(AB):                0.034 eV
S(AB):            -0.00128083 Eh
|J(AB,eff)|:            0.018 eV
   
  Fragment 1 LUMO   Fragment 2 LUMO 
--------------------------------------
E_mon(orb) frag1 frag2             -12.177   -12.158 eV
J(AB):               -0.111 eV
S(AB):             0.00393194 Eh
|J(AB,eff)|:            0.063 eV
   
  Fragment 1 LUMO   Fragment 2 LUMO+1
--------------------------------------
E_mon(orb) frag1 frag2             -12.177   -12.117 eV
J(AB):               -0.046 eV
S(AB):             0.00159587 Eh
|J(AB,eff)|:            0.026 eV
   
  Fragment 1 LUMO+1  Fragment 2 SOMO-3
--------------------------------------
E_mon(orb) frag1 frag2             -12.135   -12.653 eV
J(AB):               -0.015 eV
S(AB):             0.00055794 Eh
|J(AB,eff)|:            0.008 eV
   
  Fragment 1 LUMO+1  Fragment 2 SOMO-2
--------------------------------------
E_mon(orb) frag1 frag2             -12.135   -12.429 eV
J(AB):               -0.011 eV
S(AB):             0.00037279 Eh
|J(AB,eff)|:            0.006 eV
   
  Fragment 1 LUMO+1  Fragment 2 SOMO-1
--------------------------------------
E_mon(orb) frag1 frag2             -12.135   -12.408 eV
J(AB):               -0.001 eV
S(AB):             0.00002608 Eh
|J(AB,eff)|:            0.000 eV
   
  Fragment 1 LUMO+1  Fragment 2 SOMO 
--------------------------------------
E_mon(orb) frag1 frag2             -12.135   -12.467 eV
J(AB):               -0.017 eV
S(AB):             0.00062605 Eh
|J(AB,eff)|:            0.009 eV
   
  Fragment 1 LUMO+1  Fragment 2 LUMO 
--------------------------------------
E_mon(orb) frag1 frag2             -12.135   -12.158 eV
J(AB):                0.047 eV
S(AB):            -0.00166392 Eh
|J(AB,eff)|:            0.027 eV
   
  Fragment 1 LUMO+1  Fragment 2 LUMO+1
--------------------------------------
E_mon(orb) frag1 frag2             -12.135   -12.117 eV
J(AB):                0.035 eV
S(AB):            -0.00131137 Eh
|J(AB,eff)|:            0.019 eV
   
..............................................................................
:  total |J(AB,eff)| for hole transport (occ. MOs) :               0.016 eV  :
:  total |J(AB,eff)| for charge transport (unocc. MOs) :           0.076 eV  :
:  total |J(AB,eff)| for charge transfer (CT) :                    0.035 eV  :
..............................................................................
  
 Please remember, DIPRO is not available for restart!
   
normal termination of dipro
----------------------------------------------------------
 * finished run on 2025/03/13 at 12:06:29.542     
----------------------------------------------------------
 dipro:
 * wall-time:     0 d,  0 h,  0 min, 10.318 sec
 *  cpu-time:     0 d,  0 h,  0 min, 39.086 sec
 * ratio c/w:     3.788 speedup
Reorganization energy (electron): 0.1803916159338298 eV
Reorganization energy (hole): 0.23435573252150466 eV
Electron Transfer integral J: 0.076 eV
Hole Transfer integral J: 0.016 eV
