116
 energy: -213.866186951753 gnorm: 0.154371321967 xtb: 6.7.1 (edcfbbe)
C           -2.48300000000000        2.62380000000000       -1.91890000000000
C           -2.18500000000000        1.39920000000000       -1.33620000000000
C           -1.33990000000000        1.38490000000000       -0.17360000000000
C           -0.57340000000000        2.54810000000000        0.12440000000000
C           -0.91680000000000        3.75330000000000       -0.50860000000000
C           -1.88390000000000        3.79980000000000       -1.48640000000000
C           -1.15820000000000        0.24270000000000        0.66750000000000
C            0.02520000000000        0.19390000000000        1.40820000000000
C            0.84180000000000        1.35590000000000        1.50140000000000
N            0.49700000000000        2.53680000000000        0.95070000000000
C           -2.06220000000000       -0.85080000000000        0.83560000000000
C           -1.54740000000000       -2.05880000000000        1.38530000000000
N           -0.33340000000000       -2.14490000000000        1.97770000000000
C            0.40150000000000       -1.01720000000000        2.05560000000000
C            1.60620000000000       -1.03350000000000        2.76380000000000
C            2.41240000000000        0.08650000000000        2.84140000000000
C            2.02920000000000        1.26590000000000        2.23120000000000
C           -3.47290000000000       -0.73270000000000        0.60340000000000
C           -4.24600000000000       -1.88460000000000        0.65760000000000
C           -3.70470000000000       -3.10510000000000        1.04240000000000
C           -2.38660000000000       -3.18210000000000        1.42480000000000
O           -4.00490000000000        0.53880000000000        0.43300000000000
O           -2.68240000000000        0.24050000000000       -1.96210000000000
C           -2.25330000000000        5.09090000000000       -2.10980000000000
C           -4.57750000000000       -4.29420000000000        1.13960000000000
H           -0.42910000000000        4.66240000000000       -0.20210000000000
H           -3.15800000000000        2.65240000000000       -2.75420000000000
H            2.66160000000000        2.13050000000000        2.31690000000000
H            1.92000000000000       -1.93620000000000        3.25570000000000
H           -2.00370000000000       -4.11110000000000        1.80560000000000
H           -5.29790000000000       -1.85130000000000        0.44620000000000
O           -2.05100000000000        6.12840000000000       -1.50880000000000
O           -2.82170000000000        5.02770000000000       -3.34970000000000
C           -3.06830000000000        6.31440000000000       -3.81500000000000
C            3.69330000000000        0.01890000000000        3.57310000000000
O            3.96310000000000       -0.97080000000000        4.22570000000000
O            4.51010000000000        1.10750000000000        3.46200000000000
C            5.64660000000000        0.91170000000000        4.23320000000000
O           -5.74070000000000       -4.21880000000000        0.79360000000000
O           -4.00250000000000       -5.42710000000000        1.63950000000000
C           -4.95150000000000       -6.44150000000000        1.69360000000000
C           -5.37290000000000        0.58350000000000        0.11860000000000
C           -1.69270000000000       -0.71080000000000       -2.29530000000000
H           -4.48880000000000       -7.34240000000000        2.10240000000000
H           -5.32290000000000       -6.63060000000000        0.68330000000000
H           -5.77690000000000       -6.11700000000000        2.33240000000000
H            6.32240000000000        1.75920000000000        4.10060000000000
H            6.13020000000000       -0.01890000000000        3.92490000000000
H            5.33180000000000        0.83610000000000        5.27560000000000
H           -2.17210000000000       -1.54050000000000       -2.81570000000000
H           -1.20290000000000       -1.08370000000000       -1.39730000000000
H           -0.95540000000000       -0.24600000000000       -2.95090000000000
H           -5.64810000000000        1.62690000000000       -0.04170000000000
H           -5.95690000000000        0.18290000000000        0.94830000000000
H           -5.55370000000000        0.02090000000000       -0.79880000000000
H           -3.50830000000000        6.25520000000000       -4.81280000000000
H           -2.12290000000000        6.86170000000000       -3.85150000000000
H           -3.75450000000000        6.81440000000000       -3.12730000000000
C           -2.72800000000000        2.13590000000000        3.53540000000000
C           -2.40180000000000        1.07080000000000        4.36790000000000
C           -1.19090000000000        1.14270000000000        5.14230000000000
C           -0.23930000000000        2.15170000000000        4.81440000000000
C           -0.62400000000000        3.18130000000000        3.94370000000000
C           -1.85800000000000        3.20010000000000        3.34190000000000
C           -0.83340000000000        0.21720000000000        6.17530000000000
C            0.52700000000000        0.13060000000000        6.49720000000000
C            1.42790000000000        1.13270000000000        6.04040000000000
N            1.03430000000000        2.16300000000000        5.26900000000000
C           -1.71000000000000       -0.62160000000000        6.93610000000000
C           -1.14090000000000       -1.74840000000000        7.59610000000000
N            0.18960000000000       -1.92650000000000        7.75160000000000
C            0.99560000000000       -0.94200000000000        7.30840000000000
C            2.35200000000000       -0.97200000000000        7.64530000000000
C            3.22200000000000        0.02480000000000        7.24650000000000
C            2.76160000000000        1.06390000000000        6.45740000000000
C           -3.10310000000000       -0.33500000000000        7.13360000000000
C           -3.90290000000000       -1.31730000000000        7.70480000000000
C           -3.36380000000000       -2.50230000000000        8.19030000000000
C           -2.00340000000000       -2.69300000000000        8.16960000000000
O           -3.56790000000000        0.93560000000000        6.81760000000000
O           -3.26410000000000       -0.04120000000000        4.33910000000000
C           -2.20480000000000        4.32590000000000        2.44700000000000
C           -4.24550000000000       -3.52530000000000        8.79280000000000
H            0.07040000000000        3.97250000000000        3.72490000000000
H           -3.64690000000000        2.09920000000000        2.97970000000000
H            3.44070000000000        1.83870000000000        6.15400000000000
H            2.72770000000000       -1.77460000000000        8.25400000000000
H           -1.58990000000000       -3.57610000000000        8.62150000000000
H           -4.95990000000000       -1.16930000000000        7.81850000000000
O           -1.38000000000000        5.19580000000000        2.24160000000000
O           -3.45150000000000        4.32190000000000        1.89120000000000
C           -3.61030000000000        5.45990000000000        1.10770000000000
C            4.63230000000000       -0.03030000000000        7.69530000000000
O            4.98350000000000       -0.91960000000000        8.44690000000000
O            5.47010000000000        0.94670000000000        7.23910000000000
C            6.73520000000000        0.75810000000000        7.78560000000000
O           -5.44640000000000       -3.34020000000000        8.83530000000000
O           -3.62770000000000       -4.64390000000000        9.27480000000000
C           -4.57730000000000       -5.50280000000000        9.81640000000000
C           -4.96540000000000        1.08170000000000        6.83420000000000
C           -2.61960000000000       -1.27040000000000        4.10240000000000
H           -4.07710000000000       -6.39900000000000       10.18950000000000
H           -5.29760000000000       -5.76780000000000        9.03860000000000
H           -5.09140000000000       -4.98950000000000       10.63270000000000
H            7.40610000000000        1.53980000000000        7.42330000000000
H            7.10480000000000       -0.22680000000000        7.48920000000000
H            6.65670000000000        0.80440000000000        8.87460000000000
H           -3.29410000000000       -1.90410000000000        3.52690000000000
H           -2.37890000000000       -1.76440000000000        5.04190000000000
H           -1.71220000000000       -1.08320000000000        3.53020000000000
H           -5.20590000000000        2.08280000000000        6.47420000000000
H           -5.33910000000000        0.96840000000000        7.85270000000000
H           -5.41410000000000        0.34490000000000        6.16580000000000
H           -4.57970000000000        5.42100000000000        0.60680000000000
H           -2.80430000000000        5.49250000000000        0.37020000000000
H           -3.54880000000000        6.34170000000000        1.75000000000000
116
 energy: -213.895382068073 gnorm: 0.068974286411 xtb: 6.7.1 (edcfbbe)
C           -2.47859944393226        2.60670999193628       -1.93139263089089
C           -2.18414014364701        1.39670791733532       -1.33715851100961
C           -1.34862708569594        1.37805469312008       -0.18595031146382
C           -0.58135572448512        2.54355213184041        0.12148056144006
C           -0.91817869634296        3.75792085679539       -0.50564992057803
C           -1.88365057967411        3.79257141508772       -1.48645653625156
C           -1.16625766480742        0.24635074504375        0.66396031995980
C            0.01920003914792        0.19828969722969        1.40491788661682
C            0.83636524933909        1.36261619844100        1.49501579054459
N            0.47614904978190        2.52820569860382        0.94819856040755
C           -2.07350615007829       -0.84142621291194        0.83720307822979
C           -1.54411865479124       -2.05374655314947        1.37807404388702
N           -0.32612975546949       -2.13661004897526        1.94311701392223
C            0.39819253192722       -1.01551069477603        2.05102768514693
C            1.60638827026202       -1.03774350200136        2.76517980029765
C            2.40852012116173        0.09235770173205        2.83567974215864
C            2.03072492033641        1.28081727639659        2.22690277271678
C           -3.47310967045917       -0.73645064417100        0.60090940001784
C           -4.24487644724858       -1.88107476553638        0.66004816459620
C           -3.68904861653645       -3.10683422154294        1.04168918486813
C           -2.37006197098359       -3.19148269791994        1.42193075116219
O           -3.99464857140257        0.51656139284565        0.42512945901868
O           -2.68038919390544        0.24871314201283       -1.94319512404548
C           -2.24014408620372        5.09294892538112       -2.09646662576864
C           -4.58631024966556       -4.27848194171076        1.12677657847892
H           -0.40948656202216        4.66195178458872       -0.20886908204876
H           -3.15874596144114        2.63493474228984       -2.76625526338239
H            2.65932476029002        2.14971163534219        2.31447239140416
H            1.92060824894804       -1.94531912893882        3.25506968311183
H           -1.98113963782673       -4.11632621150069        1.81054919546721
H           -5.29999956837214       -1.85697459242107        0.44689683573711
O           -2.03927537570509        6.13803462113927       -1.52215104888693
O           -2.80459296129062        5.02914856373693       -3.32123695161616
C           -3.07072983076647        6.31771813633788       -3.82073478160516
C            3.68078570321257        0.00293127005707        3.58093485577090
O            3.96753734512091       -0.97217308456211        4.23719610831823
O            4.48946388684887        1.07415996028127        3.45694111929630
C            5.65793660807390        0.91245636778030        4.22206184246527
O           -5.74673453593678       -4.21817244837874        0.79053630047559
O           -4.02133811069006       -5.39965999545306        1.62382238748489
C           -4.95555397340223       -6.44883920968073        1.69395528630686
C           -5.36735547573830        0.58116644713739        0.11771784499572
C           -1.69127126682575       -0.70182344095300       -2.29059106526591
H           -4.46760478137892       -7.33158611443338        2.10422851366941
H           -5.33989414740818       -6.65865846353083        0.69211193879218
H           -5.79096919217426       -6.14714212954199        2.33184161053523
H            6.31011905920620        1.77059740619325        4.07070909841338
H            6.16271608370648       -0.01236596613608        3.93052907492128
H            5.37458033579103        0.83821540279768        5.27149328957864
H           -2.19124098698543       -1.51918889147872       -2.80903108244697
H           -1.18815044510659       -1.10030214301520       -1.40803523512278
H           -0.95087369909641       -0.25059794054154       -2.95743017181842
H           -5.61783891250810        1.63068633827973       -0.03605473096902
H           -5.96738492863120        0.18824177655581        0.94318726018636
H           -5.57202569322171        0.02617807328213       -0.80116471118596
H           -3.50860863181432        6.23019322227589       -4.81372660849357
H           -2.13755413829229        6.88583292862862       -3.86805073145261
H           -3.75826985880187        6.83604412320967       -3.14675574528452
C           -2.73163851850178        2.12095998137777        3.53209714820931
C           -2.40341764038289        1.07257064071487        4.36994059664069
C           -1.20246329893594        1.13083986980236        5.13365396543774
C           -0.24466502481034        2.14336241101915        4.81005605729341
C           -0.62000251771974        3.18436631476691        3.94385161298054
C           -1.85834726081209        3.19607590093667        3.34719265781848
C           -0.84123174268297        0.21917320207350        6.17462648154336
C            0.52102536943446        0.13229112640029        6.49530657724240
C            1.42407790920791        1.13094848195932        6.02875453563991
N            1.01720083456262        2.15368093669102        5.27152518680827
C           -1.71853588930497       -0.60863412783998        6.94144237768226
C           -1.13896828675582       -1.73884402670540        7.59901029613832
N            0.18353586433232       -1.91230464138028        7.74121803989323
C            0.99085149512830       -0.93752978980473        7.31199550433399
C            2.35257134103001       -0.97764879717272        7.64724009127771
C            3.21781136527776        0.02876989334415        7.24368867111756
C            2.76461556311878        1.07312916891934        6.44811544815485
C           -3.10415979955357       -0.33656185725234        7.13729785043710
C           -3.90039669421997       -1.31157105884966        7.70869508748815
C           -3.34956280452926       -2.50498566857136        8.18829942006381
C           -1.98965562914576       -2.70124659559175        8.17110419115090
O           -3.56296624937643        0.91296861075569        6.81467712493238
O           -3.25692444413855       -0.02265032419621        4.34701632734344
C           -2.18299436379740        4.32871890164294        2.45355335815241
C           -4.25655040325185       -3.50888471819378        8.78371321176105
H            0.08224482251967        3.97167856705273        3.72346292220394
H           -3.65530270900604        2.08498714151640        2.97866879101133
H            3.43785112112445        1.85881472089813        6.14977261182422
H            2.72666937289136       -1.78440903535658        8.25627624707943
H           -1.56734500365778       -3.58023334049553        8.62586204904802
H           -4.96207335606164       -1.17313622994416        7.82134400277265
O           -1.38270436021786        5.20992515159531        2.24593770864461
O           -3.41820944360810        4.31941478140326        1.90752908002715
C           -3.61838667440544        5.46413098499150        1.11139594837560
C            4.61851791503856       -0.04922820786295        7.71658212826699
O            4.98695454190848       -0.92768439967526        8.45846418890156
O            5.44584064094553        0.92718969233781        7.27862127056355
C            6.74384344429537        0.76030656411619        7.79539250279587
O           -5.45321497542398       -3.33904783492833        8.83539104386569
O           -3.64847064379804       -4.61597329848637        9.26247617587603
C           -4.58142124768934       -5.50860494551463        9.81984244214376
C           -4.96149861627967        1.07999176969433        6.83360700744652
C           -2.62237196606311       -1.26279568629647        4.11965111048579
H           -4.05542743258980       -6.39024045451868       10.18312145982887
H           -5.31252225106963       -5.79106677414274        9.05747211555624
H           -5.10716333927935       -5.01617350063506       10.64240246231140
H            7.38586965902134        1.55234763664618        7.41230061024119
H            7.13105714689716       -0.21826324814218        7.49895785667694
H            6.69649652574523        0.80241899887498        8.88618504704498
H           -3.30372324729124       -1.88444510092342        3.53846162058597
H           -2.38310601188314       -1.77793905403697        5.05069612055629
H           -1.70623122037213       -1.10437404713508        3.55563674460241
H           -5.17588788989525        2.08503514156177        6.47131949323939
H           -5.35080358944532        0.97579562323064        7.85003771350712
H           -5.43156621262139        0.35226325702057        6.16751682993182
H           -4.59000541505254        5.39785893791631        0.62426213329434
H           -2.82353518636382        5.52876908154658        0.36656531130302
H           -3.56730440487423        6.35830373239215        1.73707686963288
116
 energy: -213.907207668803 gnorm: 0.017403228864 xtb: 6.7.1 (edcfbbe)
C           -2.47356246304364        2.59857750332543       -1.94401874468147
C           -2.18041110796478        1.39629289612232       -1.34129997964636
C           -1.35588436475141        1.37424352076075       -0.19444935647409
C           -0.58736954473426        2.54137276769881        0.12055482164780
C           -0.91783533729361        3.76138384710317       -0.50644039272335
C           -1.88222464225824        3.78984194795366       -1.48811263304437
C           -1.17162266510415        0.24954645659540        0.66275166376956
C            0.01534907996533        0.20213750239789        1.40376451571507
C            0.83255031851227        1.36866301431328        1.49407997939623
N            0.45909282633455        2.52108735031614        0.94749913190605
C           -2.08308237038385       -0.83460598658668        0.83765701987321
C           -1.54148106206657       -2.05166890525110        1.36726293072649
N           -0.31986201938815       -2.13058685740081        1.90793996283164
C            0.39800462874466       -1.01603553377290        2.04132116538697
C            1.60665347347260       -1.03973893253658        2.76339532258153
C            2.40289335093727        0.09781071431016        2.83448879659763
C            2.03221267354829        1.29234598869598        2.22851898708984
C           -3.47622114922651       -0.74013532302645        0.59978558749847
C           -4.24252126338080       -1.88484948625654        0.66004213510213
C           -3.67501866268308       -3.11268392794976        1.03963220720907
C           -2.35607639888323       -3.20260190446570        1.41521486067625
O           -3.98950560615041        0.49583332001584        0.41616348705417
O           -2.67497479789117        0.25379040269208       -1.92680921837921
C           -2.22244027903311        5.10142176184071       -2.08602685280690
C           -4.60134058534310       -4.26541165539596        1.11565357691580
H           -0.39366076875405        4.65838596522597       -0.21398600622528
H           -3.14990617964119        2.62506959682763       -2.78350776676995
H            2.65598319720030        2.16528389069666        2.31560178451592
H            1.91949535539011       -1.94924398894983        3.25237306094968
H           -1.95531880593900       -4.12157775160434        1.80668954955511
H           -5.29905010073169       -1.87451479215797        0.44814831997800
O           -2.01370021903375        6.15332440891280       -1.53104366907765
O           -2.78874596967828        5.03812729640204       -3.29671932757214
C           -3.07542315046264        6.32276786396500       -3.83220149565203
C            3.67160598519403       -0.01774790112951        3.59127591328868
O            3.96283977834728       -0.98217204167525        4.25712252128107
O            4.47539985636838        1.03847265112690        3.45915725513335
C            5.67673535561134        0.91519039127395        4.20906377640211
O           -5.75980965569300       -4.21093230204079        0.78008651987847
O           -4.04695673358462       -5.37965100576427        1.60731547564217
C           -4.96163628020766       -6.46179956861835        1.69418703240906
C           -5.36438861823462        0.58603996462053        0.11516935366761
C           -1.69270639063871       -0.69831347972372       -2.29141617101380
H           -4.43365697358538       -7.31807679371518        2.10728694785904
H           -5.35289749400194       -6.69158872718283        0.69943088428875
H           -5.80143139695964       -6.18026606417575        2.33561006864187
H            6.29251994834900        1.79154905488795        4.02017468998196
H            6.19970299668867       -0.00053780138464        3.92173152762998
H            5.42611485036786        0.84768961374416        5.26758801353186
H           -2.21644127982976       -1.50092715332923       -2.80900577335607
H           -1.17463178668585       -1.11769433594424       -1.42447830774443
H           -0.95333543749610       -0.25294507132909       -2.96596087536001
H           -5.58156103680709        1.64366173367755       -0.03032508237916
H           -5.97592638100083        0.20126701369585        0.93802644489759
H           -5.59234636570845        0.03839085328180       -0.80425033468314
H           -3.51120727079873        6.18949570783546       -4.81922256618021
H           -2.15236256713561        6.90609483375928       -3.89316478975499
H           -3.76722208289977        6.85199779419818       -3.17108451366108
C           -2.73149382361827        2.11319337357831        3.52448641678717
C           -2.40083308057841        1.07117823922348        4.36470666320281
C           -1.20999002256852        1.12090833750972        5.12656791284350
C           -0.24643016910592        2.13600306705153        4.80685608081269
C           -0.61412573249326        3.18357036651778        3.94086440148892
C           -1.85476406036128        3.19390054049523        3.34763780105889
C           -0.84553804504106        0.22032306191244        6.17578055644664
C            0.51843954638478        0.13248594306365        6.49450425970899
C            1.42428578994286        1.12784624075106        6.02168858931319
N            1.00616944394657        2.14187312443075        5.27172573926901
C           -1.72637646349973       -0.59725594206738        6.94875706179445
C           -1.14013377543367       -1.73192159447004        7.60341176508066
N            0.17539089468436       -1.89964969115183        7.73551826842446
C            0.98710719887074       -0.93556396318090        7.31478958796620
C            2.35219257034439       -0.98096077373832        7.64983235556751
C            3.21359918611929        0.03225979290893        7.24578978465689
C            2.76999812828296        1.07859618384265        6.44484163010555
C           -3.10817408572614       -0.33644660239798        7.14415752552766
C           -3.89898479931784       -1.31165950308731        7.71409889460750
C           -3.33884767535083       -2.50977247243339        8.19004407868514
C           -1.98097909861659       -2.70931714183888        8.17601080744742
O           -3.56260426637101        0.89344094760845        6.81311438338764
O           -3.24735146698062       -0.01033217309664        4.34836127747195
C           -2.16053825654883        4.34254798143102        2.46429351903505
C           -4.27444026994049       -3.49394194509044        8.77836630836847
H            0.09414034911224        3.96677041795945        3.72343344717719
H           -3.65668561203736        2.07679077675275        2.97149264392194
H            3.43568641518645        1.87293273668719        6.14831006017340
H            2.72387707787088       -1.79059126345353        8.25755158969063
H           -1.54560747144257       -3.58333582900979        8.62875463412404
H           -4.96287018101448       -1.18625668603261        7.82932863222441
O           -1.37463224513875        5.23244033961796        2.25727342442529
O           -3.38445330801220        4.32510075841988        1.92043695092807
C           -3.63266671280517        5.47296210259412        1.11655058985473
C            4.60669269536005       -0.07100673264857        7.74376829760768
O            4.98609868642809       -0.94650058360159        8.47788028362563
O            5.42631406528455        0.90598564640677        7.32123814205684
C            6.75418142520795        0.76474753445011        7.80758740297959
O           -5.46967892787962       -3.33072649106060        8.83168604607759
O           -3.67715512729268       -4.59346640213106        9.25414535114858
C           -4.58826683289381       -5.51918375582619        9.82572346030587
C           -4.95980133334172        1.08635879961499        6.83149844392025
C           -2.62863160310532       -1.26353453986944        4.14016737271318
H           -4.02133507821380       -6.37964768896835       10.17406620615296
H           -5.32462434094219       -5.81975253573289        9.07524925689967
H           -5.11915697783592       -5.04564437055562       10.65614064378821
H            7.35468794261610        1.57340220204672        7.39541069618764
H            7.15633027084390       -0.20567577371813        7.50487551971963
H            6.74064226727440        0.80695031243789        8.89964224349106
H           -3.31909340370846       -1.86781490449650        3.55102650684767
H           -2.40719200916291       -1.79113720568114        5.07090482264879
H           -1.69708366903039       -1.13474170215945        3.59174498464479
H           -5.13970134322998        2.09625251446333        6.46542146396590
H           -5.36065873548517        0.99213145329147        7.84593789881457
H           -5.45075360849050        0.36726069117174        6.16887103919514
H           -4.60888913202738        5.36021037249829        0.64990619515102
H           -2.84843766541838        5.56937988750866        0.36438189627193
H           -3.60314995364338        6.37188418434778        1.73664674988329
116
 energy: -213.911225828001 gnorm: 0.015995115022 xtb: 6.7.1 (edcfbbe)
C           -2.46400016694136        2.60303228178326       -1.95265444123506
C           -2.17650719010459        1.40046072630712       -1.34502704095970
C           -1.35782391673749        1.37654739066140       -0.19455916899167
C           -0.58789878603792        2.54306100064695        0.12322984687708
C           -0.91304807479681        3.76362254638885       -0.50686376650158
C           -1.87382321499754        3.79420427005156       -1.49146064767973
C           -1.17305494595423        0.25055812827378        0.66178184670061
C            0.01385968289679        0.20265136221726        1.40349842627951
C            0.83036789461095        1.37001695672654        1.49963039917018
N            0.45396823861532        2.52040746337475        0.95301046650370
C           -2.08487503615587       -0.83514474851686        0.83285907130699
C           -1.53945362201758       -2.05536180947420        1.35272339022262
N           -0.31459291184249       -2.13413145322105        1.88219502471523
C            0.39932581867915       -1.01973530599445        2.03091090300889
C            1.60549217457479       -1.04286903302878        2.75870411045686
C            2.39737567422911        0.09715095159210        2.84067097984344
C            2.03009240585684        1.29383850355890        2.23704620286640
C           -3.47821510520390       -0.74308747631391        0.59509796891045
C           -4.24105760650009       -1.89062740337135        0.65686128533034
C           -3.67102872523305       -3.11913751232985        1.03324962208441
C           -2.35028941666064       -3.21099075916877        1.40124844490487
O           -3.98763773776504        0.48984715805737        0.40731919200228
O           -2.67408340151504        0.25732871343017       -1.92245785061872
C           -2.20290866467314        5.11135701883512       -2.08746090460921
C           -4.61076155046702       -4.26471264297261        1.10209954226969
H           -0.38192464529337        4.65598352462512       -0.21479744154626
H           -3.13184264571743        2.62668174417428       -2.79920355111652
H            2.64909559821026        2.17035798611827        2.32575039568699
H            1.91758057593893       -1.95336300244498        3.24557357829991
H           -1.93780732873947       -4.12691106170306        1.78832659183992
H           -5.29780423041699       -1.88751808013451        0.44699499864157
O           -1.98044272525638        6.16525007956433       -1.53974884304507