116
 energy: -22.928061455056 gnorm: 0.329736929581 xtb: 6.6.1 (8d0f1dd)
C           -3.31122850772930        0.79849766164622       -0.92477639677520
C           -2.44380812530352       -0.12270372891954       -0.27661132624697
C           -1.41337090092821        0.39579727573559        0.56335275196199
C           -0.89266158675590        1.65801491088749        0.27377586709581
C           -1.72665675402493        2.51431363229076       -0.49448366572522
C           -2.95444148494349        2.13954154133227       -1.01494489940871
C           -0.74098268209890       -0.43411532818871        1.49825021926784
C            0.56872586496315        0.03782116815119        1.86248088067890
C            1.03782416582094        1.29402317993033        1.50887470833621
N            0.31238977034758        2.07067427098208        0.65193736800696
C           -1.29695700510141       -1.39996043042223        2.41574187746061
C           -0.38243517664656       -2.18060797534842        3.13232615520648
N            0.91308504082021       -1.90366887689689        3.30325166013478
C            1.37712470144904       -0.74872102533751        2.81811050966982
C            2.52149331701875       -0.17739833758153        3.39379298866852
C            2.95849061756259        1.02681208890480        2.95105897606587
C            2.24288949469137        1.78498308775960        2.03503020483770
C           -2.74860936222260       -1.74497937691422        2.38401158947411
C           -3.09416315450955       -2.91614440870436        3.00571134491758
C           -2.16786021984049       -3.77788778654213        3.63251872101904
C           -0.85708937311598       -3.40495313382985        3.68547234358092
O           -3.71994433332149       -0.94984598373544        1.67726658385724
O           -2.55702603277562       -1.47241711578389       -0.57241635275616
C           -3.84297843593025        3.13357444054366       -1.60938954875544
C           -2.68769581069131       -5.03867041417370        4.30484659386931
H           -1.39666850744143        3.51251503834900       -0.76806311868865
H           -4.27662633836220        0.55105838579656       -1.33106614114542
H            2.66329581305412        2.73912661909249        1.72562431984580
H            3.05775395548473       -0.69369546277216        4.16536137542516
H           -0.24710966264510       -4.12034095424229        4.22946223699121
H           -4.11477991332403       -3.04712728052358        3.03244694615357
O           -4.21824883374556        4.03433712717988       -0.87713382485991
O           -4.44510595673734        2.90643496899600       -2.81853501752979
C           -5.44216520282800        3.83300025693726       -3.02488532025093
C            4.23586651889298        1.50004220933226        3.59165660008449
O            5.05927614697201        0.66079890002952        3.91714215179376
O            4.47001334453535        2.86385149488593        3.72605651435371
C            5.79457498613219        3.08584475587818        4.15829123132174
O           -3.82227255313510       -5.27347675879771        4.16636005494405
O           -1.85023202017753       -5.79767454267276        5.06656077253571
C           -2.55119635829503       -6.86252441382958        5.62930343183426
C           -5.07197156564436       -1.42399175670916        1.58830531863830
C           -1.33089900128490       -2.23622472573986       -0.99264499351172
H           -2.54510546830388       -7.76426885143998        4.99136022291012
H           -3.57194749219491       -6.44405511486021        5.74196173723541
H           -2.09133598235598       -7.02043774843818        6.64022264233588
H            5.72707967266424        3.46798026205549        5.10135971236643
H            6.34060091246885        3.78468702308830        3.50069950143490
H            6.17933064298187        2.03010500085905        4.19342358084693
H           -0.91862729772622       -2.57650129080332       -0.01361370304871
H           -0.49769766914251       -1.60651221708571       -1.34094446550576
H           -1.52632419730509       -2.94569707152159       -1.75361447637286
H           -5.11788846557077       -2.41810833635233        1.17520213188926
H           -5.67929807973498       -0.69619639428435        1.04301666067831
H           -5.57598832326623       -1.42383358739762        2.57928294206544
H           -6.13050215934830        3.76035386975488       -2.23272855695873
H           -5.86615610071888        3.45938329385866       -4.02668959924245
H           -5.13479557532099        4.87790991548477       -2.98314551356402
C           -1.38192942069774        3.73616555005018        2.91232598411686
C           -1.84821468128685        2.59982427735607        3.49755545445181
C           -1.05946531454833        2.05730632010638        4.60922730982276
C            0.19893954712228        2.69376791964407        4.86302140881997
C            0.50425395911860        3.94630308659851        4.28768785650746
C           -0.26031777722226        4.46998310053134        3.25072669343212
C           -1.20488993561782        0.74454293276906        5.14851520323437
C           -0.06287609782692        0.02744069315890        5.60930570802864
C            1.19208754369866        0.71421540266195        5.78882868583885
N            1.19428660993148        2.06344359410476        5.62744624321596
C           -2.41361422770794        0.07928500213936        5.25249410304426
C           -2.45851584031083       -1.32662100968547        5.60237876023992
N           -1.29466212405906       -1.98318595734370        5.89916817085159
C           -0.14475655767527       -1.32117560077092        5.98824682881008
C            0.97209270935794       -1.98958449505532        6.53157704134458
C            2.21982707914082       -1.36973967291181        6.68703967237737
C            2.30561929262884       -0.09745313075593        6.26436900324455
C           -3.73018485967715        0.71367583494582        5.25810242262992
C           -4.89964478833448       -0.06184623426677        5.21204641615509
C           -4.82617965800088       -1.39228978090841        5.46901303780036
C           -3.67144193418464       -1.98914944386360        5.67265433266067
O           -3.75568638935321        2.07705011038914        5.52067969627343
O           -2.94192434743730        1.91263938797883        3.01658762327703
C            0.21273512614467        5.50086066357994        2.34765104514621
C           -6.06660304520411       -2.17604633098929        5.80641622556876
H            1.41756699010566        4.38133362238595        4.66974005703471
H           -1.82880610647429        4.11982501512100        2.06992133318584
H            3.26888037378556        0.32655662585251        6.31721410015598
H            0.87146188387207       -3.08471526305024        6.57830423410869
H           -3.67716811065157       -3.05999292755990        5.83019634570050
H           -5.77379677507622        0.43595144608221        4.71017130754348
O            1.34459852619901        5.82615848916894        2.44941456579099
O           -0.74718748219123        6.07961784856304        1.59848183464284
C           -0.21473095568964        7.24015934882472        1.05753806029483
C            3.53228080814219       -2.00967610361154        7.02506769044485
O            3.64093082622715       -3.14437803815732        7.50071391725347
O            4.56565258381079       -1.22937033368332        6.69086985080897
C            5.72579357310716       -1.80692399125161        7.22246151275881
O           -7.04801223588612       -1.95726935745904        5.14194115322235
O           -6.01514389321278       -2.93743591896022        6.94765316328794
C           -7.21292732384718       -3.62681918543340        7.15115816329978
C           -4.95459780685163        2.65960679932188        5.86868674392943
C           -3.68284113682406        2.59129188358641        2.05479246020704
H           -7.43119628931628       -4.22607794725959        6.20622607140901
H           -8.06548455146707       -2.91765848248592        7.29781126410398
H           -7.07314693247270       -4.33087306029711        7.91223421050944
H            6.57332189837178       -1.29353136199234        6.78341268688262
H            5.74663761932316       -2.84282155125561        6.88089468184451
H            5.69426191474290       -1.72781984964892        8.29460302186842
H           -4.10481209541493        3.44288266176275        2.60483747673152
H           -4.49244774344916        1.87419893016926        1.82433103764650
H           -3.18901540870812        2.85154642679373        1.06781919454921
H           -5.55414326821421        2.76698137191684        4.93950725322359
H           -4.78658370641210        3.62090640967288        6.25983200635257
H           -5.43485580473958        1.97242995129449        6.65265772412460
H            0.89164886030839        7.38838561720231        1.13776105146914
H           -0.62894889903848        8.04195665205089        1.64837664327952
H           -0.59282546386754        7.45699159724320        0.03719083132488
116
 energy: -22.729170809951 gnorm: 0.474784471381 xtb: 6.6.1 (8d0f1dd)
C           -2.35332204255648        0.95763285441354       -1.55977740532155
C           -1.73309603625507       -0.01278814225570       -0.91375520809744
C           -0.98156571064757        0.29472819118353        0.25705130918927
C           -0.72819813097928        1.69646647492897        0.42373766780295
C           -1.45074805891619        2.71667292284621       -0.20922300620781
C           -2.22615764128966        2.33778515772976       -1.34621714358920
C           -0.51073138163690       -0.56885340850164        1.37020963373263
C            0.72155522935306       -0.22602342945659        1.91148685152405
C            1.11765841155180        1.14792591378780        1.74141477133657
N            0.26273552612011        2.17378860547705        1.32518981040931
C           -1.11632569120817       -1.70264586405687        1.92871085185860
C           -0.44677496097042       -2.50921275206621        2.87382052338838
N            0.87491076762037       -2.30353365952818        3.10319402554932
C            1.39106248827351       -1.08925386424086        2.79885197046584
C            2.69333070530418       -0.69340687377681        3.24798919247486
C            3.17258649139356        0.53189063363636        2.74061042138801
C            2.37424954556081        1.52587281872325        2.17257190575265
C           -2.52245872497105       -1.82439407851354        1.87326390171745
C           -3.26369917040569       -2.76898328053511        2.57956201260149
C           -2.62206360128112       -3.55472121292585        3.54452939110347
C           -1.23770312434660       -3.18571832744139        3.75455214395162
O           -3.31107035983194       -0.92914982297449        1.10977843768649
O           -1.72699522646563       -1.38452606502773       -1.38168103959215
C           -2.79503443703480        3.46355467833969       -2.05788164401361
C           -3.53691893772319       -4.42647686727883        4.40102900943420
H           -1.13855711348163        3.76606201121283       -0.00803015547919
H           -2.94896311714087        0.65130504973985       -2.39622340949822
H            2.83928703193771        2.52309532337852        2.03675059727002
H            3.32759184973410       -1.20032582376120        3.89159481733733
H           -0.59287972600696       -3.51833604957358        4.55713502261414
H           -4.19712778065698       -3.11368066427781        2.10955570796317
O           -2.03664352881890        4.43432152422757       -2.33548701249679
O           -4.18653432621475        3.46757089199439       -2.22263266855160
C           -4.63290203342280        4.59280028580171       -3.03872351933562
C            4.59450658343081        0.57479197488955        3.06631007852197
O            5.25035091381539       -0.44517084165147        2.94719520063363
O            5.18420930521417        1.79657414019127        3.22435166654182
C            6.63096832179379        1.83524920278137        3.17114462529151
O           -4.81989997581324       -4.42379918146302        4.33336661503313
O           -2.88910619606970       -5.07600642110790        5.41767580753554
C           -3.62780421517742       -6.06675105666804        5.97845817016804
C           -4.21587723229848       -1.44182273660218        0.17538775457989
C           -0.45274806010952       -1.90499773647998       -1.54902723156344
H           -3.93108119587019       -6.71852025213686        5.08452798832079
H           -4.62538838536178       -5.63065712169742        6.49797944215114
H           -2.97030368144305       -6.70495171616442        6.70103713074709
H            7.24863185362042        0.92398416541914        2.89917256020060
H            7.25773224537072        2.50840696865348        3.77121719646540
H            6.72945313817414        2.19219195712243        2.17818187178212
H            0.29188693752445       -1.75300101928565       -0.78320929648358
H           -0.18601570058020       -1.25417063441036       -2.40210818434014
H           -0.41143980688168       -2.96982539154070       -1.83030170465895
H           -3.88682470391271       -1.03510678254784       -0.84880226071676
H           -5.22167717618436       -1.05210362940445        0.40752433837814
H           -4.15750512719775       -2.52478394307718       -0.08014814453119
H           -4.20952185718985        5.45108791484226       -2.36712635734374
H           -5.60953273553098        4.62019557699834       -3.39723105453686
H           -4.03371827411281        4.54695026953006       -3.91585246579094
C           -2.64183678913409        3.67704757659281        3.24972237028125
C           -2.70439361705611        2.51606772552540        3.96735446172484
C           -1.71614928416810        2.15813730158590        4.90812460685691
C           -0.50077352803875        2.88731077500276        4.81004707134556
C           -0.40196351861224        4.04685754416882        4.08888057654382
C           -1.54355997994972        4.53441978243028        3.36010690301116
C           -1.64825206587200        0.85838304008191        5.54638199685886
C           -0.28087458804090        0.42180432416738        5.81026613495929
C            0.83889956781663        1.21317442121923        5.72828920938813
N            0.71725652291051        2.47432045569202        5.36921178433678
C           -2.70646235595860        0.13509479661076        6.27939138887422
C           -2.50725335412013       -1.15883184331975        6.46865992568649
N           -1.29688199529500       -1.68717505769614        6.54272625999555
C           -0.22063688451684       -0.90863963939460        6.30786880039389
C            0.99466808378786       -1.35218679882907        6.67406435920341
C            2.21251326999129       -0.68298096770027        6.66750762174447
C            2.04394810291079        0.59748496528317        6.21948452133281
C           -3.95633322344279        0.72952383057018        6.68888363140278
C           -5.08516361473984       -0.17301317111906        6.56387216706729
C           -4.92195870120816       -1.55191670016277        6.52218528080572
C           -3.61624177587964       -2.05175311119692        6.58103188604953
O           -4.21729450433860        1.99714372076316        7.37835976020443
O           -3.66074912229343        1.60083700897862        3.68786395768082
C           -1.42707908902009        5.59681031787710        2.35313944108051
C           -5.96336167894890       -2.51331049307773        6.59908051388671
H            0.50079508865654        4.51849097204814        3.95956725952822
H           -3.37686955008117        3.82156884020948        2.43842487162561
H            3.00204614375053        1.22741506607489        6.05179159668472
H            1.01382837032103       -2.31391166801732        7.08057804789847
H           -3.45857345439811       -2.97330288659153        7.10289525589577
H           -6.03689252773221        0.25709800884029        6.53756025806634
O           -1.59426919842317        6.76589099882688        2.63926001400775
O           -0.98837122456468        5.18191356948020        1.08081741406113
C           -1.06432755779525        6.48011324620834        0.41575307400930
C            3.49831138081328       -1.37385332670822        6.86994604826593
O            3.73407254882732       -2.35762954818913        7.56050535220576
O            4.48562862041221       -0.67690209514684        6.19806230470660
C            5.77641009945088       -1.27262911688053        6.50061655694637
O           -7.04755545799587       -2.07769949782615        6.99528610763586
O           -5.82451242420651       -3.87630985426365        6.51904758306456
C           -7.10345411021357       -4.59158424463085        6.46250540623145
C           -3.14097182410967        2.73722724869038        7.49633607512278
C           -3.60962100606086        1.07114270651108        2.41764429707049
H           -7.20871838025352       -4.83391966211413        5.41799686020855
H           -7.91852321719136       -3.84691083050448        6.73019120682426
H           -7.16817154443844       -5.46242549972970        6.94340538106594
H            6.25817308830471       -1.87286796280636        5.78205233488624
H            5.85315245062976       -1.77650188748399        7.48083967893843
H            6.58317749729504       -0.48123570738957        6.50983026380397
H           -4.58465731673653        0.57765056431871        2.30277413503390
H           -2.73322837403579        0.50169233682578        2.06593091540958
H           -3.64681963189976        1.89834082340433        1.73297205864460
H           -2.45664234759276        2.16095055629019        8.15989532046977
H           -3.36878653352320        3.77122871087904        7.97201805021559
H           -2.64198334621926        2.98645611974083        6.50645223977818
H           -1.80779181039449        6.50409146801593       -0.29661374940276
H           -0.23458164403361        6.55648099975338       -0.34975371628815
H           -1.24454766668612        7.45862812080369        0.95732964364800
116
 energy: -22.731720297768 gnorm: 0.494477230541 xtb: 6.6.1 (8d0f1dd)
C           -1.95479310852339        1.39934054139936       -1.33910115126177
C           -1.67658482699763        0.54347492397599       -0.29588251191788
C           -0.67164498893655        0.68065363634440        0.68898326497714
C            0.23687998116386        1.60585961336993        0.28842752952066
C           -0.03495292782185        2.55911348054393       -0.82701482527204
C           -1.18147341417307        2.50845217563606       -1.61735605993797
C           -0.42499655596253       -0.32342520211539        1.59340462666072
C            0.89821090980972       -0.27847092360359        1.94986417957087
C            1.80853879743578        0.73943480031288        1.58985730396147
N            1.46274329601269        1.79964246120667        0.82324877590867
C           -1.16704043862203       -1.36797274872974        2.12791702191849
C           -0.44159112269528       -2.47595180467492        2.74334712629658
N            0.87299605157284       -2.44336061995508        3.06638298143815
C            1.56056028241764       -1.38132223603912        2.65909339986784
C            2.84881859437895       -1.29805194853316        3.23445302533957
C            3.68882482078171       -0.16645346992339        3.01330180872537
C            3.15295995047575        0.81323351011748        2.21012427352058
C           -2.63103107252640       -1.29924878128165        2.23167305612468
C           -3.24532715933347       -2.49218616374833        2.57164578417355
C           -2.56807522708274       -3.62546534275505        2.94875755190207
C           -1.13712600459038       -3.68522867970877        2.88135806447305
O           -3.41853676403075       -0.22119855423785        1.78645192425760
O           -2.26934892639505       -0.80241995393546       -0.51249814806452
C           -1.68734436717682        3.62395165130560       -2.62713934073926
C           -3.40519292776407       -4.65752574776217        3.69995215886533
H            0.40197793475328        3.58220466459517       -0.90866699192738
H           -2.85201783269309        1.52239499564723       -1.87538644208612
H            3.54900900476464        1.86531122752405        2.10874915611684
H            3.02129493948322       -2.17480325050864        3.80142629012548
H           -0.58501813536419       -4.60850984022635        3.25326296231093
H           -4.37254134763847       -2.52964858678390        2.55771634039183
O           -1.42176104489330        4.76664974601430       -2.56000897103060
O           -2.62112130713995        3.03554182458365       -3.41906949959585
C           -3.42157071281655        3.99037410823000       -4.23848638563843
C            5.13343498471952        0.06570756623639        3.39600233156766
O            5.70284349348683       -0.85517377063110        3.91307617490541
O            5.64459961420510        1.27114752439831        2.83152019137022
C            6.94421990381825        1.34918393243164        3.20043752189551
O           -4.57249080262895       -4.61786965032000        3.56141000258075
O           -2.65523081314041       -5.39115035816080        4.48628905247732
C           -3.53652822550581       -6.34981236586480        5.09627147398165
C           -4.52573133690638       -0.69181810760761        0.91035987891675
C           -1.62080181857814       -1.62048489564046       -1.33138058037905
H           -3.08277964026109       -7.28075957685301        4.91114489364522
H           -4.47551596318041       -6.25988460829288        4.65396823418892
H           -3.65095894641604       -5.99217222333957        6.15146094375691
H            6.91060002888770        2.36489272431825        3.71323266665515
H            7.44394957362965        1.70367436917231        2.33133576027991
H            7.26493132465516        0.36900277340125        3.68862023711902
H           -2.36484703879345       -1.94011219350365       -2.13940897743916
H           -1.19326135713565       -2.49021952841242       -0.89853238092220
H           -0.88967521238572       -1.09820261679222       -1.88731001922665
H           -4.07857833946093       -0.93096234500355       -0.03530047426422
H           -5.18417299200162        0.18026007295627        0.74207812260812
H           -5.04957547370451       -1.60080377538345        1.35562479769549
H           -3.45034393542809        3.87198600530748       -5.27921727501893
H           -3.22399080937315        4.97963696266079       -3.89137192108057
H           -4.34335501495419        3.74395582173928       -3.57189682936414
C           -3.11069522683394        3.56856431733098        3.26191932531686
C           -3.07127069054218        2.41283537492142        4.03258889371548
C           -1.71308764123223        2.02235525128368        4.58762803282525
C           -0.66450820658495        2.97094374489876        4.55262912001603
C           -0.86070422214693        4.12756438233583        3.73022807037464
C           -2.04772312383453        4.40146076917781        3.16234484303403
C           -1.64145870688000        0.84394686195635        5.38096088350201
C           -0.39976931589775        0.25556725764510        5.52319615797950
C            0.67199688519006        1.12952739944024        5.35682432038345
N            0.55911976516966        2.45536770140073        4.85448778709879
C           -2.68626413267367        0.12003558844819        6.03624128425404
C           -2.41227543589572       -1.28950479376408        6.26698189201867
N           -1.25592659714413       -1.86154965798802        6.54965560587846
C           -0.22626390935683       -1.06597590878379        6.12175941674070
C            1.10349912861200       -1.44615451670770        6.41877915963501
C            2.22681106368927       -0.61018673884695        6.07459327260023
C            1.97207294779883        0.62198300961521        5.67597761915333
C           -3.91040253555513        0.64267011169703        6.47988587506170
C           -5.04155696192313       -0.23150303559338        6.68571947260793
C           -4.78851124392473       -1.62123341029617        6.86519946529918
C           -3.57736392852559       -2.12931987315719        6.65237799477663
O           -4.13890805040435        1.94308943895402        6.78368313595664
O           -4.08034246304216        1.50689324774310        3.95138088496989
C           -2.17929404481757        5.55392442693727        2.30418231163940
C           -5.95641240771086       -2.51551877677714        7.32954545246608
H           -0.01111803556016        4.76799178000196        3.47874746453721
H           -4.09470421148931        3.77953369062272        2.76405779793237
H            2.70199202879184        1.51929594005189        5.69490291091779
H            1.25581230019694       -2.35571614124361        6.96071269264939
H           -3.50379685160624       -3.17797670126414        6.97860412847560
H           -6.02385868249744        0.18564389849013        6.81369245163621
O           -1.12925635429614        6.12543389196725        2.05448372282921
O           -3.38309316962091        6.02650386334617        1.92164578860902
C           -3.28734546381145        6.73411866131046        0.75474112404033
C            3.48661201571570       -0.92404643947285        6.82614192399602
O            3.47831865293665       -2.08776572752349        7.25144896894937
O            4.54380284821734       -0.06917101016455        6.91571936323843
C            5.58267162112415       -0.95302393500005        7.36393036055284
O           -7.12090105266168       -2.15135193965326        7.12588322101942
O           -5.61672474770466       -3.88386825859692        7.50463780399096
C           -6.85057687903466       -4.43729615335552        7.53339279566019
C           -2.91229924622495        2.61950656565433        7.27346397452663
C           -5.47370897289430        2.09466560201560        3.82820445473822
H           -7.37029651239803       -4.37659933962897        8.49199082954662
H           -6.69567822361042       -5.50402247677907        7.49689876540070
H           -7.47751391141721       -4.09577370509037        6.70239830968972
H            6.02545359433114       -1.24810572640333        6.41359440810363
H            5.36657992482438       -1.84455268170752        7.96814977112173
H            6.44384253836669       -0.36802948953541        7.97200926080037
H           -5.79797619920486        2.28469189195272        4.90093627902442
H           -6.03767622092455        1.35542990215229        3.22048523202484
H           -5.61806134170518        3.04126776200154        3.21824825793071
H           -2.01192349365373        1.83022499131236        7.40207849327152
H           -2.95960488670622        3.05294193178885        8.26084547638003
H           -2.63699299814592        3.36447114154492        6.42787760099108
H           -4.20412808567535        6.93392401333085        0.23995151764916
H           -2.62462099702739        6.30386761564540       -0.00486333880467
H           -2.75677396562416        7.75063805827248        1.06681649583529
116
 energy: -22.762820571973 gnorm: 0.487235097530 xtb: 6.6.1 (8d0f1dd)
C           -1.98842357771757        1.65514158268315       -1.14481521794851
C           -1.49860314926780        0.59982989989092       -0.29233894571973
C           -0.29718836331181        0.81499112070945        0.46274929882295
C            0.49805955751404        1.95195971530958        0.19011644368746
C            0.05315293714236        2.86599886915329       -0.76419466313275
C           -1.16729345800914        2.79105759398325       -1.38882846772665
C            0.18628341321989       -0.15747553051780        1.45840933707579
C            1.49386644848079       -0.12517715158606        1.80014022479859
C            2.24151335400923        1.08666469319573        1.50502708642723
N            1.74702500705828        2.19737774185709        0.74099670061282
C           -0.63332228292663       -1.15775192769877        2.05130437927816
C           -0.08763395079119       -2.17456249077664        2.75729527514237
N            1.21295090969107       -2.32274202341288        2.91772299241857
C            1.93806569300173       -1.22796185885605        2.59174849303618
C            3.26209893437201       -0.91778277664379        3.10839597566452
C            4.00164893235125        0.23653358522066        2.75182994278589
C            3.41640933582550        1.28515781016898        2.05569201661710
C           -2.02755834406698       -1.02271832954141        2.26458608338390
C           -2.84756185542355       -2.01458546708932        2.75674367414542
C           -2.28879460593200       -3.24746207019960        3.10452863585891
C           -0.93181956987871       -3.26375362360036        3.27780980333053
O           -2.81164660630718        0.05398897522262        1.85814990567356
O           -1.85083606256488       -0.71335742429526       -0.35892662788374
C           -1.41523797373108        3.54700506279636       -2.53940285542313
C           -3.04856636436519       -4.31821528139714        3.75208153104809
H            0.64447964804214        3.72388768819895       -0.92959408774585
H           -2.85537108453074        1.49397496884778       -1.74076958374281
H            4.06129819571342        2.16772089951465        1.75316592373500
H            3.76174527179289       -1.63323769297852        3.79286133778861
H           -0.35156903308361       -4.22777544978802        3.52776598223836
H           -3.96812716330514       -1.83280634406292        2.75843478543224
O           -1.71308594892757        4.77096101298833       -2.56472990451556