116
 energy: -22.928061455056 gnorm: 0.329736929581 xtb: 6.6.1 (8d0f1dd)
C           -3.31122850772930        0.79849766164622       -0.92477639677520
C           -2.44380812530352       -0.12270372891954       -0.27661132624697
C           -1.41337090092821        0.39579727573559        0.56335275196199
C           -0.89266158675590        1.65801491088749        0.27377586709581
C           -1.72665675402493        2.51431363229076       -0.49448366572522
C           -2.95444148494349        2.13954154133227       -1.01494489940871
C           -0.74098268209890       -0.43411532818871        1.49825021926784
C            0.56872586496315        0.03782116815119        1.86248088067890
C            1.03782416582094        1.29402317993033        1.50887470833621
N            0.31238977034758        2.07067427098208        0.65193736800696
C           -1.29695700510141       -1.39996043042223        2.41574187746061
C           -0.38243517664656       -2.18060797534842        3.13232615520648
N            0.91308504082021       -1.90366887689689        3.30325166013478
C            1.37712470144904       -0.74872102533751        2.81811050966982
C            2.52149331701875       -0.17739833758153        3.39379298866852
C            2.95849061756259        1.02681208890480        2.95105897606587
C            2.24288949469137        1.78498308775960        2.03503020483770
C           -2.74860936222260       -1.74497937691422        2.38401158947411
C           -3.09416315450955       -2.91614440870436        3.00571134491758
C           -2.16786021984049       -3.77788778654213        3.63251872101904
C           -0.85708937311598       -3.40495313382985        3.68547234358092
O           -3.71994433332149       -0.94984598373544        1.67726658385724
O           -2.55702603277562       -1.47241711578389       -0.57241635275616
C           -3.84297843593025        3.13357444054366       -1.60938954875544
C           -2.68769581069131       -5.03867041417370        4.30484659386931
H           -1.39666850744143        3.51251503834900       -0.76806311868865
H           -4.27662633836220        0.55105838579656       -1.33106614114542
H            2.66329581305412        2.73912661909249        1.72562431984580
H            3.05775395548473       -0.69369546277216        4.16536137542516
H           -0.24710966264510       -4.12034095424229        4.22946223699121
H           -4.11477991332403       -3.04712728052358        3.03244694615357
O           -4.21824883374556        4.03433712717988       -0.87713382485991
O           -4.44510595673734        2.90643496899600       -2.81853501752979
C           -5.44216520282800        3.83300025693726       -3.02488532025093
C            4.23586651889298        1.50004220933226        3.59165660008449
O            5.05927614697201        0.66079890002952        3.91714215179376
O            4.47001334453535        2.86385149488593        3.72605651435371
C            5.79457498613219        3.08584475587818        4.15829123132174
O           -3.82227255313510       -5.27347675879771        4.16636005494405
O           -1.85023202017753       -5.79767454267276        5.06656077253571
C           -2.55119635829503       -6.86252441382958        5.62930343183426
C           -5.07197156564436       -1.42399175670916        1.58830531863830
C           -1.33089900128490       -2.23622472573986       -0.99264499351172
H           -2.54510546830388       -7.76426885143998        4.99136022291012
H           -3.57194749219491       -6.44405511486021        5.74196173723541
H           -2.09133598235598       -7.02043774843818        6.64022264233588
H            5.72707967266424        3.46798026205549        5.10135971236643
H            6.34060091246885        3.78468702308830        3.50069950143490
H            6.17933064298187        2.03010500085905        4.19342358084693
H           -0.91862729772622       -2.57650129080332       -0.01361370304871
H           -0.49769766914251       -1.60651221708571       -1.34094446550576
H           -1.52632419730509       -2.94569707152159       -1.75361447637286
H           -5.11788846557077       -2.41810833635233        1.17520213188926
H           -5.67929807973498       -0.69619639428435        1.04301666067831
H           -5.57598832326623       -1.42383358739762        2.57928294206544
H           -6.13050215934830        3.76035386975488       -2.23272855695873
H           -5.86615610071888        3.45938329385866       -4.02668959924245
H           -5.13479557532099        4.87790991548477       -2.98314551356402
C           -1.38192942069774        3.73616555005018        2.91232598411686
C           -1.84821468128685        2.59982427735607        3.49755545445181
C           -1.05946531454833        2.05730632010638        4.60922730982276
C            0.19893954712228        2.69376791964407        4.86302140881997
C            0.50425395911860        3.94630308659851        4.28768785650746
C           -0.26031777722226        4.46998310053134        3.25072669343212
C           -1.20488993561782        0.74454293276906        5.14851520323437
C           -0.06287609782692        0.02744069315890        5.60930570802864
C            1.19208754369866        0.71421540266195        5.78882868583885
N            1.19428660993148        2.06344359410476        5.62744624321596
C           -2.41361422770794        0.07928500213936        5.25249410304426
C           -2.45851584031083       -1.32662100968547        5.60237876023992
N           -1.29466212405906       -1.98318595734370        5.89916817085159
C           -0.14475655767527       -1.32117560077092        5.98824682881008
C            0.97209270935794       -1.98958449505532        6.53157704134458
C            2.21982707914082       -1.36973967291181        6.68703967237737
C            2.30561929262884       -0.09745313075593        6.26436900324455
C           -3.73018485967715        0.71367583494582        5.25810242262992
C           -4.89964478833448       -0.06184623426677        5.21204641615509
C           -4.82617965800088       -1.39228978090841        5.46901303780036
C           -3.67144193418464       -1.98914944386360        5.67265433266067
O           -3.75568638935321        2.07705011038914        5.52067969627343
O           -2.94192434743730        1.91263938797883        3.01658762327703
C            0.21273512614467        5.50086066357994        2.34765104514621
C           -6.06660304520411       -2.17604633098929        5.80641622556876
H            1.41756699010566        4.38133362238595        4.66974005703471
H           -1.82880610647429        4.11982501512100        2.06992133318584
H            3.26888037378556        0.32655662585251        6.31721410015598
H            0.87146188387207       -3.08471526305024        6.57830423410869
H           -3.67716811065157       -3.05999292755990        5.83019634570050
H           -5.77379677507622        0.43595144608221        4.71017130754348
O            1.34459852619901        5.82615848916894        2.44941456579099
O           -0.74718748219123        6.07961784856304        1.59848183464284
C           -0.21473095568964        7.24015934882472        1.05753806029483
C            3.53228080814219       -2.00967610361154        7.02506769044485
O            3.64093082622715       -3.14437803815732        7.50071391725347
O            4.56565258381079       -1.22937033368332        6.69086985080897
C            5.72579357310716       -1.80692399125161        7.22246151275881
O           -7.04801223588612       -1.95726935745904        5.14194115322235
O           -6.01514389321278       -2.93743591896022        6.94765316328794
C           -7.21292732384718       -3.62681918543340        7.15115816329978
C           -4.95459780685163        2.65960679932188        5.86868674392943
C           -3.68284113682406        2.59129188358641        2.05479246020704
H           -7.43119628931628       -4.22607794725959        6.20622607140901
H           -8.06548455146707       -2.91765848248592        7.29781126410398
H           -7.07314693247270       -4.33087306029711        7.91223421050944
H            6.57332189837178       -1.29353136199234        6.78341268688262
H            5.74663761932316       -2.84282155125561        6.88089468184451
H            5.69426191474290       -1.72781984964892        8.29460302186842
H           -4.10481209541493        3.44288266176275        2.60483747673152
H           -4.49244774344916        1.87419893016926        1.82433103764650
H           -3.18901540870812        2.85154642679373        1.06781919454921
H           -5.55414326821421        2.76698137191684        4.93950725322359
H           -4.78658370641210        3.62090640967288        6.25983200635257
H           -5.43485580473958        1.97242995129449        6.65265772412460
H            0.89164886030839        7.38838561720231        1.13776105146914
H           -0.62894889903848        8.04195665205089        1.64837664327952
H           -0.59282546386754        7.45699159724320        0.03719083132488
116
 energy: -22.617795118158 gnorm: 0.506460655483 xtb: 6.6.1 (8d0f1dd)
C           -2.87275768375231        0.83255852480000       -0.68148777759253
C           -2.00482994273672       -0.18702774720355       -0.32899219117905
C           -0.90880120096549        0.10911261300472        0.59772658613299
C           -0.51002148476344        1.41360887308979        0.62374478961490
C           -1.32531699575107        2.44426593489690       -0.00911315652026
C           -2.51813913001515        2.17528958203535       -0.64461191329289
C           -0.24666371865149       -0.80357348069324        1.53605087192194
C            1.01610026600410       -0.45041452252683        1.90132176523569
C            1.46981226173703        0.84213970664409        1.72598466436076
N            0.60122656508105        1.82911633932637        1.28920674737533
C           -0.82324647780575       -2.01466920689945        1.99398159009541
C            0.07975989641026       -3.01241312749211        2.43855359636918
N            1.36826339908287       -2.78442719774853        2.63550939034515
C            1.78592248204140       -1.55395977731685        2.46473267093735
C            3.17393619996548       -1.31725047754480        2.56166371536007
C            3.67064582262737       -0.05842849852017        2.28661150482799
C            2.88408533087116        1.03186132572799        1.98538130994221
C           -2.23544136000178       -2.07937515257293        2.19514442204468
C           -2.69724518884331       -3.28488322171184        2.77651332084572
C           -1.78794516324931       -4.34867814569432        2.87576218600835
C           -0.41811389088236       -4.18657295684177        2.72873127380948
O           -3.16866804998139       -1.15809273824459        1.86272569268676
O           -2.21748638891101       -1.38276222003168       -0.94572582369235
C           -3.53520914747008        3.21023698588275       -0.84477236207587
C           -2.36324628683309       -5.70196486114752        3.21633930892113
H           -1.01418338165114        3.43378291814088        0.13645655976236
H           -3.69500364593149        0.69111554607992       -1.34705466911792
H            3.12160036193857        2.09676246720655        1.92429106660043
H            3.77904881478257       -2.23291993731460        2.34502878697576
H            0.36733371375422       -4.89689225930581        2.55719846100576
H           -3.69593819164835       -3.12133561456797        3.23947077383272
O           -4.64296143138351        3.16238493307504       -0.26530802500059
O           -3.18204548680928        4.05579674336416       -1.74810331090258
C           -4.07616307208949        5.04774508661070       -2.00272523654909
C            5.10723866005283       -0.05149461684614        2.40626444685431
O            5.68644357343061       -0.84251774062317        1.69193060598438
O            5.71179260335352        0.93532563181522        3.24287798991331
C            6.87304663991525        0.77375080267341        4.08304873188085
O           -3.39496116610153       -6.10796207433971        2.61885937290292
O           -1.60328817247288       -6.28506555505427        4.10613070406947
C           -2.14580275716602       -7.40867818502296        4.74035946908409
C           -4.43573466823923       -1.22319195190431        2.55370083776309
C           -1.18581498611233       -1.94202598844975       -1.75316595199574
H           -3.17419629921433       -7.22685792702474        5.19020694577218
H           -1.52966803714171       -8.19100363204052        5.29221269762159
H           -2.37140557081799       -8.18826838131610        4.06692849523699
H            6.86786839977023       -0.09470675813857        4.66947012538223
H            7.19211328415098        1.65672863353464        4.64545135659051
H            7.72787177952903        0.70219912352743        3.41834873898069
H           -1.33926717038097       -1.96354973806702       -2.79812521816022
H           -0.71148906258275       -2.81038465557933       -1.44556509524347
H           -0.26738450723988       -1.33936724600398       -1.28886357298391
H           -4.95565421125223       -0.47235964853131        2.17520761877036
H           -4.50487778770481       -0.99456496823357        3.58341757956521
H           -5.07862765013917       -2.14357899137750        2.13456761533612
H           -5.09847640206296        4.89586390439664       -1.55632207630312
H           -4.14919375175200        5.19031242997824       -3.17642069434812
H           -3.55236513448810        6.06377201603537       -1.72071517077513
C           -2.57036722649960        3.92110046233581        2.61919645796171
C           -2.78248825530281        2.77219788865446        3.34136191593258
C           -1.64408199570784        2.40867505558426        4.21843776319141
C           -0.46047386942119        3.23665378526758        4.29177446009401
C           -0.27892966104975        4.21571344539174        3.33370693201783
C           -1.35568067392929        4.59157595970518        2.51954837499068
C           -1.72003759494963        1.19097988319918        4.86149003878541
C           -0.48697081976434        0.65775082244146        5.19891056030027
C            0.65894138246833        1.59415780893713        5.34853796523302
N            0.77627705526554        2.70763374461510        4.69555603016371
C           -2.91585749084202        0.51001843823611        5.25168747771862
C           -2.74092242560127       -0.91044951150349        5.57390297038774
N           -1.54240777926874       -1.45283376564993        5.86572668173030
C           -0.49043752249993       -0.60446355839992        5.82979238389681
C            0.74214002235240       -1.00334700386871        6.37173492243744
C            1.81788248621169       -0.20950765256319        6.61372041201127
C            1.90199006542993        1.03502092012876        5.93706840241970
C           -4.11849970261639        1.10530157347352        5.82057627589917
C           -5.30218088900304        0.41914028176759        6.04784373585840
C           -5.17940659775483       -1.05724799855294        6.09741398220967
C           -3.83261575317067       -1.65269255103341        6.10599054254931
O           -4.13068020006230        2.44813754421028        6.16326214471046
O           -3.86324346022453        1.89905034101427        3.37341783788309
C           -1.12860198087726        5.92913320012550        1.73538024131508
C           -6.22708899190814       -1.96141934584312        6.59462289189274
H            0.68894165932298        4.64690506258045        3.11140842971714
H           -3.34409640907065        4.21938804070117        1.98185944912209
H            2.86230809024072        1.67668117580678        6.02366707178075
H            0.78157262660981       -1.87733031166776        6.96672936665285
H           -3.59221205806142       -2.17664031231754        6.96471273822763
H           -5.96704522148274        0.91507012597066        6.83276876551660
O           -1.03243719290241        6.82802604978646        2.55177351957405
O           -1.19162517850733        5.92534432061540        0.29824044545164
C           -1.26850644823561        7.21562057236458       -0.32772893011216
C            2.88792302667827       -0.90718515651282        7.51918975748449
O            2.46112217983422       -2.01264444045404        8.00405175439519
O            4.04604312955151       -0.30843452082014        7.91130871289099
C            4.63743071493334       -1.12294791989798        8.94837699463317
O           -6.94067092028359       -2.61574549485738        5.84668579266400
O           -6.20360862845583       -1.95008761076825        7.97859224707721
C           -6.99875527421065       -2.86959481486313        8.45307168711488
C           -3.80366199310787        2.86125006453756        7.37522856940356
C           -4.84888930878552        2.35979303431779        2.67317562554132
H           -6.38693698545216       -3.84800720802703        8.46737646687178
H           -7.99668791248824       -2.89034521119694        7.77295773912387
H           -7.52194724215471       -2.76837304506012        9.33404318313697
H            4.00779551439488       -1.79395831213108        9.66250904875277
H            5.40168174257142       -0.51469625974523        9.66362474669514
H            5.41396933256060       -1.80108510096761        8.36494270633296
H           -5.59831297166277        1.54388814857806        2.61908642231959
H           -4.59178763759410        2.64496372109238        1.65733816769842
H           -5.25996567761401        3.16626558245393        3.20939683375300
H           -3.39006271503220        3.91048093099265        7.12658247262307
H           -2.90226273987021        2.31918775790435        7.98721207730140
H           -4.85671393499967        3.11169680941888        7.77415225219988
H           -0.31708781581473        7.86556371696617       -0.34250839077876
H           -1.94341072008137        7.58289242334808        0.49107272183168
H           -1.61443261581621        7.32389794194654       -1.36796021320689
116
 energy: -22.590982984206 gnorm: 0.539895096867 xtb: 6.6.1 (8d0f1dd)
C           -2.77062230079260        0.75746428139060       -0.46642278202713
C           -2.11572463596676       -0.23709811661730        0.22817450420251
C           -1.05564905397395        0.02242092574277        1.09122929948321
C           -0.56427627736022        1.35466195029557        0.97033654707725
C           -1.16272772753852        2.28051077945306        0.09786228159343
C           -2.15462906355682        1.92098664786886       -0.79602689473053
C           -0.40611737090612       -0.90709664304524        1.93032478576420
C            0.99307675393364       -0.61055758864166        2.04228803090026
C            1.58127166200052        0.64726343668052        1.66310431423284
N            0.75684553353426        1.72519594904941        1.36655176146115
C           -0.81011804034919       -2.04978902184052        2.42636797145402
C            0.08267449093777       -3.08971967303943        2.60609876567961
N            1.40575927751249       -2.94136898276257        2.85297147510184
C            1.85565843219188       -1.66195180519993        2.62162970608696
C            3.14576554194452       -1.21387837816972        3.05385913639228
C            3.74185149040169       -0.03430862806412        2.79588898891473
C            2.86534416497619        0.92588197716528        2.13844144060894
C           -2.12267190766013       -2.42716988018864        2.72440035707322
C           -2.64164925756333       -3.72665808413234        2.96461902271559
C           -1.81951744463374       -4.78107847016889        2.90876088618735
C           -0.53173842315183       -4.42279589289095        2.74291890945238
O           -3.24882379279647       -1.45478095234079        2.76694653265153
O           -2.58194551023434       -1.51204970006955       -0.05167828893735
C           -2.94621612511508        3.03630417162626       -1.39233376733234
C           -2.26007188709536       -6.22404394605813        2.88800177317283
H           -0.57210323727297        3.16894918756763       -0.16566810549775
H           -3.71231041455543        0.46404415307147       -0.92834723532664
H            3.09365150416242        2.02104532383136        2.35055695069256
H            3.45726653458106       -1.76093156936789        3.84222292047429
H            0.18947253374236       -5.06475583319905        3.31538434709425
H           -3.75457805524798       -3.85468211475188        3.17090874463315
O           -3.99747169321050        2.81748102075496       -1.86504478282365
O           -2.34912723695189        4.26805242314640       -1.35272399212238
C           -3.00132281197441        5.26381914290917       -2.00627684319842
C            4.93617328984477        0.12883205732585        3.45388181913811
O            5.06283696124989        1.05514285240256        4.17258080368203
O            5.97081885194990       -0.80970689839816        3.26166574517060
C            7.13057294731029       -0.37485884718568        2.61006619011897
O           -3.46933756895996       -6.47943933088045        2.65471428777745
O           -1.29062314095075       -7.05559964680281        3.54745932458574
C           -1.53159476025927       -8.44859615361088        3.77615364863315
C           -4.23981114751950       -1.45735747258658        3.78931989564251
C           -1.68374829264799       -2.57604192091500       -0.57693290584894
H           -2.11368798587678       -8.85726279498769        2.89278804994518
H           -2.08321322175920       -8.65405782766778        4.73586047502302
H           -0.46888640543020       -8.79606164459676        3.62249290897859
H            8.02439261399001       -0.55411713647774        3.27748411473942
H            7.02044943888826        0.67573577683289        2.17794606379936
H            7.44941294264794       -1.17746670518122        1.83770784283870
H           -1.50412129698005       -3.29016653799598        0.07165640936805
H           -0.79598917170121       -1.91792576097172       -0.81131629035265
H           -1.97103761580347       -2.96026542234050       -1.60415045368118
H           -4.59897680823039       -0.48155307465681        3.89409247794037
H           -4.19671985379488       -1.84808197629600        4.75110340330811
H           -5.18287931272103       -2.08318820594506        3.39121541598704
H           -3.98737961466534        5.07717230130254       -2.16766865517354
H           -2.33146890057719        5.29311145662892       -2.88923460867995
H           -3.11822441442813        6.11851696913081       -1.35022927053986
C           -3.02367999359138        3.80060225726343        2.31007957254740
C           -3.04352863448878        2.65098828508814        3.16647610984583
C           -1.85516837572245        2.39939130193560        4.01381955040619
C           -0.73934784237160        3.11439382711465        3.62896814591572
C           -0.68712204144948        4.14790952424573        2.70427695477839
C           -1.81462159250107        4.51176609840762        2.00861796913320
C           -1.79244794783406        1.45767173208735        5.06877291299830
C           -0.51370192577040        1.04619111888128        5.51864744426602
C            0.55311332348268        1.80218199370906        4.91636118274394
N            0.45900944273298        2.76179184511072        4.05091562369794
C           -2.85663103709814        0.93099178800838        5.85452842512774
C           -2.70338927046692       -0.36559116048051        6.54709548546019
N           -1.41173273461621       -0.93014877016054        6.71173124093111
C           -0.49358442084821       -0.09091456310797        6.27691318173191
C            0.82998697624975       -0.61033118727359        6.39710153365024
C            2.01710061342712        0.31081155596451        6.13445412029912
C            1.86609815689358        1.43309570902708        5.30120079564489
C           -4.11033666591965        1.63069374287124        6.16665160264481
C           -5.14720612414913        0.68757927254585        6.33102126398229
C           -5.02479352162706       -0.67695191076344        6.76041071720287
C           -3.80965289658452       -1.21303358508825        6.88154583759536
O           -4.42847743225830        2.97956964863544        6.42673022964904
O           -4.33751310930984        1.99715248057757        3.16201448608276
C           -1.87718344857751        5.87842719622758        1.56354559250401
C           -6.23134356211780       -1.63572908114966        6.67719800789496
H            0.17330996728436        4.84025362415738        2.77640078406391
H           -3.91167244654049        4.43250923378528        2.01314383708342
H            2.90939106921715        1.86780969238864        4.89553175095360
H            1.02040583647150       -1.55757728838202        6.90430049313091
H           -3.82348895521756       -2.28725636277749        7.08982212645246
H           -6.12122795378443        0.90234254873178        6.60835168211235
O           -2.81571078839462        6.13291765926919        0.80307184817590
O           -0.92251385887313        6.75660853478961        1.84384715937487
C           -1.42171060506488        8.06224340425084        1.66590098314148
C            3.26775867314293       -0.67066096032889        6.33213244613779
O            3.00126031877379       -1.79693240361254        6.63620565604796
O            4.57603695059045       -0.30117078856561        6.24801585755256
C            5.42987743006685       -1.46416747239262        6.06586104431874
O           -6.19868423717572       -2.29729097913766        5.64435124686417
O           -7.15087187037981       -1.81674394035240        7.71632693554137
C           -8.06704567109941       -2.74962964969230        7.15156511060148
C           -3.50640103905035        3.62760255091958        7.16078078816026
C           -5.34505942072676        2.70806135402373        3.62813873971968
H           -8.14216561642986       -2.72580623920465        5.96318020182263
H           -9.02750181273606       -2.16280782631899        7.13128216520061
H           -7.63310560329690       -3.76740438909665        7.23158981157643
H            5.70620535084688       -1.79065279405481        7.08208050677852
H            6.36043444860526       -0.96013117367741        5.57611151983582
H            5.10567621028620       -2.41805222652596        5.41106169118271
H           -6.25464798776273        2.39546266234141        3.10051999525814
H           -5.25534477553541        3.75859255600494        3.71900305871208
H           -5.45697702557906        2.51644275314086        4.63248745199972
H           -3.77486621738112        4.79004780125673        7.24279461548028
H           -2.53461780975013        3.38853918260647        6.71633687776204
H           -3.46419771831670        3.15678044269984        8.16448261983152
H           -1.81241523249714        8.48694600874826        2.64051963423243
H           -2.26261532935090        7.92874453182278        1.00218882986121
H           -0.67629480032080        8.80716935642906        1.37905739557518
116
 energy: -22.597679387908 gnorm: 0.557838306195 xtb: 6.6.1 (8d0f1dd)
C           -2.77364935635438        0.55192114983748       -0.83847289751692
C           -1.91647096024389       -0.38974215603052       -0.35521170087364
C           -0.89087113464948       -0.12235266565411        0.74903049772288
C           -0.27215407222514        1.15605267804176        0.58165415406322
C           -1.03836607646112        2.05456500290282       -0.11022503259552
C           -2.20058956363720        1.76236146124334       -0.85525834445659
C           -0.22207873723508       -1.04270794827066        1.63900292058050
C            1.13355619669784       -0.71311407987030        1.90699967314297
C            1.74926492656219        0.45459178818563        1.39948123815782
N            1.01824952277527        1.40237585112391        0.81049118126695
C           -0.80421099807478       -2.23023387324726        2.19469784138945
C            0.28118380322902       -3.08463984221845        2.90135917240164
N            1.57843741748554       -2.81073467575887        3.10385806089944
C            2.05449499773263       -1.64303002751447        2.58367827306678
C            3.40529019659447       -1.30588300554288        2.64717875774004
C            3.88277219270501       -0.13182130325840        2.09498343554461
C            3.10017594683163        0.78954363348068        1.51879583027492
C           -2.16310194592715       -2.69005561366542        2.21875386574025
C           -2.51688384401214       -3.83314962678979        3.03251197809664
C           -1.50216162511618       -4.66955545845347        3.69120820912988
C           -0.11960238825572       -4.26943224569875        3.47337629052613
O           -3.04024878627297       -1.75842245533754        1.82170744163018
O           -2.00490303465106       -1.72437342157019       -0.58762352919395
C           -3.08848825639898        2.93374210275458       -1.31710328911455
C           -1.79664374950270       -5.99119386094371        4.18294529140626
H           -0.60586505498384        3.06439883343315       -0.13325028768086
H           -3.74509147466962        0.45947698936253       -1.34137513284952
H            3.55233543163644        1.75314036605577        1.16398799157358
H            3.91228495915431       -2.13977223809447        3.02303445472362
H            0.72566271089235       -4.95893758439890        3.94615119972653
H           -3.59262015026616       -3.71692843633889        3.19890090749697
O           -3.95296469593275        3.28062024144071       -0.57350680508768