116
 energy: -22.928061455056 gnorm: 0.329736929581 xtb: 6.6.1 (8d0f1dd)
C           -3.31122850772930        0.79849766164622       -0.92477639677520
C           -2.44380812530352       -0.12270372891954       -0.27661132624697
C           -1.41337090092821        0.39579727573559        0.56335275196199
C           -0.89266158675590        1.65801491088749        0.27377586709581
C           -1.72665675402493        2.51431363229076       -0.49448366572522
C           -2.95444148494349        2.13954154133227       -1.01494489940871
C           -0.74098268209890       -0.43411532818871        1.49825021926784
C            0.56872586496315        0.03782116815119        1.86248088067890
C            1.03782416582094        1.29402317993033        1.50887470833621
N            0.31238977034758        2.07067427098208        0.65193736800696
C           -1.29695700510141       -1.39996043042223        2.41574187746061
C           -0.38243517664656       -2.18060797534842        3.13232615520648
N            0.91308504082021       -1.90366887689689        3.30325166013478
C            1.37712470144904       -0.74872102533751        2.81811050966982
C            2.52149331701875       -0.17739833758153        3.39379298866852
C            2.95849061756259        1.02681208890480        2.95105897606587
C            2.24288949469137        1.78498308775960        2.03503020483770
C           -2.74860936222260       -1.74497937691422        2.38401158947411
C           -3.09416315450955       -2.91614440870436        3.00571134491758
C           -2.16786021984049       -3.77788778654213        3.63251872101904
C           -0.85708937311598       -3.40495313382985        3.68547234358092
O           -3.71994433332149       -0.94984598373544        1.67726658385724
O           -2.55702603277562       -1.47241711578389       -0.57241635275616
C           -3.84297843593025        3.13357444054366       -1.60938954875544
C           -2.68769581069131       -5.03867041417370        4.30484659386931
H           -1.39666850744143        3.51251503834900       -0.76806311868865
H           -4.27662633836220        0.55105838579656       -1.33106614114542
H            2.66329581305412        2.73912661909249        1.72562431984580
H            3.05775395548473       -0.69369546277216        4.16536137542516
H           -0.24710966264510       -4.12034095424229        4.22946223699121
H           -4.11477991332403       -3.04712728052358        3.03244694615357
O           -4.21824883374556        4.03433712717988       -0.87713382485991
O           -4.44510595673734        2.90643496899600       -2.81853501752979
C           -5.44216520282800        3.83300025693726       -3.02488532025093
C            4.23586651889298        1.50004220933226        3.59165660008449
O            5.05927614697201        0.66079890002952        3.91714215179376
O            4.47001334453535        2.86385149488593        3.72605651435371
C            5.79457498613219        3.08584475587818        4.15829123132174
O           -3.82227255313510       -5.27347675879771        4.16636005494405
O           -1.85023202017753       -5.79767454267276        5.06656077253571
C           -2.55119635829503       -6.86252441382958        5.62930343183426
C           -5.07197156564436       -1.42399175670916        1.58830531863830
C           -1.33089900128490       -2.23622472573986       -0.99264499351172
H           -2.54510546830388       -7.76426885143998        4.99136022291012
H           -3.57194749219491       -6.44405511486021        5.74196173723541
H           -2.09133598235598       -7.02043774843818        6.64022264233588
H            5.72707967266424        3.46798026205549        5.10135971236643
H            6.34060091246885        3.78468702308830        3.50069950143490
H            6.17933064298187        2.03010500085905        4.19342358084693
H           -0.91862729772622       -2.57650129080332       -0.01361370304871
H           -0.49769766914251       -1.60651221708571       -1.34094446550576
H           -1.52632419730509       -2.94569707152159       -1.75361447637286
H           -5.11788846557077       -2.41810833635233        1.17520213188926
H           -5.67929807973498       -0.69619639428435        1.04301666067831
H           -5.57598832326623       -1.42383358739762        2.57928294206544
H           -6.13050215934830        3.76035386975488       -2.23272855695873
H           -5.86615610071888        3.45938329385866       -4.02668959924245
H           -5.13479557532099        4.87790991548477       -2.98314551356402
C           -1.38192942069774        3.73616555005018        2.91232598411686
C           -1.84821468128685        2.59982427735607        3.49755545445181
C           -1.05946531454833        2.05730632010638        4.60922730982276
C            0.19893954712228        2.69376791964407        4.86302140881997
C            0.50425395911860        3.94630308659851        4.28768785650746
C           -0.26031777722226        4.46998310053134        3.25072669343212
C           -1.20488993561782        0.74454293276906        5.14851520323437
C           -0.06287609782692        0.02744069315890        5.60930570802864
C            1.19208754369866        0.71421540266195        5.78882868583885
N            1.19428660993148        2.06344359410476        5.62744624321596
C           -2.41361422770794        0.07928500213936        5.25249410304426
C           -2.45851584031083       -1.32662100968547        5.60237876023992
N           -1.29466212405906       -1.98318595734370        5.89916817085159
C           -0.14475655767527       -1.32117560077092        5.98824682881008
C            0.97209270935794       -1.98958449505532        6.53157704134458
C            2.21982707914082       -1.36973967291181        6.68703967237737
C            2.30561929262884       -0.09745313075593        6.26436900324455
C           -3.73018485967715        0.71367583494582        5.25810242262992
C           -4.89964478833448       -0.06184623426677        5.21204641615509
C           -4.82617965800088       -1.39228978090841        5.46901303780036
C           -3.67144193418464       -1.98914944386360        5.67265433266067
O           -3.75568638935321        2.07705011038914        5.52067969627343
O           -2.94192434743730        1.91263938797883        3.01658762327703
C            0.21273512614467        5.50086066357994        2.34765104514621
C           -6.06660304520411       -2.17604633098929        5.80641622556876
H            1.41756699010566        4.38133362238595        4.66974005703471
H           -1.82880610647429        4.11982501512100        2.06992133318584
H            3.26888037378556        0.32655662585251        6.31721410015598
H            0.87146188387207       -3.08471526305024        6.57830423410869
H           -3.67716811065157       -3.05999292755990        5.83019634570050
H           -5.77379677507622        0.43595144608221        4.71017130754348
O            1.34459852619901        5.82615848916894        2.44941456579099
O           -0.74718748219123        6.07961784856304        1.59848183464284
C           -0.21473095568964        7.24015934882472        1.05753806029483
C            3.53228080814219       -2.00967610361154        7.02506769044485
O            3.64093082622715       -3.14437803815732        7.50071391725347
O            4.56565258381079       -1.22937033368332        6.69086985080897
C            5.72579357310716       -1.80692399125161        7.22246151275881
O           -7.04801223588612       -1.95726935745904        5.14194115322235
O           -6.01514389321278       -2.93743591896022        6.94765316328794
C           -7.21292732384718       -3.62681918543340        7.15115816329978
C           -4.95459780685163        2.65960679932188        5.86868674392943
C           -3.68284113682406        2.59129188358641        2.05479246020704
H           -7.43119628931628       -4.22607794725959        6.20622607140901
H           -8.06548455146707       -2.91765848248592        7.29781126410398
H           -7.07314693247270       -4.33087306029711        7.91223421050944
H            6.57332189837178       -1.29353136199234        6.78341268688262
H            5.74663761932316       -2.84282155125561        6.88089468184451
H            5.69426191474290       -1.72781984964892        8.29460302186842
H           -4.10481209541493        3.44288266176275        2.60483747673152
H           -4.49244774344916        1.87419893016926        1.82433103764650
H           -3.18901540870812        2.85154642679373        1.06781919454921
H           -5.55414326821421        2.76698137191684        4.93950725322359
H           -4.78658370641210        3.62090640967288        6.25983200635257
H           -5.43485580473958        1.97242995129449        6.65265772412460
H            0.89164886030839        7.38838561720231        1.13776105146914
H           -0.62894889903848        8.04195665205089        1.64837664327952
H           -0.59282546386754        7.45699159724320        0.03719083132488
116
 energy: -22.559960238311 gnorm: 0.599033793077 xtb: 6.6.1 (8d0f1dd)
C           -2.73883647616577        0.89197456981231       -1.33544357036662
C           -2.26629914248588       -0.15927007549460       -0.53866906556527
C           -1.30560087860367        0.21749382084397        0.52001666679283
C           -0.83332248446042        1.71405086773263        0.71607394363691
C           -1.65648022670605        2.57968300902592       -0.15809333825023
C           -2.32991774821951        2.15323370479319       -1.25930020455550
C           -0.68676333959626       -0.52933987808109        1.50837667579453
C            0.65061238043848       -0.09160870557671        1.98591315293812
C            1.15144136334785        1.26556162924245        1.55765745039336
N            0.30750452013026        2.23350524695399        1.26000697675357
C           -1.05973667425595       -1.78729341144823        2.21813599035192
C            0.01149479993447       -2.52906777984291        2.82978721904703
N            1.39458775342403       -2.24490180979553        2.93172773181636
C            1.63968925479119       -1.01409374521703        2.56178260889309
C            2.93509811181316       -0.67898239828791        2.71892787877787
C            3.35744226357543        0.50328717979190        2.34545046546827
C            2.48731661195387        1.54632103965323        1.84286954218463
C           -2.30181811090528       -2.46467955794300        2.18945876080915
C           -2.53034162291620       -3.75194628433646        2.64599633248394
C           -1.51651012017014       -4.43003229254550        3.20169695584041
C           -0.24552920943039       -3.76909542452121        3.34628747327196
O           -3.33258217289909       -1.77780099006161        1.71549714475547
O           -2.43471374123295       -1.48028464863727       -1.08268007050740
C           -2.64851936539802        3.04764933562720       -2.28335142404054
C           -1.80356494495962       -5.80424768854243        3.66076206359335
H           -1.35338878465480        3.55380328691854       -0.21350579236493
H           -3.29922705423620        0.42832915964277       -2.19714369681087
H            2.81857551339088        2.53962657649358        1.99656300453410
H            3.55174304273316       -1.32342983537898        3.25972796381860
H            0.36034431727990       -4.18990996610232        4.03537168506541
H           -3.42472660722479       -4.23652830465787        2.92205141821435
O           -3.10563372376767        2.60872376469090       -3.35913813447190
O           -2.49356140326972        4.39088115474739       -1.95140769997959
C           -2.59316579508260        5.36299682105299       -3.07308662904236
C            4.68457746346585        0.98693697502757        2.71936895617643
O            5.51210650550086        0.25006239824677        3.39099883551449
O            5.19587449731118        2.22440204611297        2.35496498155055
C            6.51536077406948        2.41637776126071        2.68463846921815
O           -2.41346186130193       -6.54101270551996        2.92594991668571
O           -1.21224718880015       -6.04130418611627        4.86173460484021
C           -1.50497341956261       -7.15341219335891        5.78343481350488
C           -4.56129736103556       -1.47800490841255        2.60715674686824
C           -3.62648651583967       -2.18831349025948       -0.91348853179323
H           -0.60102311970720       -7.24422576984237        6.38625967596256
H           -1.50729055637140       -8.10224847521072        5.29201490820334
H           -2.39996214906122       -7.11261907512867        6.14304465867748
H            7.27417351962683        2.06056391066998        2.08737437522296
H            6.53258526939666        1.89106487916699        3.63005841233102
H            6.68649658746829        3.45924371180721        2.85990750875513
H           -3.72639983250786       -2.48434332531379        0.05014064419920
H           -3.67214927888249       -3.14227885195685       -1.46372031620420
H           -4.57205805773183       -1.41016041533872       -1.14386906874532
H           -5.06043470542676       -0.51307838973223        2.36103184366081
H           -4.17321793505550       -1.60221535545991        3.66639554963765
H           -5.41046929606327       -2.30035976834096        2.41919625254986
H           -3.19079881072044        6.28411739285110       -2.64998422890599
H           -3.24935364915904        5.09701407546310       -3.93778189356536
H           -1.63041072740146        5.44651610220608       -3.49850471276326
C           -2.53294416973664        3.76599214823413        3.32308373161751
C           -2.77859365031565        2.76415437871927        4.17479338122324
C           -1.57760552728267        2.36675259852059        4.99044074942443
C           -0.23018865404103        3.07361696805153        5.07347570749545
C           -0.35232831129456        4.22066674616525        4.22265606629081
C           -1.39885005438474        4.53217999174523        3.39389984248259
C           -1.72610583452825        1.00899811088249        5.74179546257710
C           -0.51370053244030        0.38371592627178        6.01451814542629
C            0.66076858943835        1.22038655849630        6.06964459808508
N            0.66204629734115        2.56675841535489        6.05186592335606
C           -2.95526557066684        0.17567877397942        5.76697902367384
C           -2.78370791697085       -1.23117950687680        5.89264081506170
N           -1.49625313378545       -1.77776021247443        5.77214285027971
C           -0.45958850264496       -0.97656122271747        6.15645883577591
C            0.71686817075082       -1.52370341805658        6.54962876762079
C            1.92664665466340       -0.72218765571509        6.71889749054552
C            1.88856021845082        0.65712245688685        6.49435555721466
C           -4.07822527213634        0.89173321885245        6.44449850317842
C           -5.21574355846276        0.22870647276294        6.31769600011947
C           -5.19344044402091       -1.15548024178602        5.93227450678764
C           -4.01618543072156       -1.90902509027595        6.07254325105267
O           -4.01928636965968        2.15824150877438        7.04066972961877
O           -3.97816403815931        2.06548213574423        4.23712015420299
C           -1.00825566884366        5.69162799003901        2.39734740794976
C           -6.49730985701144       -1.57161656644987        5.51525624740163
H            0.39647259529143        5.06255834802313        4.25986551256605
H           -3.16285986942522        3.78213868308829        2.41104229736038
H            2.76806682965478        1.26154206769206        6.82560707314996
H            0.77058175360537       -2.47959084920124        6.83656792708547
H           -3.80380679883160       -2.94492823402001        5.98137912367561
H           -6.04478690069477        0.96928398671246        6.49424916403693
O           -0.34899851734082        6.67232223064572        2.81170909843925
O           -1.29231454945062        5.35424600048196        1.06893265420714
C           -1.09823457077948        6.54116507859467        0.22425180241499
C            3.13305087256964       -1.43835957605627        7.10031742342915
O            3.17791676468969       -2.66873723745503        6.97116182841781
O            4.19340738614867       -0.77061485564670        7.60308531140190
C            5.13953241289992       -1.78541487347473        7.90346619214986
O           -7.41181991699515       -0.84571154576375        5.34806297561740
O           -6.97843712646711       -2.88600405275308        5.53422857753376
C           -8.41892882335125       -2.98379705831329        5.40052420466415
C           -2.67548418257610        2.32864629200834        7.69755300884359
C           -5.12598194562221        2.55310692075346        3.42279548376621
H           -8.50762752548970       -3.94472262358205        5.96847482516624
H           -8.83880138817168       -2.90895952084922        4.48657226840091
H           -8.88458125180568       -2.17346749293346        6.00640865339302
H            5.92418438605401       -1.65591759061671        8.71489092152177
H            5.73506312260862       -1.90188602874420        7.04311152312888
H            4.36366118113322       -2.50813410292051        8.22665697893193
H           -5.30032381128458        3.57883121610018        3.72454660486692
H           -5.92042913948663        1.89518299404094        3.51556736719052
H           -4.89834627047620        2.39276866734806        2.20121107661746
H           -2.17705184698198        3.06162784588775        7.21596082192093
H           -1.87488388474913        1.52874566161176        7.54346491502659
H           -2.85303352589605        2.58379728899219        8.73005333522674
H           -1.35283401791200        6.48764906420656       -0.80533854314298
H            0.12238691648724        6.67858273562880        0.31813454816003
H           -1.54067655584797        7.28818787978777        0.81789558150308
116
 energy: -22.536850981384 gnorm: 0.537318188598 xtb: 6.6.1 (8d0f1dd)
C           -2.54342484122283        0.63690022652257       -0.64447511540519
C           -1.93035694691332       -0.04678231390248        0.35392509392053
C           -0.91648821570328        0.60029763117002        1.07230909106527
C           -0.16203040903621        1.68892368459841        0.65325376502597
C           -0.87534090223980        2.42713487010256       -0.23792071496030
C           -2.04485206754211        1.86467160482405       -0.80358587825704
C           -0.21359517566155       -0.18736678669924        2.10392583945137
C            1.22236521728905       -0.02537916632194        2.20272564796983
C            1.92599345901009        1.00192061750484        1.54809330683326
N            1.16940482614975        1.85435450956429        0.86253058969277
C           -0.70144307873606       -1.17351153789515        2.94000513829220
C            0.25039143878717       -2.06289304376236        3.49768853977287
N            1.64711563023365       -2.14151701271747        3.31248933062297
C            2.11746465089580       -1.05023934121672        2.69586750871757
C            3.47532045316340       -1.05728250535996        2.58103311212635
C            4.03806304724797        0.06518539470726        1.97978023638855
C            3.25727730411819        1.10852388580042        1.52226638503160
C           -2.08247497635962       -1.49138039310904        3.08693797915822
C           -2.51754525389479       -2.76578263597091        3.38776310915580
C           -1.53299377830964       -3.70957852067253        3.91334230158762
C           -0.20752188627170       -3.32944305177300        4.07705911639908
O           -3.19856668109835       -0.60589177856253        3.05221019867300
O           -2.21704833501325       -1.46359237642028        0.35402394514014
C           -2.98815459669971        2.84612585074701       -1.67680539692622
C           -1.99832757614898       -5.12776254224658        3.89487174414622
H           -0.45209684260862        3.26268083570429       -0.66531141779551
H           -3.35192014044742        0.18424910157286       -1.24126372326484
H            3.47581728489274        2.10408591207513        1.19879397186361
H            4.06259575279039       -2.03156610851864        2.77413824876348
H            0.46490814815981       -4.12131704554584        4.38939370285600
H           -3.58146612089095       -3.03273706351707        3.34042546911946
O           -3.53129854384826        2.20320150857526       -2.52855434886651
O           -3.11255288737007        4.19442608844470       -1.40963779151925
C           -4.20017239362013        4.83776749361099       -2.08750108300741
C            5.30386847887207        0.32633261303473        2.68374135692919
O            5.68618725389004       -0.29900877871223        3.68280901591691
O            6.16217192671027        1.34734902771703        2.20703831743160
C            7.23237120465927        1.43026519599556        3.31574323488680
O           -2.87513749145377       -5.49808998538974        4.65023034155021
O           -1.56441240368504       -5.74401237217514        2.83352065441492
C           -2.04102658379107       -7.03181117783292        2.78895165566370
C           -4.56888523494669       -0.92395484950433        2.65306556156084
C           -1.88666855230640       -2.00575659112598       -0.81722259083935
H           -1.25778210553505       -7.72409204375202        2.52475213819333
H           -2.85129115130944       -7.22353359083569        2.16620641233837
H           -2.54890246789700       -7.18484867599485        3.71944615657004
H            8.00339961738337        0.74236567884647        2.87598165836316
H            6.69679249542838        1.12813469331070        4.22251234345526
H            7.99924810092627        2.19477639343600        3.61097348684369
H           -2.97092000115493       -2.30720618110380       -1.27531397844005
H           -1.05194916818904       -2.71591070813659       -0.58221995074504
H           -1.42898204096664       -1.41506098136946       -1.56086546225764
H           -4.95281732307233       -0.10260234111800        2.08162580200956
H           -5.09973002642126       -1.08538603929241        3.54390958441290
H           -4.48324100269439       -1.83946376160818        2.15554079766950
H           -4.08220976667456        5.86537763889836       -1.97038558440355
H           -5.27282120887788        4.28245560756995       -1.86833144582379
H           -3.99099557682264        4.64652951419009       -3.19132724362425
C           -2.62963516307646        3.78440150793989        2.95627867186459
C           -2.83634257807630        2.70443658602552        3.83391312612472
C           -1.82214788855591        2.24403979309772        4.64002260377787
C           -0.55535627359170        2.97547777366819        4.48244391266727
C           -0.55864331486965        4.21763823851035        3.87843649509676
C           -1.47211956555838        4.62231555979675        3.05289314656724
C           -1.86002205990454        1.37542123960968        5.73610826187189
C           -0.72185522148454        0.66574708959646        6.10658466969011
C            0.57429208549227        1.22162996449968        5.70655790628821
N            0.50945988424450        2.53761533521646        5.16148373891325
C           -3.14782129311642        0.71824392310329        5.92079112785826
C           -2.96665859709298       -0.73658373444262        6.09970023341417
N           -1.92511969260752       -1.58387301415768        6.30507335371739
C           -0.89223226433358       -0.77275906214719        6.32178708495440
C            0.36454121904717       -1.46009419337151        6.59771505890224
C            1.63238358131244       -0.79259532441864        6.46746038930016
C            1.71415664703859        0.60130843980509        6.09107953215435
C           -4.57550879911143        1.18468912061083        6.20448922146891
C           -5.59736840326885        0.30185987825093        6.12081694141256
C           -5.43868990468273       -1.10613968095094        5.89191226320072
C           -4.09989076744171       -1.53517335275560        5.98747067337247
O           -4.85460369848548        2.55174043380837        6.63224372152824
O           -4.08595502298497        2.14484188749037        3.85290783459112
C           -1.08918515786263        5.63477056319926        2.04953167854537
C           -6.69069467851103       -1.97632017169170        5.97006706561586
H            0.30663683816328        4.85881768919965        3.92466668224883
H           -3.25534851757525        4.05569471735463        2.12673606885333
H            2.50135743827224        1.29053825652244        6.00155590060762
H            0.53233806685954       -2.58179097189429        6.67581155370596
H           -3.83586980096221       -2.55470680772278        5.88257049656054
H           -6.65685099620200        0.47751687973650        6.23758224607973
O           -0.01058412593175        5.99930710846907        1.59945059537810
O           -2.19358359360866        6.35191797486645        1.59606542005771
C           -1.89986886406181        7.41582817462742        0.86363519548927
C            2.78958743212605       -1.69753947680993        6.66304775344674
O            2.59194720600088       -2.85257828022757        7.14678769610408
O            3.92657678435639       -1.18194795336937        6.16023714812894
C            4.94789771175096       -2.10537281014639        6.63823306859195
O           -7.36550766249470       -1.77048368363845        6.95959533511650
O           -7.01738151913491       -3.00502030694272        4.82621772862905
C           -6.13674205476106       -4.20896188359627        4.88831297916188
C           -4.85187684986360        2.88739420425321        8.05531511542891
C           -4.65324319034576        1.94404444800523        2.60964006667397
H           -5.28224095757154       -4.01506179148612        5.48720788420797
H           -6.30936188558437       -4.69024832309834        3.77707849268455
H           -6.49593494670605       -4.97081160138321        5.55884626162493
H            4.81662905520695       -2.50660888083372        7.75449802353385
H            5.86715848923247       -1.57934935465158        6.77289826068962
H            4.96013950953670       -2.84476203843321        5.76120198833152
H           -5.14023592195891        2.94749572635219        2.38046481073154
H           -5.55050142077978        1.29083927453388        2.98813861327169
H           -4.24041580780146        1.16826196207650        2.11384719030511
H           -3.96888651973233        2.87020018076299        8.70361078845992
H           -5.25626783718954        1.96645655407307        8.44166154691983
H           -5.47889664676549        3.83983153142075        8.33274471995808
H           -0.77440548298434        7.68077165277293        0.83436523081997
H           -2.65844966631596        8.32213516535740        1.10937534326012
H           -2.19439309826002        7.27445692947926       -0.13770706453658
116
 energy: -22.575524762765 gnorm: 0.588359027652 xtb: 6.6.1 (8d0f1dd)
C           -2.31822213536759        1.16611317150739       -1.02002245876609
C           -1.83302717148523        0.05196750196034       -0.32904117500589
C           -1.06736724562267       -0.03796009454860        0.94049392594604
C           -0.65204812018873        1.25444978168587        1.21494572222231
C           -1.22476896796837        2.47379953623620        0.57415649927737
C           -2.06620633324059        2.44834992003008       -0.53895164833431
C           -0.35742193146051       -1.13975166922537        1.50406912084464
C            0.78673678636873       -0.81269062928997        2.08083421504772
C            1.29694022688071        0.45128297003885        2.16304361212547
N            0.62790764431223        1.60148124444312        1.87029937604303
C           -0.93903590751180       -2.54949049951254        1.89460238463654
C           -0.16355532915534       -3.27013016655936        2.63740678476752
N            1.03955394979735       -3.03380073064258        2.93422974955474
C            1.59612710904374       -1.88861545080794        2.66502499533519
C            2.88274951744979       -1.69347636983088        3.25713942205164
C            3.42225986737669       -0.50843802028639        2.89720474172481
C            2.58791248074432        0.56508992534379        2.71997440378845
C           -2.35733466950250       -2.69776668629666        2.07222938629369
C           -2.91261671256366       -3.79642287046775        2.85988908690855
C           -1.94088775385752       -4.83607939862776        3.10818371182364
C           -0.61925139259343       -4.44845416876617        3.24716098494199
O           -3.20872627372967       -1.78622527086370        1.50740962896829
O           -1.98814346792168       -1.02255250789363       -1.12603362153165
C           -2.68541210580626        3.66109756177897       -1.01610306680175
C           -2.27125841276767       -6.10320748446749        3.91027996076612
H           -1.12610562635068        3.47728403536887        1.05305954860854
H           -2.92371685032946        1.02017028603976       -1.97200001631460
H            2.94210390447506        1.57413754053564        2.61550630259198
H            3.47049016087652       -2.57693534984084        3.42064450603381
H            0.11067175759109       -5.16909741242895        3.63389140993793
H           -3.91354608918214       -3.65487475545359        3.32165563561292
O           -2.95402729344724        4.45804176855691       -0.24717576001514