Optimization of monomers started
Stacking dimer
Calculating transfer integral
Reorganization energy (electron): 0.0310764000153163 eV
Reorganization energy (hole): 0.035579879694671704 eV
Electron Transfer integral J: 0.073 eV
Hole Transfer integral J: 0.064 eV
                   |     
     |                         S. Grimme                         |     
     |          Mulliken Center for Theoretical Chemistry        |     
     |                    University of Bonn                     |     
      -----------------------------------------------------------      

   * xtb version 6.7.1 (edcfbbe) compiled by 'runner@Mac-1732539442253.local' on 2024-11-25

   xtb is free software: you can redistribute it and/or modify it under
   the terms of the GNU Lesser General Public License as published by
   the Free Software Foundation, either version 3 of the License, or
   (at your option) any later version.
   
   xtb is distributed in the hope that it will be useful,
   but WITHOUT ANY WARRANTY; without even the implied warranty of
   MERCHANTABILITY or FITNESS FOR A PARTICULAR PURPOSE.  See the
   GNU Lesser General Public License for more details.
   
   Cite this work as:
   * C. Bannwarth, E. Caldeweyher, S. Ehlert, A. Hansen, P. Pracht,
     J. Seibert, S. Spicher, S. Grimme, WIREs Comput. Mol. Sci., 2020, 11,
     e01493. DOI: 10.1002/wcms.1493
   
   for GFN2-xTB:
   * C. Bannwarth, S. Ehlert and S. Grimme., J. Chem. Theory Comput., 2019,
     15, 1652-1671. DOI: 10.1021/acs.jctc.8b01176
   for GFN1-xTB:
   * S. Grimme, C. Bannwarth, P. Shushkov, J. Chem. Theory Comput., 2017,
     13, 1989-2009. DOI: 10.1021/acs.jctc.7b00118
   for GFN0-xTB:
   * P. Pracht, E. Caldeweyher, S. Ehlert, S. Grimme, ChemRxiv, 2019, preprint.
     DOI: 10.26434/chemrxiv.8326202.v1
   for GFN-FF:
   * S. Spicher and S. Grimme, Angew. Chem. Int. Ed., 2020, 59, 15665-15673.
     DOI: 10.1002/anie.202004239
   
   for ALPB and GBSA implicit solvation:
   * S. Ehlert, M. Stahn, S. Spicher, S. Grimme, J. Chem. Theory Comput.,
     2021, 17, 4250-4261. DOI: 10.1021/acs.jctc.1c00471
   
   for ddCOSMO and CPCM-X implicit solvation:
   * M. Stahn, S. Ehlert, S. Grimme, J. Phys. Chem. A,
     2023, XX, XXXX-XXXX. DOI: 10.1021/acs.jpca.3c04382
   
   for DFT-D4:
   * E. Caldeweyher, C. Bannwarth and S. Grimme, J. Chem. Phys., 2017,
     147, 034112. DOI: 10.1063/1.4993215
   * E. Caldeweyher, S. Ehlert, A. Hansen, H. Neugebauer, S. Spicher,
     C. Bannwarth and S. Grimme, J. Chem. Phys., 2019, 150, 154122.
     DOI: 10.1063/1.5090222
   * E. Caldeweyher, J.-M. Mewes, S. Ehlert and S. Grimme, Phys. Chem. Chem. Phys.
     2020, 22, 8499-8512. DOI: 10.1039/D0CP00502A
   
   for sTDA-xTB:
   * S. Grimme and C. Bannwarth, J. Chem. Phys., 2016, 145, 054103.
     DOI: 10.1063/1.4959605
   
   in the mass-spec context:
   * V. Asgeirsson, C. Bauer and S. Grimme, Chem. Sci., 2017, 8, 4879.
     DOI: 10.1039/c7sc00601b
   * J. Koopman and S. Grimme, ACS Omega 2019, 4, 12, 15120-15133.
     DOI: 10.1021/acsomega.9b02011
   
   for metadynamics refer to:
   * S. Grimme, J. Chem. Theory Comput., 2019, 155, 2847-2862
     DOI: 10.1021/acs.jctc.9b00143
   
   for SPH calculations refer to:
   * S. Spicher and S. Grimme, J. Chem. Theory Comput., 2021, 17, 1701-1714
     DOI: 10.1021/acs.jctc.0c01306
   
   for ONIOM refer to:
   * C. Plett, A. Katbashev, S. Ehlert, S. Grimme, M. Bursch,
     Phys. Chem. Chem. Phys., 2023, 25, 17860-17868. DOI: 10.1039/D3CP02178E
   
   for DIPRO refer to:
   * J. Kohn, N. Gildemeister, S. Grimme, D. Fazzi, A. Hansen,
     J. Chem. Phys., 2023, just accepted.
   
   for PTB refer to:
   * S. Grimme, M. Mueller, A. Hansen, J. Chem. Phys., 2023, 158, 124111.
     DOI: 10.1063/5.0137838
   
   with help from (in alphabetical order)
   P. Atkinson, C. Bannwarth, F. Bohle, G. Brandenburg, E. Caldeweyher
   M. Checinski, S. Dohm, S. Ehlert, S. Ehrlich, I. Gerasimov, C. Hölzer
   A. Katbashev, J. Kohn, J. Koopman, C. Lavigne, S. Lehtola, F. März, M. Müller,
   F. Musil, H. Neugebauer, J. Pisarek, C. Plett, P. Pracht, F. Pultar,
   J. Seibert, P. Shushkov, S. Spicher, M. Stahn, M. Steiner, T. Strunk,
   J. Stückrath, T. Rose, and J. Unsleber
   
 * started run on 2024/12/10 at 16:18:42.556     
   ID    Z sym.   atoms
    1    6 C      1-9, 11, 12, 14-21, 25-33, 35, 36, 38-45, 48-71
    2    7 N      10, 13, 34, 37
    3    8 O      22, 23, 46, 47
    4    5 B      24
    5    1 H      72-137

           -------------------------------------------------
          |                Calculation Setup                |
           -------------------------------------------------

          program call               : xtb Base1tBu.mol --opt --gfn 2 --chrg 0 --uhf 1 --tight
          coordinate file            : Base1tBu.mol
          omp threads                :                     8

########################################################################
[WARNING] Please study the warnings concerning your input carefully
-2- prog_main: Charge in sdf/mol input was overwritten
-1- prog_main_parseArguments: Unknown option '--tight' provided
########################################################################

           -------------------------------------------------
          |                 G F N 2 - x T B                 |
           -------------------------------------------------

        Reference                      10.1021/acs.jctc.8b01176
      * Hamiltonian:
        H0-scaling (s, p, d)           1.850000    2.230000    2.230000
        zeta-weighting                 0.500000
      * Dispersion:
        s8                             2.700000
        a1                             0.520000
        a2                             5.000000
        s9                             5.000000
      * Repulsion:
        kExp                           1.500000    1.000000
        rExp                           1.000000
      * Coulomb:
        alpha                          2.000000
        third order                    shell-resolved
        anisotropic                    true
        a3                             3.000000
        a5                             4.000000
        cn-shift                       1.200000
        cn-exp                         4.000000
        max-rad                        5.000000


          ...................................................
          :                      SETUP                      :
          :.................................................:
          :  # basis functions                 350          :
          :  # atomic orbitals                 350          :
          :  # shells                          208          :
          :  # electrons                       361          :
          :  max. iterations                   250          :
          :  Hamiltonian                  GFN2-xTB          :
          :  restarted?                      false          :
          :  GBSA solvation                  false          :
          :  PC potential                    false          :
          :  electronic temp.          300.0000000     K    :
          :  accuracy                    1.0000000          :
          :  -> integral cutoff          0.2500000E+02      :
          :  -> integral neglect         0.1000000E-07      :
          :  -> SCF convergence          0.1000000E-05 Eh   :
          :  -> wf. convergence          0.1000000E-03 e    :
          :  Broyden damping             0.4000000          :
          :  net charge                          0          :
          :  unpaired electrons                  1          :
          ...................................................

 iter      E             dE          RMSdq      gap      omega  full diag
   1   -197.7442273 -0.197744E+03  0.398E+00    0.08       0.0  T
   2   -197.8787431 -0.134516E+00  0.251E+00    0.45       1.0  T
   3   -192.2101013  0.566864E+01  0.324E+00    0.06       1.0  T
   4   -186.9128473  0.529725E+01  0.387E+00    0.09       1.0  T
   5   -197.1104498 -0.101976E+02  0.190E+00    0.77       1.0  T
   6   -197.9854021 -0.874952E+00  0.104E+00    0.38       1.0  T
   7   -197.8061373  0.179265E+00  0.106E+00    0.50       1.0  T
   8   -198.1430225 -0.336885E+00  0.466E-01    0.07       1.0  T
   9   -198.1718147 -0.287922E-01  0.332E-01    0.02       1.0  T
  10   -198.1699226  0.189210E-02  0.275E-01    0.04       1.0  T
  11   -198.1739029 -0.398035E-02  0.196E-01    0.02       1.0  T
  12   -198.1651690  0.873394E-02  0.166E-01    0.03       1.0  T
  13   -198.1723670 -0.719806E-02  0.172E-01    0.07       1.0  T
  14   -198.1763683 -0.400129E-02  0.973E-02    0.04       1.0  T
  15   -198.1771184 -0.750043E-03  0.574E-02    0.03       1.0  T
  16   -198.1774272 -0.308827E-03  0.181E-02    0.03       1.0  T
  17   -198.1773982  0.289886E-04  0.172E-02    0.03       1.0  T
  18   -198.1774302 -0.320389E-04  0.114E-02    0.03       1.0  T
  19   -198.1774615 -0.312189E-04  0.290E-03    0.03       2.9  T
  20   -198.1774629 -0.139261E-05  0.800E-04    0.03      10.7  T
  21   -198.1774628  0.340932E-07  0.639E-04    0.03      13.4  T
  22   -198.1774629 -0.743266E-07  0.550E-04    0.03      15.5  T

   *** convergence criteria satisfied after 22 iterations ***

         #    Occupation            Energy/Eh            Energy/eV
      -------------------------------------------------------------
         1        2.0000           -0.6890684             -18.7505
       ...           ...                  ...                  ...
       175        2.0000           -0.3699610             -10.0672
       176        2.0000           -0.3691130             -10.0441
       177        2.0000           -0.3669217              -9.9844
       178        2.0000           -0.3613376              -9.8325
       179        1.9997           -0.3537696              -9.6266
       180        1.9957           -0.3512451              -9.5579
       181        0.6451           -0.3407162              -9.2714 (HOMO)
       182        0.3595           -0.3396098              -9.2413 (LUMO)
       183                         -0.2953836              -8.0378
       184                         -0.2895299              -7.8785
       185                         -0.2839350              -7.7263
       186                         -0.2686047              -7.3091
       ...                                ...                  ...
       350                          1.1711691              31.8691
      -------------------------------------------------------------
                  HL-Gap            0.0011064 Eh            0.0301 eV
             Fermi-level           -0.3431205 Eh           -9.3368 eV

 SCC (total)                   0 d,  0 h,  0 min,  1.550 sec
 SCC setup                      ...        0 min,  0.001 sec (  0.046%)
 Dispersion                     ...        0 min,  0.002 sec (  0.122%)
 classical contributions        ...        0 min,  0.001 sec (  0.041%)
 integral evaluation            ...        0 min,  0.008 sec (  0.499%)
 iterations                     ...        0 min,  1.455 sec ( 93.839%)
 molecular gradient             ...        0 min,  0.070 sec (  4.522%)
 printout                       ...        0 min,  0.014 sec (  0.930%)

         :::::::::::::::::::::::::::::::::::::::::::::::::::::
         ::                     SUMMARY                     ::
         :::::::::::::::::::::::::::::::::::::::::::::::::::::
         :: total energy            -194.964889784208 Eh    ::
         :: gradient norm              0.693564108567 Eh/a0 ::
         :: HOMO-LUMO gap              0.030107505316 eV    ::
         ::.................................................::
         :: SCC energy              -198.173962016387 Eh    ::
         :: -> isotropic ES            0.211396771844 Eh    ::
         :: -> anisotropic ES         -0.001311232024 Eh    ::
         :: -> anisotropic XC          0.104239633787 Eh    ::
         :: -> dispersion             -0.209544284811 Eh    ::
         :: repulsion energy           3.209072232178 Eh    ::
         :: add. restraining           0.000000000000 Eh    ::
         :: total charge              -0.000000000001 e     ::
         :::::::::::::::::::::::::::::::::::::::::::::::::::::

      ----------------------------------------------------------- 
     |                   =====================                   |
     |                        A N C O P T                        |
     |                   =====================                   |
     |               Approximate Normal Coordinate               |
     |                Rational Function Optimizer                |
      ----------------------------------------------------------- 
      ----------------------------------------------------------- 
     |                   =====================                   |
     |                        A N C O P T                        |
     |                   =====================                   |
     |               Approximate Normal Coordinate               |
     |                Rational Function Optimizer                |
      ----------------------------------------------------------- 

          ...................................................
          :                      SETUP                      :
          :.................................................:
          :   optimization level            normal          :
          :   max. optcycles                   411          :
          :   ANC micro-cycles                  20          :
          :   degrees of freedom               405          :
          :.................................................:
          :   RF solver                   davidson          :
          :   write xtbopt.log                true          :
          :   linear?                        false          :
          :   energy convergence         0.5000000E-05 Eh   :
          :   grad. convergence          0.1000000E-02 Eh/α :
          :   maxmium RF displ.          1.0000000          :
          :   Hlow (freq-cutoff)         0.1000000E-01      :
          :   Hmax (freq-cutoff)         5.0000000          :
          :   S6 in model hess.         20.0000000          :
          ...................................................

generating ANC from exact Hessian ...
Using Lindh-Hessian (1995)
 Shifting diagonal of input Hessian by    1.1664657831475000E-002
 Lowest  eigenvalues of input Hessian
    0.010000    0.010251    0.010624    0.011290    0.011469    0.000000
    0.000000    0.000000    0.000000    0.000000    0.000000    0.011707
    0.011746    0.011811    0.011912    0.011972    0.012037    0.012230
 Highest eigenvalues
    2.329077    2.462783    2.516340    2.516772    2.690956    2.703279


........................................................................
.............................. CYCLE    1 ..............................
........................................................................

 iter      E             dE          RMSdq      gap      omega  full diag
   1   -198.1774629 -0.198177E+03  0.381E-04    0.03       0.0  T
   2   -198.1774579  0.498605E-05  0.354E-03    0.03       2.4  T
   3   -198.1774624 -0.449811E-05  0.118E-03    0.03       7.2  T
   4   -198.1774627 -0.282764E-06  0.795E-04    0.03      10.7  T
   5   -198.1774628 -0.117318E-06  0.571E-04    0.03      15.0  T
     SCC iter.                  ...        0 min,  0.262 sec
     gradient                   ...        0 min,  0.061 sec
 * total energy  :  -194.9648897 Eh     change        0.7821382E-07 Eh
   gradient norm :     0.6935641 Eh/α   predicted     0.0000000E+00 (-100.00%)
   displ. norm   :     0.6092421 α      lambda       -0.3479674E+00
   maximum displ.:     0.1518468 α      in ANC's #260, #285, #264, ...

........................................................................
.............................. CYCLE    2 ..............................
........................................................................

 iter      E             dE          RMSdq      gap      omega  full diag
   1   -198.3508027 -0.198351E+03  0.398E-01    0.05       0.0  T
   2   -197.9870669  0.363736E+00  0.105E+00    0.41       1.0  T
   3   -198.3666899 -0.379623E+00  0.243E-01    0.05       1.0  T
   4   -198.2969384  0.697516E-01  0.483E-01    0.12       1.0  T
   5   -198.3487679 -0.518296E-01  0.282E-01    0.15       1.0  T
   6   -198.3656492 -0.168813E-01  0.136E-01    0.03       1.0  T
   7   -198.3719640 -0.631482E-02  0.703E-02    0.05       1.0  T
   8   -198.3721811 -0.217015E-03  0.554E-02    0.05       1.0  T
   9   -198.3728773 -0.696275E-03  0.293E-02    0.04       1.0  T
  10   -198.3730417 -0.164354E-03  0.131E-02    0.04       1.0  T
  11   -198.3730172  0.245091E-04  0.160E-02    0.04       1.0  T
  12   -198.3731057 -0.884861E-04  0.265E-03    0.04       3.2  T
  13   -198.3731071 -0.145723E-05  0.133E-03    0.04       6.4  T
  14   -198.3731074 -0.234725E-06  0.957E-04    0.04       8.9  T
  15   -198.3731077 -0.298430E-06  0.309E-04    0.04      27.6  T
     SCC iter.                  ...        0 min,  0.770 sec
     gradient                   ...        0 min,  0.059 sec
 * total energy  :  -195.2312012 Eh     change       -0.2663115E+00 Eh
   gradient norm :     0.3457557 Eh/α   predicted    -0.2386981E+00 ( -10.37%)
   displ. norm   :     0.6758967 α      lambda       -0.2003537E+00
   maximum displ.:     0.1734564 α      in ANC's #260, #257, #285, ...

........................................................................
.............................. CYCLE    3 ..............................
........................................................................

 iter      E             dE          RMSdq      gap      omega  full diag
   1   -198.5550465 -0.198555E+03  0.417E-01    0.06       0.0  T
   2   -198.2247865  0.330260E+00  0.100E+00    0.48       1.0  T
   3   -198.5751808 -0.350394E+00  0.217E-01    0.03       1.0  T
   4   -198.5315006  0.436801E-01  0.386E-01    0.07       1.0  T
   5   -198.5506972 -0.191966E-01  0.301E-01    0.15       1.0  T
   6   -198.5768503 -0.261530E-01  0.913E-02    0.03       1.0  T
   7   -198.5782095 -0.135923E-02  0.405E-02    0.03       1.0  T
   8   -198.5775445  0.665033E-03  0.617E-02    0.06       1.0  T
   9   -198.5782099 -0.665439E-03  0.426E-02    0.05       1.0  T
  10   -198.5786899 -0.480021E-03  0.183E-02    0.04       1.0  T
  11   -198.5787920 -0.102095E-03  0.287E-03    0.04       3.0  T
  12   -198.5787922 -0.204989E-06  0.194E-03    0.04       4.4  T
  13   -198.5787932 -0.100577E-05  0.535E-04    0.04      16.0  T
  14   -198.5787933 -0.515797E-07  0.220E-04    0.04      38.8  T
  15   -198.5787933  0.127432E-07  0.235E-04    0.04      36.3  T
     SCC iter.                  ...        0 min,  0.853 sec
     gradient                   ...        0 min,  0.061 sec
 * total energy  :  -195.3821690 Eh     change       -0.1509678E+00 Eh
   gradient norm :     0.1600866 Eh/α   predicted    -0.1459413E+00 (  -3.33%)
   displ. norm   :     0.7332132 α      lambda       -0.1019922E+00
   maximum displ.:     0.1649924 α      in ANC's #82, #85, #94, ...

........................................................................
.............................. CYCLE    4 ..............................
........................................................................

 iter      E             dE          RMSdq      gap      omega  full diag
   1   -198.6678191 -0.198668E+03  0.346E-01    0.02       0.0  T
   2   -198.5959014  0.719177E-01  0.504E-01    0.40       1.0  T
   3   -198.6058189 -0.991754E-02  0.464E-01    0.26       1.0  T
   4   -198.6386544 -0.328355E-01  0.348E-01    0.14       1.0  T
   5   -198.6634696 -0.248152E-01  0.180E-01    0.03       1.0  T
   6   -198.6712438 -0.777421E-02  0.672E-02    0.05       1.0  T
   7   -198.6725269 -0.128313E-02  0.179E-02    0.03       1.0  T
   8   -198.6721560  0.370954E-03  0.354E-02    0.04       1.0  T
   9   -198.6725248 -0.368828E-03  0.106E-02    0.03       1.0  T
  10   -198.6725336 -0.876566E-05  0.787E-03    0.03       1.1  T
  11   -198.6725531 -0.195760E-04  0.240E-03    0.03       3.6  T
  12   -198.6725514  0.175613E-05  0.284E-03    0.04       3.0  T
  13   -198.6725537 -0.226496E-05  0.135E-03    0.03       6.3  T
  14   -198.6725540 -0.358430E-06  0.911E-04    0.03       9.4  T
  15   -198.6725543 -0.273883E-06  0.257E-04    0.03      33.3  T
     SCC iter.                  ...        0 min,  0.870 sec
     gradient                   ...        0 min,  0.061 sec
 * total energy  :  -195.4640421 Eh     change       -0.8187309E-01 Eh
   gradient norm :     0.1048875 Eh/α   predicted    -0.7841190E-01 (  -4.23%)
   displ. norm   :     0.7744544 α      lambda       -0.6576670E-01
   maximum displ.:     0.1942462 α      in ANC's #82, #30, #22, ...

........................................................................
.............................. CYCLE    5 ..............................
........................................................................

 iter      E             dE          RMSdq      gap      omega  full diag
   1   -198.7114018 -0.198711E+03  0.296E-01    0.02       0.0  T
   2   -198.6883772  0.230246E-01  0.314E-01    0.20       1.0  T
   3   -198.6458907  0.424865E-01  0.472E-01    0.36       1.0  T
   4   -198.7060456 -0.601549E-01  0.169E-01    0.03       1.0  T
   5   -198.7119217 -0.587613E-02  0.664E-02    0.04       1.0  T
   6   -198.7127594 -0.837707E-03  0.409E-02    0.03       1.0  T
   7   -198.7130023 -0.242910E-03  0.254E-02    0.03       1.0  T
   8   -198.7131308 -0.128526E-03  0.152E-02    0.03       1.0  T
   9   -198.7132012 -0.703924E-04  0.633E-03    0.03       1.4  T
  10   -198.7132130 -0.117596E-04  0.127E-03    0.03       6.7  T
  11   -198.7132130 -0.491030E-07  0.970E-04    0.03       8.8  T
  12   -198.7132132 -0.215662E-06  0.388E-04    0.03      22.0  T
     SCC iter.                  ...        0 min,  0.651 sec
     gradient                   ...        0 min,  0.061 sec
 * total energy  :  -195.5188477 Eh     change       -0.5480557E-01 Eh
   gradient norm :     0.0795511 Eh/α   predicted    -0.5260615E-01 (  -4.01%)
   displ. norm   :     0.8105531 α      lambda       -0.4739472E-01
   maximum displ.:     0.2285283 α      in ANC's #30, #22, #82, ...

........................................................................
.............................. CYCLE    6 ..............................
........................................................................

 iter      E             dE          RMSdq      gap      omega  full diag
   1   -198.7369164 -0.198737E+03  0.248E-01    0.02       0.0  T
   2   -198.7230506  0.138657E-01  0.244E-01    0.11       1.0  T
   3   -198.6747929  0.482578E-01  0.451E-01    0.34       1.0  T
   4   -198.7248734 -0.500806E-01  0.199E-01    0.04       1.0  T
   5   -198.7341075 -0.923403E-02  0.108E-01    0.02       1.0  T
   6   -198.7366416 -0.253418E-02  0.550E-02    0.04       1.0  T
   7   -198.7376385 -0.996913E-03  0.151E-02    0.03       1.0  T
   8   -198.7377039 -0.653736E-04  0.508E-03    0.03       1.7  T
   9   -198.7376989  0.504575E-05  0.522E-03    0.03       1.6  T
  10   -198.7377040 -0.513073E-05  0.336E-03    0.03       2.5  T
  11   -198.7377077 -0.372226E-05  0.588E-04    0.03      14.5  T
  12   -198.7377077  0.374047E-08  0.485E-04    0.03      17.6  T
  13   -198.7377078 -0.602470E-07  0.264E-04    0.03      32.4  T
     SCC iter.                  ...        0 min,  0.709 sec
     gradient                   ...        0 min,  0.059 sec
 * total energy  :  -195.5596389 Eh     change       -0.4079128E-01 Eh
   gradient norm :     0.0620250 Eh/α   predicted    -0.3926647E-01 (  -3.74%)
   displ. norm   :     0.8436680 α      lambda       -0.3721009E-01
   maximum displ.:     0.2535159 α      in ANC's #22, #30, #24, ...

........................................................................
.............................. CYCLE    7 ..............................
........................................................................

 iter      E             dE          RMSdq      gap      omega  full diag
   1   -198.7505543 -0.198751E+03  0.205E-01    0.03       0.0  T
   2   -198.7424609  0.809343E-02  0.196E-01    0.04       1.0  T
   3   -198.7124482  0.300126E-01  0.352E-01    0.31       1.0  T
   4   -198.7447419 -0.322936E-01  0.148E-01    0.05       1.0  T
   5   -198.7406391  0.410273E-02  0.171E-01    0.09       1.0  T
   6   -198.7509397 -0.103005E-01  0.163E-02    0.03       1.0  T
   7   -198.7509551 -0.154291E-04  0.141E-02    0.03       1.0  T
   8   -198.7509984 -0.432596E-04  0.577E-03    0.03       1.5  T
   9   -198.7510021 -0.369862E-05  0.387E-03    0.03       2.2  T
  10   -198.7510057 -0.362796E-05  0.226E-03    0.03       3.8  T
  11   -198.7510072 -0.155976E-05  0.728E-04    0.03      11.7  T
  12   -198.7510073 -0.782883E-07  0.383E-04    0.03      22.3  T
  13   -198.7510074 -0.413436E-07  0.945E-05    0.03      90.5  T
     SCC iter.                  ...        0 min,  0.788 sec
     gradient                   ...        0 min,  0.060 sec
 * total energy  :  -195.5925208 Eh     change       -0.3288189E-01 Eh
   gradient norm :     0.0495723 Eh/α   predicted    -0.3184771E-01 (  -3.15%)
   displ. norm   :     0.8687414 α      lambda       -0.3128257E-01
   maximum displ.:     0.2834190 α      in ANC's #22, #30, #24, ...

........................................................................
.............................. CYCLE    8 ..............................
........................................................................

 iter      E             dE          RMSdq      gap      omega  full diag
   1   -198.7626075 -0.198763E+03  0.179E-01    0.03       0.0  T
   2   -198.7603911  0.221646E-02  0.133E-01    0.03       1.0  T
   3   -198.7245876  0.358035E-01  0.342E-01    0.29       1.0  T
   4   -198.7616029 -0.370153E-01  0.819E-02    0.03       1.0  T
   5   -198.7572624  0.434054E-02  0.126E-01    0.07       1.0  T
   6   -198.7627345 -0.547216E-02  0.245E-02    0.03       1.0  T
   7   -198.7628907 -0.156137E-03  0.679E-03    0.03       1.3  T
   8   -198.7628795  0.111859E-04  0.844E-03    0.03       1.0  T
   9   -198.7629000 -0.204849E-04  0.303E-03    0.03       2.8  T
  10   -198.7629027 -0.276249E-05  0.639E-04    0.03      13.4  T
  11   -198.7629027  0.184955E-07  0.558E-04    0.03      15.3  T
  12   -198.7629028 -0.624174E-07  0.274E-04    0.03      31.2  T
     SCC iter.                  ...        0 min,  0.842 sec
     gradient                   ...        0 min,  0.056 sec
 * total energy  :  -195.6200482 Eh     change       -0.2752738E-01 Eh
   gradient norm :     0.0434304 Eh/α   predicted    -0.2744600E-01 (  -0.30%)
   displ. norm   :     0.8923419 α      lambda       -0.2765961E-01
   maximum displ.:     0.2863455 α      in ANC's #22, #30, #27, ...

........................................................................
.............................. CYCLE    9 ..............................
........................................................................

 iter      E             dE          RMSdq      gap      omega  full diag
   1   -198.7660934 -0.198766E+03  0.170E-01    0.04       0.0  T
   2   -198.7352891  0.308043E-01  0.314E-01    0.11       1.0  T
   3   -198.7438730 -0.858391E-02  0.270E-01    0.16       1.0  T
   4   -198.7572479 -0.133749E-01  0.196E-01    0.03       1.0  T
   5   -198.7644605 -0.721257E-02  0.854E-02    0.05       1.0  T
   6   -198.7666583 -0.219784E-02  0.245E-02    0.04       1.0  T
   7   -198.7667820 -0.123700E-03  0.123E-02    0.03       1.0  T
   8   -198.7668271 -0.450976E-04  0.287E-03    0.03       3.0  T
   9   -198.7668278 -0.623090E-06  0.173E-03    0.03       4.9  T
  10   -198.7668277  0.191102E-07  0.139E-03    0.03       6.2  T
  11   -198.7668283 -0.561390E-06  0.508E-04    0.03      16.8  T
  12   -198.7668284 -0.558932E-07  0.140E-04    0.03      60.8  T
     SCC iter.                  ...        0 min,  0.735 sec
     gradient                   ...        0 min,  0.059 sec
 * total energy  :  -195.6425658 Eh     change       -0.2251755E-01 Eh
   gradient norm :     0.0532664 Eh/α   predicted    -0.2484212E-01 (  10.32%)
   displ. norm   :     0.8582289 α      lambda       -0.2411052E-01
   maximum displ.:     0.3062864 α      in ANC's #22, #24, #30, ...

........................................................................
.............................. CYCLE   10 ..............................
........................................................................

 iter      E             dE          RMSdq      gap      omega  full diag
   1   -198.7728991 -0.198773E+03  0.137E-01    0.03       0.0  T
   2   -198.7724517  0.447383E-03  0.913E-02    0.04       1.0  T
   3   -198.7420088  0.304429E-01  0.312E-01    0.12       1.0  T
   4   -198.7550674 -0.130586E-01  0.222E-01    0.11       1.0  T
   5   -198.7724939 -0.174265E-01  0.461E-02    0.03       1.0  T
   6   -198.7729583 -0.464410E-03  0.177E-02    0.03       1.0  T
   7   -198.7730495 -0.911738E-04  0.640E-03    0.03       1.3  T
   8   -198.7730574 -0.794012E-05  0.275E-03    0.03       3.1  T
   9   -198.7730576 -0.186522E-06  0.164E-03    0.03       5.2  T
  10   -198.7730583 -0.690088E-06  0.770E-04    0.03      11.1  T
  11   -198.7730583 -0.310374E-07  0.524E-04    0.03      16.3  T
     SCC iter.                  ...        0 min,  0.585 sec
     gradient                   ...        0 min,  0.060 sec
 * total energy  :  -195.6617643 Eh     change       -0.1919853E-01 Eh
   gradient norm :     0.0482539 Eh/α   predicted    -0.2093466E-01 (   9.04%)
   displ. norm   :     0.8479874 α      lambda       -0.2096700E-01
   maximum displ.:     0.2974572 α      in ANC's #22, #24, #30, ...

........................................................................
.............................. CYCLE   11 ..............................
........................................................................

 iter      E             dE          RMSdq      gap      omega  full diag
   1   -198.7663511 -0.198766E+03  0.143E-01    0.03       0.0  T
   2   -198.7652543  0.109687E-02  0.110E-01    0.03       1.0  T
   3   -198.7394609  0.257934E-01  0.281E-01    0.16       1.0  T
   4   -198.7500657 -0.106048E-01  0.228E-01    0.07       1.0  T
   5   -198.7625967 -0.125311E-01  0.109E-01    0.05       1.0  T
   6   -198.7661443 -0.354761E-02  0.429E-02    0.03       1.0  T
   7   -198.7666999 -0.555585E-03  0.608E-03    0.03       1.4  T
   8   -198.7667001 -0.179003E-06  0.475E-03    0.03       1.8  T
   9   -198.7667063 -0.618964E-05  0.109E-03    0.03       7.9  T
  10   -198.7667059  0.345062E-06  0.119E-03    0.03       7.2  T
  11   -198.7667063 -0.403285E-06  0.564E-04    0.03      15.1  T
  12   -198.7667064 -0.646355E-07  0.297E-04    0.03      28.8  T
     SCC iter.                  ...        0 min,  0.682 sec
     gradient                   ...        0 min,  0.059 sec
 * total energy  :  -195.6771637 Eh     change       -0.1539944E-01 Eh
   gradient norm :     0.0552866 Eh/α   predicted    -0.1802202E-01 (  17.03%)
   displ. norm   :     0.8126419 α      lambda       -0.1744197E-01
   maximum displ.:     0.2868765 α      in ANC's #22, #24, #34, ...

........................................................................
.............................. CYCLE   12 ..............................
........................................................................

 iter      E             dE          RMSdq      gap      omega  full diag
   1   -198.7719269 -0.198772E+03  0.113E-01    0.03       0.0  T
   2   -198.7691570  0.276991E-02  0.124E-01    0.04       1.0  T
   3   -198.7543460  0.148110E-01  0.228E-01    0.08       1.0  T
   4   -198.7479598  0.638617E-02  0.270E-01    0.13       1.0  T
   5   -198.7716948 -0.237349E-01  0.441E-02    0.03       1.0  T
   6   -198.7721107 -0.415963E-03  0.187E-02    0.03       1.0  T
   7   -198.7721744 -0.636366E-04  0.937E-03    0.03       1.0  T
   8   -198.7722002 -0.258287E-04  0.289E-03    0.03       3.0  T
   9   -198.7722012 -0.998894E-06  0.185E-03    0.03       4.6  T
  10   -198.7722022 -0.993774E-06  0.642E-04    0.03      13.3  T
  11   -198.7722021  0.999013E-07  0.741E-04    0.03      11.5  T
     SCC iter.                  ...        0 min,  0.563 sec
     gradient                   ...        0 min,  0.058 sec
 * total energy  :  -195.6914582 Eh     change       -0.1429451E-01 Eh
   gradient norm :     0.0322780 Eh/α   predicted    -0.1448022E-01 (   1.30%)
   displ. norm   :     0.8460522 α      lambda       -0.1444713E-01
   maximum displ.:     0.3141284 α      in ANC's #22, #24, #27, ...

........................................................................
.............................. CYCLE   13 ..............................
........................................................................

 iter      E             dE          RMSdq      gap      omega  full diag
   1   -198.7693803 -0.198769E+03  0.115E-01    0.03       0.0  T
   2   -198.7574105  0.119698E-01  0.199E-01    0.06       1.0  T
   3   -198.7562456  0.116488E-02  0.201E-01    0.09       1.0  T
   4   -198.7654533 -0.920770E-02  0.122E-01    0.03       1.0  T
   5   -198.7683078 -0.285445E-02  0.608E-02    0.04       1.0  T
   6   -198.7695423 -0.123455E-02  0.861E-03    0.03       1.0  T
   7   -198.7695567 -0.143817E-04  0.400E-03    0.03       2.1  T
   8   -198.7695592 -0.246161E-05  0.232E-03    0.03       3.7  T
   9   -198.7695599 -0.746921E-06  0.901E-04    0.03       9.5  T
  10   -198.7695600 -0.109484E-06  0.505E-04    0.03      16.9  T
     SCC iter.                  ...        0 min,  0.542 sec
     gradient                   ...        0 min,  0.057 sec
 * total energy  :  -195.7035160 Eh     change       -0.1205773E-01 Eh
   gradient norm :     0.0295911 Eh/α   predicted    -0.1239423E-01 (   2.79%)
   displ. norm   :     0.8563685 α      lambda       -0.1203925E-01
   maximum displ.:     0.3044512 α      in ANC's #22, #24, #18, ...

........................................................................
.............................. CYCLE   14 ..............................
........................................................................

 iter      E             dE          RMSdq      gap      omega  full diag
   1   -198.7705002 -0.198771E+03  0.110E-01    0.02       0.0  T
   2   -198.7600175  0.104826E-01  0.191E-01    0.08       1.0  T
   3   -198.7532538  0.676369E-02  0.223E-01    0.08       1.0  T
   4   -198.7635861 -0.103323E-01  0.147E-01    0.05       1.0  T
   5   -198.7699921 -0.640602E-02  0.515E-02    0.03       1.0  T
   6   -198.7706559 -0.663834E-03  0.122E-02    0.02       1.0  T
   7   -198.7706970 -0.411082E-04  0.360E-03    0.02       2.4  T
   8   -198.7706967  0.346888E-06  0.299E-03    0.02       2.9  T
   9   -198.7706985 -0.179587E-05  0.156E-03    0.02       5.5  T
  10   -198.7706992 -0.684577E-06  0.451E-04    0.02      18.9  T
  11   -198.7706992 -0.513832E-07  0.192E-04    0.02      44.6  T
     SCC iter.                  ...        0 min,  0.664 sec
     gradient                   ...        0 min,  0.064 sec
 * total energy  :  -195.7140761 Eh     change       -0.1056017E-01 Eh
   gradient norm :     0.0221857 Eh/α   predicted    -0.1043422E-01 (  -1.19%)
   displ. norm   :     0.8657987 α      lambda       -0.1003669E-01
   maximum displ.:     0.2995583 α      in ANC's #22, #19, #18, ...

........................................................................
.............................. CYCLE   15 ..............................
........................................................................

 iter      E             dE          RMSdq      gap      omega  full diag
   1   -198.7667056 -0.198767E+03  0.117E-01    0.02       0.0  T
   2   -198.7533367  0.133689E-01  0.206E-01    0.06       1.0  T
   3   -198.7462954  0.704126E-02  0.250E-01    0.12       1.0  T
   4   -198.7609923 -0.146969E-01  0.152E-01    0.02       1.0  T
   5   -198.7651210 -0.412861E-02  0.715E-02    0.04       1.0  T
   6   -198.7668245 -0.170358E-02  0.180E-02    0.02       1.0  T
   7   -198.7668977 -0.731176E-04  0.881E-03    0.02       1.0  T
   8   -198.7669170 -0.193484E-04  0.418E-03    0.02       2.0  T
   9   -198.7669203 -0.327348E-05  0.229E-03    0.02       3.7  T
  10   -198.7669217 -0.139525E-05  0.700E-04    0.02      12.2  T
  11   -198.7669217 -0.727795E-07  0.363E-04    0.02      23.5  T
  12   -198.7669218 -0.283888E-07  0.152E-04    0.02      56.2  T
     SCC iter.                  ...        0 min,  0.747 sec
     gradient                   ...        0 min,  0.061 sec
 * total energy  :  -195.7230207 Eh     change       -0.8944520E-02 Eh
   gradient norm :     0.0204636 Eh/α   predicted    -0.8780157E-02 (  -1.84%)
   displ. norm   :     0.8765874 α      lambda       -0.9082927E-02
   maximum displ.:     0.2720271 α      in ANC's #22, #18, #19, ...

........................................................................
.............................. CYCLE   16 ..............................
........................................................................

 iter      E             dE          RMSdq      gap      omega  full diag
   1   -198.7699820 -0.198770E+03  0.129E-01    0.02       0.0  T
   2   -198.7466082  0.233738E-01  0.273E-01    0.13       1.0  T
   3   -198.7577076 -0.110994E-01  0.197E-01    0.06       1.0  T
   4   -198.7615469 -0.383933E-02  0.169E-01    0.05       1.0  T
   5   -198.7696569 -0.811004E-02  0.553E-02    0.02       1.0  T
   6   -198.7703809 -0.723969E-03  0.104E-02    0.02       1.0  T
   7   -198.7703915 -0.105953E-04  0.703E-03    0.02       1.2  T
   8   -198.7704061 -0.146265E-04  0.270E-03    0.02       3.2  T
   9   -198.7704073 -0.118260E-05  0.128E-03    0.02       6.7  T
  10   -198.7704075 -0.235678E-06  0.499E-04    0.02      17.1  T
  11   -198.7704074  0.125963E-06  0.723E-04    0.02      11.8  T
     SCC iter.                  ...        0 min,  0.563 sec
     gradient                   ...        0 min,  0.059 sec
 * total energy  :  -195.7305949 Eh     change       -0.7574226E-02 Eh
   gradient norm :     0.0317201 Eh/α   predicted    -0.8031152E-02 (   6.03%)
   displ. norm   :     0.8404044 α      lambda       -0.8336327E-02
   maximum displ.:     0.2522383 α      in ANC's #22, #19, #18, ...

........................................................................
.............................. CYCLE   17 ..............................
........................................................................

 iter      E             dE          RMSdq      gap      omega  full diag
   1   -198.7660407 -0.198766E+03  0.129E-01    0.02       0.0  T
   2   -198.7476991  0.183416E-01  0.242E-01    0.07       1.0  T
   3   -198.7441751  0.352399E-02  0.261E-01    0.12       1.0  T
   4   -198.7600127 -0.158375E-01  0.162E-01    0.01       1.0  T
   5   -198.7646284 -0.461579E-02  0.731E-02    0.03       1.0  T
   6   -198.7663017 -0.167326E-02  0.207E-02    0.02       1.0  T
   7   -198.7663785 -0.768337E-04  0.101E-02    0.02       1.0  T
   8   -198.7663975 -0.189179E-04  0.619E-03    0.02       1.4  T
   9   -198.7664042 -0.675819E-05  0.374E-03    0.02       2.3  T
  10   -198.7664082 -0.395503E-05  0.110E-03    0.02       7.8  T
  11   -198.7664084 -0.223343E-06  0.381E-04    0.02      22.4  T
  12   -198.7664084  0.230696E-07  0.366E-04    0.02      23.3  T
     SCC iter.                  ...        0 min,  0.611 sec
     gradient                   ...        0 min,  0.060 sec
 * total energy  :  -195.7372091 Eh     change       -0.6614223E-02 Eh
   gradient norm :     0.0249171 Eh/α   predicted    -0.7112059E-02 (   7.53%)
   displ. norm   :     0.8180373 α      lambda       -0.6628071E-02
   maximum displ.:     0.2235235 α      in ANC's #22, #19, #8, ...

........................................................................
.............................. CYCLE   18 ..............................
........................................................................

 iter      E             dE          RMSdq      gap      omega  full diag
   1   -198.7604797 -0.198760E+03  0.126E-01    0.02       0.0  T
   2   -198.7495132  0.109665E-01  0.187E-01    0.05       1.0  T
   3   -198.7293648  0.201484E-01  0.305E-01    0.16       1.0  T
   4   -198.7540047 -0.246399E-01  0.160E-01    0.03       1.0  T
   5   -198.7581119 -0.410724E-02  0.860E-02    0.04       1.0  T
   6   -198.7604763 -0.236432E-02  0.234E-02    0.02       1.0  T
   7   -198.7605890 -0.112781E-03  0.133E-02    0.02       1.0  T
   8   -198.7606290 -0.399279E-04  0.742E-03    0.02       1.2  T
   9   -198.7606423 -0.133510E-04  0.315E-03    0.02       2.7  T
  10   -198.7606450 -0.267053E-05  0.932E-04    0.02       9.2  T
  11   -198.7606449  0.819423E-07  0.894E-04    0.02       9.6  T
  12   -198.7606452 -0.263965E-06  0.117E-04    0.02      72.9  T
     SCC iter.                  ...        0 min,  0.827 sec
     gradient                   ...        0 min,  0.057 sec
 * total energy  :  -195.7427682 Eh     change       -0.5559059E-02 Eh
   gradient norm :     0.0199225 Eh/α   predicted    -0.5531766E-02 (  -0.49%)
   displ. norm   :     0.8194097 α      lambda       -0.5734209E-02
   maximum displ.:     0.2423462 α      in ANC's #14, #19, #8, ...

........................................................................
.............................. CYCLE   19 ..............................
........................................................................

 iter      E             dE          RMSdq      gap      omega  full diag
   1   -198.7689134 -0.198769E+03  0.120E-01    0.01       0.0  T
   2   -198.7651284  0.378500E-02  0.135E-01    0.04       1.0  T
   3   -198.7337424  0.313860E-01  0.314E-01    0.13       1.0  T
   4   -198.7493990 -0.156566E-01  0.252E-01    0.09       1.0  T
   5   -198.7673411 -0.179421E-01  0.727E-02    0.01       1.0  T
   6   -198.7686258 -0.128471E-02  0.333E-02    0.01       1.0  T
   7   -198.7690297 -0.403856E-03  0.777E-03    0.01       1.1  T
   8   -198.7690433 -0.136845E-04  0.376E-03    0.01       2.3  T
   9   -198.7690443 -0.927675E-06  0.260E-03    0.01       3.3  T
  10   -198.7690462 -0.195800E-05  0.743E-04    0.01      11.5  T
  11   -198.7690462 -0.215732E-08  0.542E-04    0.01      15.8  T
  12   -198.7690463 -0.657894E-07  0.217E-04    0.01      39.3  T
     SCC iter.                  ...        0 min,  0.666 sec
     gradient                   ...        0 min,  0.057 sec
 * total energy  :  -195.7476661 Eh     change       -0.4897899E-02 Eh
   gradient norm :     0.0162622 Eh/α   predicted    -0.4792212E-02 (  -2.16%)
   displ. norm   :     0.8429692 α      lambda       -0.5298639E-02
   maximum displ.:     0.2630890 α      in ANC's #14, #8, #1, ...

........................................................................
.............................. CYCLE   20 ..............................
........................................................................

 iter      E             dE          RMSdq      gap      omega  full diag
   1   -198.7650855 -0.198765E+03  0.138E-01    0.01       0.0  T
   2   -198.7614166  0.366885E-02  0.134E-01    0.02       1.0  T
   3   -198.7216588  0.397578E-01  0.358E-01    0.21       1.0  T
   4   -198.7509675 -0.293087E-01  0.213E-01    0.04       1.0  T
   5   -198.7605112 -0.954361E-02  0.117E-01    0.05       1.0  T
   6   -198.7647042 -0.419307E-02  0.400E-02    0.02       1.0  T
   7   -198.7650426 -0.338390E-03  0.237E-02    0.02       1.0  T
   8   -198.7651897 -0.147112E-03  0.112E-02    0.02       1.0  T
   9   -198.7652155 -0.257765E-04  0.649E-03    0.01       1.3  T
  10   -198.7652246 -0.910809E-05  0.344E-03    0.01       2.5  T
  11   -198.7652279 -0.324438E-05  0.110E-03    0.01       7.8  T
  12   -198.7652283 -0.400870E-06  0.181E-04    0.01      47.3  T
  13   -198.7652283  0.190113E-09  0.121E-04    0.01      70.8  T
     SCC iter.                  ...        0 min,  0.851 sec
     gradient                   ...        0 min,  0.058 sec
 * total energy  :  -195.7517546 Eh     change       -0.4088524E-02 Eh
   gradient norm :     0.0268290 Eh/α   predicted    -0.4531918E-02 (  10.84%)
   displ. norm   :     0.7609839 α      lambda       -0.5018360E-02
   maximum displ.:     0.2807147 α      in ANC's #14, #8, #31, ...
 * RMSD in coord.:     1.1208527 α      energy gain  -0.7868648E+00 Eh

generating ANC from exact Hessian ...
Using Lindh-Hessian (1995)
 Shifting diagonal of input Hessian by    1.0418291687772524E-002
 Lowest  eigenvalues of input Hessian
    0.010000    0.000000    0.000000    0.000000    0.000000    0.000000
    0.000000    0.010456    0.010512    0.010560    0.010623    0.010716
    0.010837    0.010862    0.010891    0.010943    0.011213    0.011222
 Highest eigenvalues
    2.079401    2.082163    2.188787    2.193477    2.195850    2.201163


........................................................................
.............................. CYCLE   21 ..............................
........................................................................

 iter      E             dE          RMSdq      gap      omega  full diag
   1   -198.7721477 -0.198772E+03  0.114E-01    0.01       0.0  T
   2   -198.7666448  0.550296E-02  0.138E-01    0.03       1.0  T
   3   -198.7336035  0.330413E-01  0.332E-01    0.18       1.0  T
   4   -198.7681352 -0.345317E-01  0.137E-01    0.01       1.0  T
   5   -198.7697623 -0.162709E-02  0.861E-02    0.03       1.0  T
   6   -198.7720356 -0.227338E-02  0.268E-02    0.02       1.0  T
   7   -198.7721690 -0.133399E-03  0.171E-02    0.02       1.0  T
   8   -198.7722352 -0.661581E-04  0.958E-03    0.01       1.0  T
   9   -198.7722604 -0.251850E-04  0.347E-03    0.01       2.5  T
  10   -198.7722631 -0.267300E-05  0.154E-03    0.01       5.5  T
  11   -198.7722633 -0.255456E-06  0.105E-03    0.01       8.1  T
  12   -198.7722637 -0.380670E-06  0.114E-04    0.01      74.7  T
  13   -198.7722637  0.162746E-08  0.991E-05    0.01      86.2  T
     SCC iter.                  ...        0 min,  0.706 sec
     gradient                   ...        0 min,  0.059 sec
 * total energy  :  -195.7555950 Eh     change       -0.3840378E-02 Eh
   gradient norm :     0.0199062 Eh/α   predicted     0.0000000E+00 (-100.00%)
   displ. norm   :     0.3407249 α      lambda       -0.2662668E-02
   maximum displ.:     0.1204936 α      in ANC's #9, #27, #6, ...

........................................................................
.............................. CYCLE   22 ..............................
........................................................................

 iter      E             dE          RMSdq      gap      omega  full diag
   1   -198.7790397 -0.198779E+03  0.671E-02    0.01       0.0  T
   2   -198.7780328  0.100688E-02  0.695E-02    0.03       1.0  T
   3   -198.7544252  0.236076E-01  0.257E-01    0.09       1.0  T
   4   -198.7777789 -0.233537E-01  0.697E-02    0.02       1.0  T
   5   -198.7789260 -0.114713E-02  0.236E-02    0.01       1.0  T
   6   -198.7790471 -0.121107E-03  0.685E-03    0.01       1.2  T
   7   -198.7790562 -0.910687E-05  0.473E-03    0.01       1.8  T
   8   -198.7790547  0.154926E-05  0.473E-03    0.01       1.8  T
   9   -198.7790628 -0.812409E-05  0.631E-04    0.01      13.5  T
  10   -198.7790629 -0.842077E-07  0.271E-04    0.01      31.6  T
  11   -198.7790629 -0.173186E-07  0.132E-04    0.01      64.8  T
     SCC iter.                  ...        0 min,  0.583 sec
     gradient                   ...        0 min,  0.059 sec
 * total energy  :  -195.7579020 Eh     change       -0.2307070E-02 Eh
   gradient norm :     0.0094465 Eh/α   predicted    -0.1485915E-02 ( -35.59%)
   displ. norm   :     0.7486910 α      lambda       -0.4276216E-02
   maximum displ.:     0.2721539 α      in ANC's #9, #27, #6, ...

........................................................................
.............................. CYCLE   23 ..............................
........................................................................

 iter      E             dE          RMSdq      gap      omega  full diag
   1   -198.7844192 -0.198784E+03  0.134E-01    0.01       0.0  T
   2   -198.7839289  0.490312E-03  0.915E-02    0.02       1.0  T
   3   -198.7314509  0.524779E-01  0.388E-01    0.22       1.0  T
   4   -198.7811581 -0.497071E-01  0.104E-01    0.04       1.0  T
   5   -198.7823978 -0.123976E-02  0.782E-02    0.01       1.0  T
   6   -198.7843445 -0.194669E-02  0.198E-02    0.01       1.0  T
   7   -198.7844056 -0.610261E-04  0.151E-02    0.01       1.0  T
   8   -198.7844607 -0.551223E-04  0.814E-03    0.01       1.0  T
   9   -198.7844799 -0.192745E-04  0.373E-03    0.01       2.3  T
  10   -198.7844850 -0.507241E-05  0.872E-04    0.01       9.8  T
  11   -198.7844852 -0.150876E-06  0.551E-04    0.01      15.5  T
  12   -198.7844853 -0.767531E-07  0.270E-04    0.01      31.6  T
     SCC iter.                  ...        0 min,  0.591 sec
     gradient                   ...        0 min,  0.059 sec
 * total energy  :  -195.7615244 Eh     change       -0.3622394E-02 Eh
   gradient norm :     0.0160721 Eh/α   predicted    -0.3337279E-02 (  -7.87%)
   displ. norm   :     0.8007499 α      lambda       -0.3718726E-02
   maximum displ.:     0.3026607 α      in ANC's #9, #27, #6, ...

........................................................................
.............................. CYCLE   24 ..............................
........................................................................

 iter      E             dE          RMSdq      gap      omega  full diag
   1   -198.7847433 -0.198785E+03  0.132E-01    0.01       0.0  T
   2   -198.7845539  0.189368E-03  0.834E-02    0.02       1.0  T
   3   -198.7401261  0.444277E-01  0.354E-01    0.16       1.0  T
   4   -198.7784467 -0.383206E-01  0.135E-01    0.05       1.0  T
   5   -198.7840249 -0.557812E-02  0.494E-02    0.00       1.0  T
   6   -198.7846549 -0.630051E-03  0.206E-02    0.00       1.0  T
   7   -198.7847772 -0.122288E-03  0.914E-03    0.01       1.0  T
   8   -198.7847722  0.501320E-05  0.876E-03    0.01       1.0  T
   9   -198.7848005 -0.282695E-04  0.175E-03    0.01       4.9  T
  10   -198.7848016 -0.110616E-05  0.382E-04    0.01      22.4  T
  11   -198.7848016 -0.128720E-07  0.230E-04    0.01      37.2  T
  12   -198.7848016 -0.110358E-07  0.810E-05    0.01     105.5  T
     SCC iter.                  ...        0 min,  0.589 sec
     gradient                   ...        0 min,  0.059 sec
 * total energy  :  -195.7649104 Eh     change       -0.3385952E-02 Eh
   gradient norm :     0.0217181 Eh/α   predicted    -0.3051587E-02 (  -9.88%)
   displ. norm   :     0.8307828 α      lambda       -0.3941669E-02
   maximum displ.:     0.3229308 α      in ANC's #9, #11, #6, ...

........................................................................
.............................. CYCLE   25 ..............................
........................................................................

 iter      E             dE          RMSdq      gap      omega  full diag
   1   -198.7859398 -0.198786E+03  0.131E-01    0.01       0.0  T
   2   -198.7853779  0.561936E-03  0.889E-02    0.02       1.0  T
   3   -198.7325072  0.528706E-01  0.388E-01    0.23       1.0  T
   4   -198.7849008 -0.523936E-01  0.664E-02    0.02       1.0  T
   5   -198.7843496  0.551195E-03  0.679E-02    0.01       1.0  T
   6   -198.7859250 -0.157532E-02  0.152E-02    0.01       1.0  T
   7   -198.7859432 -0.182869E-04  0.125E-02    0.01       1.0  T
   8   -198.7859937 -0.504168E-04  0.362E-03    0.01       2.4  T
   9   -198.7859970 -0.333636E-05  0.179E-03    0.01       4.8  T
  10   -198.7859980 -0.103183E-05  0.528E-04    0.01      16.2  T
  11   -198.7859981 -0.285189E-07  0.426E-04    0.01      20.0  T
  12   -198.7859981 -0.513991E-07  0.140E-04    0.01      61.2  T
     SCC iter.                  ...        0 min,  0.698 sec
     gradient                   ...        0 min,  0.056 sec
 * total energy  :  -195.7684980 Eh     change       -0.3587620E-02 Eh
   gradient norm :     0.0170595 Eh/α   predicted    -0.3331105E-02 (  -7.15%)
   displ. norm   :     0.8413313 α      lambda       -0.3838063E-02
   maximum displ.:     0.3353560 α      in ANC's #9, #6, #11, ...

........................................................................
.............................. CYCLE   26 ..............................
........................................................................

 iter      E             dE          RMSdq      gap      omega  full diag
   1   -198.7890910 -0.198789E+03  0.130E-01    0.01       0.0  T
   2   -198.7890764  0.146090E-04  0.770E-02    0.01       1.0  T
   3   -198.7801316  0.894473E-02  0.162E-01    0.06       1.0  T
   4   -198.7679460  0.121856E-01  0.238E-01    0.08       1.0  T
   5   -198.7889918 -0.210457E-01  0.267E-02    0.01       1.0  T
   6   -198.7890957 -0.103882E-03  0.142E-02    0.01       1.0  T
   7   -198.7891411 -0.454764E-04  0.557E-03    0.01       1.5  T
   8   -198.7891479 -0.678682E-05  0.158E-03    0.01       5.4  T
   9   -198.7891483 -0.358477E-06  0.600E-04    0.01      14.2  T
  10   -198.7891483 -0.205491E-07  0.394E-04    0.01      21.7  T
     SCC iter.                  ...        0 min,  0.601 sec
     gradient                   ...        0 min,  0.055 sec
 * total energy  :  -195.7719702 Eh     change       -0.3472232E-02 Eh
   gradient norm :     0.0121886 Eh/α   predicted    -0.3277399E-02 (  -5.61%)
   displ. norm   :     0.8401816 α      lambda       -0.3533236E-02
   maximum displ.:     0.3453210 α      in ANC's #9, #6, #11, ...

........................................................................
.............................. CYCLE   27 ..............................
........................................................................

 iter      E             dE          RMSdq      gap      omega  full diag
   1   -198.7950574 -0.198795E+03  0.127E-01    0.01       0.0  T
   2   -198.7950259  0.315094E-04  0.759E-02    0.01       1.0  T
   3   -198.7752697  0.197562E-01  0.232E-01    0.07       1.0  T
   4   -198.7832619 -0.799219E-02  0.179E-01    0.07       1.0  T
   5   -198.7947242 -0.114623E-01  0.379E-02    0.01       1.0  T
   6   -198.7950738 -0.349601E-03  0.134E-02    0.01       1.0  T
   7   -198.7951097 -0.359311E-04  0.412E-03    0.01       2.1  T
   8   -198.7951121 -0.243811E-05  0.183E-03    0.01       4.7  T
   9   -198.7951128 -0.694187E-06  0.615E-04    0.01      13.9  T
  10   -198.7951129 -0.292580E-07  0.367E-04    0.01      23.3  T
     SCC iter.                  ...        0 min,  0.610 sec
     gradient                   ...        0 min,  0.058 sec
 * total energy  :  -195.7751410 Eh     change       -0.3170730E-02 Eh
   gradient norm :     0.0102835 Eh/α   predicted    -0.3013718E-02 (  -4.95%)
   displ. norm   :     0.8788059 α      lambda       -0.3248204E-02
   maximum displ.:     0.3618171 α      in ANC's #9, #6, #11, ...

........................................................................
.............................. CYCLE   28 ..............................
........................................................................

 iter      E             dE          RMSdq      gap      omega  full diag
   1   -198.7920360 -0.198792E+03  0.132E-01    0.01       0.0  T
   2   -198.7841348  0.790118E-02  0.160E-01    0.04       1.0  T
   3   -198.7457315  0.384033E-01  0.357E-01    0.22       1.0  T
   4   -198.7861605 -0.404290E-01  0.140E-01    0.04       1.0  T
   5   -198.7890637 -0.290319E-02  0.955E-02    0.04       1.0  T
   6   -198.7917735 -0.270978E-02  0.332E-02    0.02       1.0  T
   7   -198.7920703 -0.296826E-03  0.159E-02    0.02       1.0  T
   8   -198.7921334 -0.630721E-04  0.768E-03    0.01       1.1  T
   9   -198.7921481 -0.147529E-04  0.339E-03    0.01       2.5  T
  10   -198.7921506 -0.242140E-05  0.187E-03    0.01       4.6  T
  11   -198.7921517 -0.110582E-05  0.453E-04    0.01      18.9  T
  12   -198.7921517 -0.583449E-07  0.113E-04    0.01      75.9  T
  13   -198.7921517 -0.638892E-09  0.711E-05    0.01     120.2  T
     SCC iter.                  ...        0 min,  0.682 sec
     gradient                   ...        0 min,  0.060 sec
 * total energy  :  -195.7779840 Eh     change       -0.2843043E-02 Eh
   gradient norm :     0.0164043 Eh/α   predicted    -0.2878395E-02 (   1.24%)
   displ. norm   :     0.8258729 α      lambda       -0.3418247E-02
   maximum displ.:     0.3428268 α      in ANC's #9, #6, #11, ...

........................................................................
.............................. CYCLE   29 ..............................
........................................................................

 iter      E             dE          RMSdq      gap      omega  full diag
   1   -198.8067928 -0.198807E+03  0.118E-01    0.01       0.0  T
   2   -198.8062242  0.568534E-03  0.787E-02    0.00       1.0  T
   3   -198.7532638  0.529605E-01  0.374E-01    0.24       1.0  T
   4   -198.8059173 -0.526535E-01  0.592E-02    0.01       1.0  T
   5   -198.8056599  0.257345E-03  0.616E-02    0.03       1.0  T
   6   -198.8067891 -0.112915E-02  0.144E-02    0.01       1.0  T
   7   -198.8068320 -0.429227E-04  0.724E-03    0.01       1.2  T
   8   -198.8068464 -0.143647E-04  0.189E-03    0.01       4.5  T
   9   -198.8068466 -0.273278E-06  0.109E-03    0.01       7.9  T
  10   -198.8068465  0.163304E-06  0.109E-03    0.01       7.8  T
  11   -198.8068469 -0.381429E-06  0.271E-04    0.01      31.5  T
  12   -198.8068469 -0.176295E-07  0.957E-05    0.01      89.3  T
     SCC iter.                  ...        0 min,  0.607 sec
     gradient                   ...        0 min,  0.060 sec
 * total energy  :  -195.7807992 Eh     change       -0.2815195E-02 Eh
   gradient norm :     0.0161232 Eh/α   predicted    -0.2874892E-02 (   2.12%)
   displ. norm   :     0.8514528 α      lambda       -0.2958077E-02
   maximum displ.:     0.3526160 α      in ANC's #9, #6, #11, ...

........................................................................
.............................. CYCLE   30 ..............................
........................................................................

 iter      E             dE          RMSdq      gap      omega  full diag
   1   -198.8013461 -0.198801E+03  0.118E-01    0.02       0.0  T
   2   -198.7895331  0.118130E-01  0.187E-01    0.05       1.0  T
   3   -198.7702136  0.193194E-01  0.296E-01    0.16       1.0  T
   4   -198.7943051 -0.240915E-01  0.161E-01    0.04       1.0  T
   5   -198.7993336 -0.502842E-02  0.800E-02    0.04       1.0  T
   6   -198.8013605 -0.202696E-02  0.212E-02    0.02       1.0  T
   7   -198.8014562 -0.957111E-04  0.124E-02    0.02       1.0  T
   8   -198.8014957 -0.394350E-04  0.528E-03    0.01       1.6  T
   9   -198.8015025 -0.679846E-05  0.262E-03    0.01       3.3  T
  10   -198.8015028 -0.345229E-06  0.211E-03    0.01       4.0  T
  11   -198.8015042 -0.140225E-05  0.714E-04    0.01      12.0  T
  12   -198.8015044 -0.158451E-06  0.977E-05    0.01      87.4  T
  13   -198.8015044 -0.236838E-09  0.647E-05    0.01     132.0  T
     SCC iter.                  ...        0 min,  0.730 sec
     gradient                   ...        0 min,  0.060 sec
 * total energy  :  -195.7835013 Eh     change       -0.2702076E-02 Eh
   gradient norm :     0.0156269 Eh/α   predicted    -0.2551302E-02 (  -5.58%)
   displ. norm   :     0.8222284 α      lambda       -0.3255405E-02
   maximum displ.:     0.3299066 α      in ANC's #6, #11, #9, ...

........................................................................
.............................. CYCLE   31 ..............................
........................................................................

 iter      E             dE          RMSdq      gap      omega  full diag
   1   -198.8063738 -0.198806E+03  0.110E-01    0.02       0.0  T
   2   -198.7889858  0.173880E-01  0.222E-01    0.06       1.0  T
   3   -198.7854773  0.350855E-02  0.245E-01    0.12       1.0  T
   4   -198.7999813 -0.145040E-01  0.155E-01    0.03       1.0  T
   5   -198.8056628 -0.568148E-02  0.547E-02    0.03       1.0  T
   6   -198.8065287 -0.865915E-03  0.118E-02    0.02       1.0  T
   7   -198.8065386 -0.990623E-05  0.939E-03    0.02       1.0  T
   8   -198.8065619 -0.232851E-04  0.390E-03    0.01       2.2  T
   9   -198.8065655 -0.358312E-05  0.184E-03    0.01       4.7  T
  10   -198.8065655 -0.714715E-07  0.156E-03    0.01       5.5  T
  11   -198.8065660 -0.515570E-06  0.808E-04    0.01      10.6  T
  12   -198.8065662 -0.200596E-06  0.178E-04    0.01      48.0  T
     SCC iter.                  ...        0 min,  0.613 sec
     gradient                   ...        0 min,  0.055 sec
 * total energy  :  -195.7863857 Eh     change       -0.2884464E-02 Eh
   gradient norm :     0.0142297 Eh/α   predicted    -0.2728138E-02 (  -5.42%)
   displ. norm   :     0.8301527 α      lambda       -0.3025363E-02
   maximum displ.:     0.3410965 α      in ANC's #6, #11, #9, ...

........................................................................
.............................. CYCLE   32 ..............................
........................................................................

 iter      E             dE          RMSdq      gap      omega  full diag
   1   -198.8067556 -0.198807E+03  0.113E-01    0.02       0.0  T
   2   -198.7949535  0.118021E-01  0.187E-01    0.05       1.0  T
   3   -198.7810727  0.138808E-01  0.269E-01    0.14       1.0  T
   4   -198.8003038 -0.192311E-01  0.154E-01    0.04       1.0  T
   5   -198.8051109 -0.480709E-02  0.740E-02    0.04       1.0  T
   6   -198.8068150 -0.170410E-02  0.173E-02    0.02       1.0  T
   7   -198.8068731 -0.581014E-04  0.104E-02    0.02       1.0  T
   8   -198.8068992 -0.260911E-04  0.484E-03    0.02       1.8  T
   9   -198.8069057 -0.650833E-05  0.190E-03    0.01       4.5  T
  10   -198.8069053  0.392405E-06  0.192E-03    0.01       4.4  T
  11   -198.8069063 -0.945504E-06  0.903E-04    0.01       9.5  T
  12   -198.8069065 -0.263317E-06  0.139E-04    0.01      61.3  T
     SCC iter.                  ...        0 min,  0.765 sec
     gradient                   ...        0 min,  0.061 sec
 * total energy  :  -195.7890587 Eh     change       -0.2672933E-02 Eh
   gradient norm :     0.0148022 Eh/α   predicted    -0.2555154E-02 (  -4.41%)
   displ. norm   :     0.8116807 α      lambda       -0.2795046E-02
   maximum displ.:     0.3314380 α      in ANC's #6, #3, #11, ...

........................................................................
.............................. CYCLE   33 ..............................
........................................................................

 iter      E             dE          RMSdq      gap      omega  full diag
   1   -198.8129923 -0.198813E+03  0.110E-01    0.02       0.0  T
   2   -198.7991725  0.138198E-01  0.201E-01    0.05       1.0  T
   3   -198.7933111  0.586139E-02  0.237E-01    0.12       1.0  T
   4   -198.8069803 -0.136692E-01  0.151E-01    0.03       1.0  T
   5   -198.8120587 -0.507839E-02  0.592E-02    0.03       1.0  T
   6   -198.8130622 -0.100352E-02  0.166E-02    0.02       1.0  T
   7   -198.8131188 -0.565586E-04  0.942E-03    0.02       1.0  T
   8   -198.8131384 -0.196737E-04  0.460E-03    0.02       1.9  T
   9   -198.8131447 -0.624621E-05  0.147E-03    0.02       5.8  T
  10   -198.8131444  0.313043E-06  0.152E-03    0.02       5.6  T
  11   -198.8131449 -0.573639E-06  0.733E-04    0.02      11.7  T
  12   -198.8131451 -0.166451E-06  0.127E-04    0.02      67.1  T
     SCC iter.                  ...        0 min,  0.607 sec
     gradient                   ...        0 min,  0.059 sec
 * total energy  :  -195.7914519 Eh     change       -0.2393188E-02 Eh
   gradient norm :     0.0161012 Eh/α   predicted    -0.2318253E-02 (  -3.13%)
   displ. norm   :     0.7830923 α      lambda       -0.2508284E-02
   maximum displ.:     0.3557877 α      in ANC's #6, #3, #11, ...

........................................................................
.............................. CYCLE   34 ..............................
........................................................................

 iter      E             dE          RMSdq      gap      omega  full diag
   1   -198.8097692 -0.198810E+03  0.100E-01    0.02       0.0  T
   2   -198.8062113  0.355783E-02  0.113E-01    0.02       1.0  T
   3   -198.7791046  0.271067E-01  0.289E-01    0.17       1.0  T
   4   -198.8069444 -0.278398E-01  0.970E-02    0.04       1.0  T
   5   -198.8082621 -0.131769E-02  0.694E-02    0.04       1.0  T
   6   -198.8097361 -0.147397E-02  0.169E-02    0.02       1.0  T
   7   -198.8098274 -0.912560E-04  0.509E-03    0.02       1.7  T
   8   -198.8098316 -0.420066E-05  0.264E-03    0.02       3.2  T
   9   -198.8098334 -0.185390E-05  0.808E-04    0.02      10.6  T
  10   -198.8098333  0.122136E-06  0.833E-04    0.02      10.3  T
  11   -198.8098335 -0.226850E-06  0.190E-04    0.02      45.0  T
     SCC iter.                  ...        0 min,  0.545 sec
     gradient                   ...        0 min,  0.059 sec
 * total energy  :  -195.7935238 Eh     change       -0.2071890E-02 Eh
   gradient norm :     0.0144334 Eh/α   predicted    -0.2023225E-02 (  -2.35%)
   displ. norm   :     0.7613062 α      lambda       -0.2194015E-02
   maximum displ.:     0.3507260 α      in ANC's #6, #3, #11, ...

........................................................................
.............................. CYCLE   35 ..............................
........................................................................

 iter      E             dE          RMSdq      gap      omega  full diag
   1   -198.8145672 -0.198815E+03  0.906E-02    0.02       0.0  T
   2   -198.8103092  0.425795E-02  0.119E-01    0.02       1.0  T
   3   -198.7917121  0.185971E-01  0.251E-01    0.14       1.0  T
   4   -198.8110758 -0.193637E-01  0.120E-01    0.02       1.0  T
   5   -198.8137891 -0.271328E-02  0.509E-02    0.03       1.0  T
   6   -198.8145656 -0.776469E-03  0.150E-02    0.02       1.0  T
   7   -198.8146226 -0.570709E-04  0.729E-03    0.02       1.2  T
   8   -198.8146355 -0.128687E-04  0.318E-03    0.02       2.7  T
   9   -198.8146385 -0.304934E-05  0.795E-04    0.02      10.7  T
  10   -198.8146382  0.341194E-06  0.111E-03    0.02       7.7  T
  11   -198.8146386 -0.413943E-06  0.284E-04    0.02      30.1  T
  12   -198.8146386 -0.193762E-07  0.739E-05    0.02     115.7  T
     SCC iter.                  ...        0 min,  0.592 sec
     gradient                   ...        0 min,  0.057 sec
 * total energy  :  -195.7952835 Eh     change       -0.1759766E-02 Eh
   gradient norm :     0.0130872 Eh/α   predicted    -0.1732824E-02 (  -1.53%)
   displ. norm   :     0.7337991 α      lambda       -0.2099297E-02
   maximum displ.:     0.3360530 α      in ANC's #6, #3, #8, ...

........................................................................
.............................. CYCLE   36 ..............................
........................................................................

 iter      E             dE          RMSdq      gap      omega  full diag
   1   -198.8248191 -0.198825E+03  0.888E-02    0.02       0.0  T
   2   -198.8242520  0.567063E-03  0.644E-02    0.03       1.0  T
   3   -198.7797145  0.445375E-01  0.350E-01    0.15       1.0  T
   4   -198.8223873 -0.426728E-01  0.957E-02    0.03       1.0  T
   5   -198.8242984 -0.191105E-02  0.409E-02    0.01       1.0  T
   6   -198.8248120 -0.513605E-03  0.120E-02    0.02       1.0  T
   7   -198.8248515 -0.394873E-04  0.273E-03    0.02       3.1  T
   8   -198.8248529 -0.142812E-05  0.151E-03    0.02       5.6  T
   9   -198.8248533 -0.376596E-06  0.602E-04    0.02      14.2  T
  10   -198.8248533 -0.511290E-07  0.290E-04    0.02      29.5  T
     SCC iter.                  ...        0 min,  0.521 sec
     gradient                   ...        0 min,  0.059 sec
 * total energy  :  -195.7967637 Eh     change       -0.1480195E-02 Eh
   gradient norm :     0.0187660 Eh/α   predicted    -0.1614850E-02 (   9.10%)
   displ. norm   :     0.7169821 α      lambda       -0.2000477E-02
   maximum displ.:     0.3848323 α      in ANC's #6, #3, #11, ...

........................................................................
.............................. CYCLE   37 ..............................
........................................................................

 iter      E             dE          RMSdq      gap      omega  full diag
   1   -198.8157023 -0.198816E+03  0.701E-02    0.02       0.0  T
   2   -198.8132961  0.240623E-02  0.919E-02    0.05       1.0  T
   3   -198.7939384  0.193577E-01  0.242E-01    0.07       1.0  T
   4   -198.8133967 -0.194582E-01  0.930E-02    0.03       1.0  T
   5   -198.8155557 -0.215900E-02  0.229E-02    0.02       1.0  T
   6   -198.8157358 -0.180166E-03  0.298E-03    0.02       2.9  T
   7   -198.8157346  0.121807E-05  0.310E-03    0.02       2.8  T
   8   -198.8157368 -0.216826E-05  0.159E-03    0.02       5.4  T
   9   -198.8157374 -0.591463E-06  0.810E-04    0.02      10.6  T
  10   -198.8157375 -0.106753E-06  0.370E-04    0.02      23.1  T
     SCC iter.                  ...        0 min,  0.534 sec
     gradient                   ...        0 min,  0.060 sec
 * total energy  :  -195.7984009 Eh     change       -0.1637154E-02 Eh
   gradient norm :     0.0151541 Eh/α   predicted    -0.1514425E-02 (  -7.50%)
   displ. norm   :     0.6866886 α      lambda       -0.2079493E-02
   maximum displ.:     0.3644392 α      in ANC's #6, #3, #8, ...

........................................................................
.............................. CYCLE   38 ..............................
........................................................................

 iter      E             dE          RMSdq      gap      omega  full diag
   1   -198.8204837 -0.198820E+03  0.661E-02    0.02       0.0  T
   2   -198.8162356  0.424812E-02  0.114E-01    0.06       1.0  T
   3   -198.8090061  0.722948E-02  0.178E-01    0.05       1.0  T
   4   -198.8202764 -0.112703E-01  0.343E-02    0.02       1.0  T
   5   -198.8203738 -0.973418E-04  0.235E-02    0.02       1.0  T
   6   -198.8205117 -0.137920E-03  0.681E-03    0.02       1.3  T
   7   -198.8205248 -0.131322E-04  0.287E-03    0.02       3.0  T
   8   -198.8205264 -0.158783E-05  0.151E-03    0.02       5.7  T
   9   -198.8205269 -0.500834E-06  0.615E-04    0.02      13.9  T
  10   -198.8205270 -0.400093E-07  0.362E-04    0.02      23.6  T
     SCC iter.                  ...        0 min,  0.500 sec
     gradient                   ...        0 min,  0.061 sec
 * total energy  :  -195.8000460 Eh     change       -0.1645113E-02 Eh
   gradient norm :     0.0149423 Eh/α   predicted    -0.1530029E-02 (  -7.00%)
   displ. norm   :     0.7609263 α      lambda       -0.2228925E-02
   maximum displ.:     0.3853583 α      in ANC's #6, #3, #8, ...

........................................................................
.............................. CYCLE   39 ..............................
........................................................................

 iter      E             dE          RMSdq      gap      omega  full diag
   1   -198.8195165 -0.198820E+03  0.757E-02    0.02       0.0  T
   2   -198.8101616  0.935491E-02  0.164E-01    0.08       1.0  T
   3   -198.8092430  0.918612E-03  0.172E-01    0.05       1.0  T
   4   -198.8193769 -0.101339E-01  0.302E-02    0.02       1.0  T
   5   -198.8193813 -0.437837E-05  0.293E-02    0.02       1.0  T
   6   -198.8195883 -0.207006E-03  0.912E-03    0.02       1.0  T
   7   -198.8196092 -0.208898E-04  0.379E-03    0.02       2.3  T
   8   -198.8196121 -0.290742E-05  0.132E-03    0.02       6.5  T
   9   -198.8196123 -0.247734E-06  0.547E-04    0.02      15.6  T
  10   -198.8196124 -0.294089E-07  0.219E-04    0.02      39.0  T
     SCC iter.                  ...        0 min,  0.475 sec
     gradient                   ...        0 min,  0.060 sec
 * total energy  :  -195.8018247 Eh     change       -0.1778666E-02 Eh
   gradient norm :     0.0155459 Eh/α   predicted    -0.1759755E-02 (  -1.06%)
   displ. norm   :     0.7597331 α      lambda       -0.2296925E-02
   maximum displ.:     0.4110072 α      in ANC's #6, #3, #8, ...

........................................................................
.............................. CYCLE   40 ..............................
........................................................................

 iter      E             dE          RMSdq      gap      omega  full diag
   1   -198.8172784 -0.198817E+03  0.775E-02    0.02       0.0  T
   2   -198.7987662  0.185122E-01  0.230E-01    0.11       1.0  T
   3   -198.8143807 -0.156145E-01  0.994E-02    0.02       1.0  T
   4   -198.8170624 -0.268173E-02  0.418E-02    0.02       1.0  T
   5   -198.8172215 -0.159018E-03  0.309E-02    0.02       1.0  T
   6   -198.8174592 -0.237732E-03  0.931E-03    0.02       1.0  T
   7   -198.8174836 -0.243827E-04  0.302E-03    0.02       2.8  T
   8   -198.8174846 -0.100032E-05  0.181E-03    0.02       4.7  T
   9   -198.8174853 -0.716841E-06  0.766E-04    0.02      11.2  T
  10   -198.8174854 -0.117008E-06  0.352E-04    0.02      24.3  T
     SCC iter.                  ...        0 min,  0.565 sec
     gradient                   ...        0 min,  0.057 sec
 * total energy  :  -195.8036341 Eh     change       -0.1809432E-02 Eh
   gradient norm :     0.0172698 Eh/α   predicted    -0.1811361E-02 (   0.11%)
   displ. norm   :     0.7714863 α      lambda       -0.2147281E-02
   maximum displ.:     0.4056003 α      in ANC's #6, #3, #8, ...

........................................................................
.............................. CYCLE   41 ..............................
........................................................................

 iter      E             dE          RMSdq      gap      omega  full diag
   1   -198.8191001 -0.198819E+03  0.727E-02    0.02       0.0  T
   2   -198.8103377  0.876234E-02  0.160E-01    0.07       1.0  T
   3   -198.8105126 -0.174860E-03  0.157E-01    0.04       1.0  T
   4   -198.8189384 -0.842582E-02  0.302E-02    0.02       1.0  T
   5   -198.8190428 -0.104443E-03  0.220E-02    0.02       1.0  T
   6   -198.8191595 -0.116652E-03  0.840E-03    0.02       1.0  T
   7   -198.8191759 -0.163580E-04  0.337E-03    0.02       2.5  T
   8   -198.8191781 -0.221156E-05  0.113E-03    0.02       7.6  T
   9   -198.8191783 -0.234674E-06  0.514E-04    0.02      16.6  T
  10   -198.8191783 -0.470199E-07  0.255E-04    0.02      33.5  T
     SCC iter.                  ...        0 min,  0.488 sec
     gradient                   ...        0 min,  0.058 sec
 * total energy  :  -195.8054961 Eh     change       -0.1861981E-02 Eh
   gradient norm :     0.0138104 Eh/α   predicted    -0.1712664E-02 (  -8.02%)
   displ. norm   :     0.8083752 α      lambda       -0.2165161E-02
   maximum displ.:     0.4280939 α      in ANC's #6, #3, #8, ...

........................................................................
.............................. CYCLE   42 ..............................
........................................................................

 iter      E             dE          RMSdq      gap      omega  full diag
   1   -198.8252548 -0.198825E+03  0.734E-02    0.02       0.0  T
   2   -198.8199738  0.528101E-02  0.127E-01    0.06       1.0  T
   3   -198.8100000  0.997383E-02  0.208E-01    0.06       1.0  T
   4   -198.8250498 -0.150498E-01  0.347E-02    0.02       1.0  T
   5   -198.8252575 -0.207755E-03  0.149E-02    0.02       1.0  T
   6   -198.8252847 -0.272008E-04  0.901E-03    0.02       1.0  T
   7   -198.8253059 -0.211835E-04  0.310E-03    0.02       2.8  T
   8   -198.8253076 -0.168328E-05  0.122E-03    0.02       7.0  T
   9   -198.8253078 -0.227864E-06  0.650E-04    0.02      13.1  T
  10   -198.8253079 -0.991745E-07  0.258E-04    0.02      33.2  T
     SCC iter.                  ...        0 min,  0.479 sec
     gradient                   ...        0 min,  0.059 sec
 * total energy  :  -195.8073763 Eh     change       -0.1880250E-02 Eh
   gradient norm :     0.0120812 Eh/α   predicted    -0.1790022E-02 (  -4.80%)
   displ. norm   :     0.8616641 α      lambda       -0.2116216E-02
   maximum displ.:     0.4535104 α      in ANC's #6, #3, #8, ...
 * RMSD in coord.:     1.1828222 α      energy gain  -0.5562172E-01 Eh

generating ANC from exact Hessian ...
Using Lindh-Hessian (1995)
 Shifting diagonal of input Hessian by    1.0100987928493224E-002
 Lowest  eigenvalues of input Hessian
    0.010000    0.000000    0.000000    0.000000    0.000000    0.000000
    0.000000    0.010136    0.010158    0.010256    0.010277    0.010431
    0.010498    0.010565    0.010604    0.010837    0.010906    0.010964
 Highest eigenvalues
    2.089690    2.093123    2.187474    2.187980    2.202028    2.205967


........................................................................
.............................. CYCLE   43 ..............................
........................................................................

 iter      E             dE          RMSdq      gap      omega  full diag
   1   -198.8264642 -0.198826E+03  0.764E-02    0.02       0.0  T
   2   -198.8189458  0.751838E-02  0.152E-01    0.07       1.0  T
   3   -198.8164469  0.249893E-02  0.170E-01    0.05       1.0  T
   4   -198.8255243 -0.907742E-02  0.636E-02    0.02       1.0  T
   5   -198.8264656 -0.941313E-03  0.163E-02    0.02       1.0  T
   6   -198.8265174 -0.518159E-04  0.736E-03    0.02       1.2  T
   7   -198.8265304 -0.129064E-04  0.351E-03    0.02       2.4  T
   8   -198.8265329 -0.249869E-05  0.125E-03    0.02       6.8  T
   9   -198.8265331 -0.218441E-06  0.655E-04    0.02      13.0  T
  10   -198.8265332 -0.100906E-06  0.222E-04    0.02      38.4  T
     SCC iter.                  ...        0 min,  0.548 sec
     gradient                   ...        0 min,  0.059 sec
 * total energy  :  -195.8092563 Eh     change       -0.1879964E-02 Eh
   gradient norm :     0.0127022 Eh/α   predicted     0.0000000E+00 (-100.00%)
   displ. norm   :     0.2171633 α      lambda       -0.8187052E-03
   maximum displ.:     0.1031972 α      in ANC's #7, #1, #3, ...

........................................................................
.............................. CYCLE   44 ..............................
........................................................................

 iter      E             dE          RMSdq      gap      omega  full diag
   1   -198.8304335 -0.198830E+03  0.281E-02    0.02       0.0  T
   2   -198.8271446  0.328898E-02  0.956E-02    0.03       1.0  T
   3   -198.8297668 -0.262226E-02  0.462E-02    0.03       1.0  T
   4   -198.8302530 -0.486199E-03  0.267E-02    0.02       1.0  T
   5   -198.8304376 -0.184563E-03  0.827E-03    0.02       1.0  T
   6   -198.8304534 -0.158561E-04  0.199E-03    0.02       4.3  T
   7   -198.8304545 -0.101194E-05  0.924E-04    0.02       9.2  T
   8   -198.8304546 -0.124929E-06  0.501E-04    0.02      17.1  T
   9   -198.8304546 -0.274739E-07  0.289E-04    0.02      29.5  T
     SCC iter.                  ...        0 min,  0.495 sec
     gradient                   ...        0 min,  0.060 sec
 * total energy  :  -195.8099664 Eh     change       -0.7101138E-03 Eh
[...]
     DOI: 10.26434/chemrxiv.8326202.v1
   for GFN-FF:
   * S. Spicher and S. Grimme, Angew. Chem. Int. Ed., 2020, 59, 15665-15673.
     DOI: 10.1002/anie.202004239
   
   for ALPB and GBSA implicit solvation:
   * S. Ehlert, M. Stahn, S. Spicher, S. Grimme, J. Chem. Theory Comput.,
     2021, 17, 4250-4261. DOI: 10.1021/acs.jctc.1c00471
   
   for ddCOSMO and CPCM-X implicit solvation:
   * M. Stahn, S. Ehlert, S. Grimme, J. Phys. Chem. A,
     2023, XX, XXXX-XXXX. DOI: 10.1021/acs.jpca.3c04382
   
   for DFT-D4:
   * E. Caldeweyher, C. Bannwarth and S. Grimme, J. Chem. Phys., 2017,
     147, 034112. DOI: 10.1063/1.4993215
   * E. Caldeweyher, S. Ehlert, A. Hansen, H. Neugebauer, S. Spicher,
     C. Bannwarth and S. Grimme, J. Chem. Phys., 2019, 150, 154122.
     DOI: 10.1063/1.5090222
   * E. Caldeweyher, J.-M. Mewes, S. Ehlert and S. Grimme, Phys. Chem. Chem. Phys.
     2020, 22, 8499-8512. DOI: 10.1039/D0CP00502A
   
   for sTDA-xTB:
   * S. Grimme and C. Bannwarth, J. Chem. Phys., 2016, 145, 054103.
     DOI: 10.1063/1.4959605
   
   in the mass-spec context:
   * V. Asgeirsson, C. Bauer and S. Grimme, Chem. Sci., 2017, 8, 4879.
     DOI: 10.1039/c7sc00601b
   * J. Koopman and S. Grimme, ACS Omega 2019, 4, 12, 15120-15133.
     DOI: 10.1021/acsomega.9b02011
   
   for metadynamics refer to:
   * S. Grimme, J. Chem. Theory Comput., 2019, 155, 2847-2862
     DOI: 10.1021/acs.jctc.9b00143
   
   for SPH calculations refer to:
   * S. Spicher and S. Grimme, J. Chem. Theory Comput., 2021, 17, 1701-1714
     DOI: 10.1021/acs.jctc.0c01306
   
   for ONIOM refer to:
   * C. Plett, A. Katbashev, S. Ehlert, S. Grimme, M. Bursch,
     Phys. Chem. Chem. Phys., 2023, 25, 17860-17868. DOI: 10.1039/D3CP02178E
   
   for DIPRO refer to:
   * J. Kohn, N. Gildemeister, S. Grimme, D. Fazzi, A. Hansen,
     J. Chem. Phys., 2023, just accepted.
   
   for PTB refer to:
   * S. Grimme, M. Mueller, A. Hansen, J. Chem. Phys., 2023, 158, 124111.
     DOI: 10.1063/5.0137838
   
   with help from (in alphabetical order)
   P. Atkinson, C. Bannwarth, F. Bohle, G. Brandenburg, E. Caldeweyher
   M. Checinski, S. Dohm, S. Ehlert, S. Ehrlich, I. Gerasimov, C. Hölzer
   A. Katbashev, J. Kohn, J. Koopman, C. Lavigne, S. Lehtola, F. März, M. Müller,
   F. Musil, H. Neugebauer, J. Pisarek, C. Plett, P. Pracht, F. Pultar,
   J. Seibert, P. Shushkov, S. Spicher, M. Stahn, M. Steiner, T. Strunk,
   J. Stückrath, T. Rose, and J. Unsleber
   
 * started run on 2024/12/10 at 16:29:27.562     
   ID    Z sym.   atoms
    1    6 C      1-9, 11, 12, 14-21, 25-33, 35, 36, 38-45, 48-71, 138-146,
                  148, 149, 151-158, 162-170, 172, 173, 175-182, 185-208
    2    7 N      10, 13, 34, 37, 147, 150, 171, 174
    3    8 O      22, 23, 46, 47, 159, 160, 183, 184
    4    5 B      24, 161
    5    1 H      72-137, 209-274

           -------------------------------------------------
          |                Calculation Setup                |
           -------------------------------------------------

          program call               : xtb opt_dimer.mol --dipro 0.3 --gfn 2 --chrg 0 --uhf 2
          coordinate file            : opt_dimer.mol
          omp threads                :                     8


molecular fragmentation (1/2 indicates fragments):
111111111111111111111111111111111111111111111111111111111111111111111111
111111111111111111111111111111111111111111111111111111111111111112222222
222222222222222222222222222222222222222222222222222222222222222222222222
2222222222222222222222222222222222222222222222222222222222
# atoms in fragment 1/2:   137   137
 fragment masses (1/2) :      942.03      942.03
CMA distance (Bohr)    :  10.550
constraining FC (au)   :  0.0500

           -------------------------------------------------
          |                 G F N 2 - x T B                 |
           -------------------------------------------------

        Reference                      10.1021/acs.jctc.8b01176
      * Hamiltonian:
        H0-scaling (s, p, d)           1.850000    2.230000    2.230000
        zeta-weighting                 0.500000
      * Dispersion:
        s8                             2.700000
        a1                             0.520000
        a2                             5.000000
        s9                             5.000000
      * Repulsion:
        kExp                           1.500000    1.000000
        rExp                           1.000000
      * Coulomb:
        alpha                          2.000000
        third order                    shell-resolved
        anisotropic                    true
        a3                             3.000000
        a5                             4.000000
        cn-shift                       1.200000
        cn-exp                         4.000000
        max-rad                        5.000000

q/qsh data taken from xtbrestart
CAMM data taken from xtbrestart
           -------------------------------------------------
          |                    D I P R O                    |
           -------------------------------------------------
Calculation for dimer 
--------------------- 
  
charge of dimer :   0.
unpaired e- of dimer :  2
repulsion energy          6.0553201712259E+00 Eh
dispersion energy         4.1605945688461E-02 Eh
number of electrons       7.2200000000000E+02 e
integral cutoff           1.9311100799991E+01 bohr

------------------------------------------------------------
  cycle        total energy    energy error   density error
------------------------------------------------------------
      1     -390.5687162059  -3.9666564E+02   1.3748218E-01
      2     -391.5328809018  -9.6416470E-01   7.1594642E-02
      3     -391.2390979889   2.9378291E-01   4.5314910E-02
      4     -391.0728512148   1.6624677E-01   3.5152218E-02
      5     -391.2597421316  -1.8689092E-01   2.6327027E-02
      6     -391.4626584991  -2.0291637E-01   1.7663784E-02
      7     -391.3783154469   8.4343052E-02   1.9006991E-02
      8     -391.6862141479  -3.0789870E-01   1.1146503E-02
      9     -391.7581422961  -7.1928148E-02   6.4546937E-03
     10     -391.7644685702  -6.3262741E-03   5.7092815E-03
     11     -391.7742353197  -9.7667495E-03   3.0377966E-03
     12     -391.7745734414  -3.3812167E-04   2.9626049E-03
     13     -391.7756906128  -1.1171714E-03   2.3448074E-03
     14     -391.7790142091  -3.3235963E-03   8.3860526E-04
     15     -391.7793698989  -3.5568980E-04   4.4608667E-04
     16     -391.7794516704  -8.1771546E-05   2.3989399E-04
     17     -391.7794401511   1.1519384E-05   2.4843499E-04
     18     -391.7794599416  -1.9790537E-05   1.5187442E-04
     19     -391.7794665571  -6.6155089E-06   7.9484847E-05
     20     -391.7794685339  -1.9767903E-06   3.7457987E-05
     21     -391.7794692648  -7.3095418E-07   1.6047744E-05
------------------------------------------------------------

electronic energy        -3.9787639538176E+02 Eh
total energy             -3.9177946926485E+02 Eh

 total:                                   5.785 sec
 - repulsion                              0.000 sec (  0%)
 - dispersion                             0.027 sec (  0%)
 - coulomb                                0.007 sec (  0%)
 - hamiltonian                            0.021 sec (  0%)
 - scc                                    5.730 sec ( 99%)

Found 2 fragments!
Fragment 1:  1-137
Fragment 2:  138-274

[Info] Fragment spin read from .UHFfrag
Calculation for fragment 1
 ------------------------------
   
charge of fragment :   0.
unpaired e- of fragment :  1
------------------------------------------------------------
  cycle        total energy    energy error   density error
------------------------------------------------------------
      1     -195.2413642867  -1.9827190E+02   1.3784573E-01
      2     -195.6988066611  -4.5744237E-01   7.2279374E-02
      3     -195.2168927522   4.8191391E-01   5.3167834E-02
      4     -195.2125629194   4.3298328E-03   4.1371098E-02
      5     -195.7333027227  -5.2073980E-01   2.2185968E-02
      6     -195.8042994154  -7.0996693E-02   1.4232387E-02
      7     -195.8273692728  -2.3069857E-02   1.0369026E-02
      8     -195.8512463153  -2.3877043E-02   4.6638209E-03
      9     -195.8530311751  -1.7848598E-03   3.1881437E-03
     10     -195.8499121251   3.1190501E-03   3.5729794E-03
     11     -195.8527547419  -2.8426168E-03   2.0295179E-03
     12     -195.8541753678  -1.4206259E-03   5.7211702E-04
     13     -195.8542557967  -8.0428846E-05   2.8886597E-04
     14     -195.8542663310  -1.0534291E-05   1.5121048E-04
     15     -195.8542713227  -4.9917458E-06   4.6222999E-05
     16     -195.8542710795   2.4322915E-07   4.0610738E-05
     17     -195.8542715335  -4.5399347E-07   1.5203099E-05
------------------------------------------------------------

 total:                                   1.133 sec
Calculation for fragment 2
 ------------------------------
   
charge of fragment :   0.
unpaired e- of fragment :  1
------------------------------------------------------------
  cycle        total energy    energy error   density error
------------------------------------------------------------
      1     -195.2412992181  -1.9827170E+02   1.3744582E-01
      2     -195.6978075635  -4.5650835E-01   7.1878160E-02
      3     -195.2150763617   4.8273120E-01   5.3216424E-02
      4     -195.2139905576   1.0858041E-03   4.1137205E-02
      5     -195.7367911409  -5.2280058E-01   2.2076419E-02
      6     -195.8085593118  -7.1768171E-02   1.3482712E-02
      7     -195.8220836172  -1.3524305E-02   1.0999182E-02
      8     -195.8501240203  -2.8040403E-02   4.9071047E-03
      9     -195.8520980632  -1.9740429E-03   3.6005649E-03
     10     -195.8477262138   4.3718493E-03   4.3798674E-03
     11     -195.8531467820  -5.4205682E-03   1.7004306E-03
     12     -195.8541009645  -9.5418251E-04   4.9386614E-04
     13     -195.8541483575  -4.7392932E-05   2.6370861E-04
     14     -195.8541422809   6.0765991E-06   2.3147944E-04
     15     -195.8541559693  -1.3688413E-05   9.9629360E-05
     16     -195.8541589894  -3.0201481E-06   4.1376726E-05
     17     -195.8541586987   2.9070492E-07   4.8501346E-05
     18     -195.8541595066  -8.0792151E-07   1.9481273E-05
------------------------------------------------------------

 total:                                   1.034 sec
   
   ::::::::::::::::::::::::::::::::::::::::::::::
   ::     D I P R O      C O U P L I N G S     ::
   ::::::::::::::::::::::::::::::::::::::::::::::
   
energy threshhold for near-degenerate orbitals near HOMO and LUMO considered for DIPRO:  0.300 eV
no. of orbitals within energy window of frag 1         6
no. of orbitals within energy window of frag 2         6
   
  Fragment 1 SOMO-3  Fragment 2 SOMO-3
--------------------------------------
E_mon(orb) frag1 frag2              -9.758    -9.756 eV
J(AB):                0.045 eV
S(AB):            -0.00176516 Eh
|J(AB,eff)|:            0.028 eV
   
  Fragment 1 SOMO-3  Fragment 2 SOMO-2
--------------------------------------
E_mon(orb) frag1 frag2              -9.758    -9.745 eV
J(AB):                0.017 eV
S(AB):            -0.00067011 Eh
|J(AB,eff)|:            0.011 eV
   
  Fragment 1 SOMO-3  Fragment 2 SOMO-1
--------------------------------------
E_mon(orb) frag1 frag2              -9.758    -9.699 eV
J(AB):                0.016 eV
S(AB):            -0.00061622 Eh
|J(AB,eff)|:            0.010 eV
   
  Fragment 1 SOMO-3  Fragment 2 SOMO 
--------------------------------------
E_mon(orb) frag1 frag2              -9.758    -9.609 eV
J(AB):                0.007 eV
S(AB):            -0.00020269 Eh
|J(AB,eff)|:            0.005 eV
   
  Fragment 1 SOMO-3  Fragment 2 LUMO 
--------------------------------------
E_mon(orb) frag1 frag2              -9.758    -9.273 eV
J(AB):                0.024 eV
S(AB):            -0.00091091 Eh
|J(AB,eff)|:            0.016 eV
   
  Fragment 1 SOMO-3  Fragment 2 LUMO+1
--------------------------------------
E_mon(orb) frag1 frag2              -9.758    -9.236 eV
J(AB):               -0.002 eV
S(AB):             0.00016433 Eh
|J(AB,eff)|:            0.000 eV
   
  Fragment 1 SOMO-2  Fragment 2 SOMO-3
--------------------------------------
E_mon(orb) frag1 frag2              -9.745    -9.756 eV
J(AB):               -0.017 eV
S(AB):             0.00064950 Eh
|J(AB,eff)|:            0.010 eV
   
  Fragment 1 SOMO-2  Fragment 2 SOMO-2
--------------------------------------
E_mon(orb) frag1 frag2              -9.745    -9.745 eV
J(AB):               -0.005 eV
S(AB):             0.00022713 Eh
|J(AB,eff)|:            0.003 eV
   
  Fragment 1 SOMO-2  Fragment 2 SOMO-1
--------------------------------------
E_mon(orb) frag1 frag2              -9.745    -9.699 eV
J(AB):               -0.002 eV
S(AB):             0.00001230 Eh
|J(AB,eff)|:            0.002 eV
   
  Fragment 1 SOMO-2  Fragment 2 SOMO 
--------------------------------------
E_mon(orb) frag1 frag2              -9.745    -9.609 eV
J(AB):               -0.010 eV
S(AB):             0.00039193 Eh
|J(AB,eff)|:            0.006 eV
   
  Fragment 1 SOMO-2  Fragment 2 LUMO 
--------------------------------------
E_mon(orb) frag1 frag2              -9.745    -9.273 eV
J(AB):               -0.002 eV
S(AB):             0.00002368 Eh
|J(AB,eff)|:            0.002 eV
   
  Fragment 1 SOMO-2  Fragment 2 LUMO+1
--------------------------------------
E_mon(orb) frag1 frag2              -9.745    -9.236 eV
J(AB):                0.006 eV
S(AB):            -0.00020709 Eh
|J(AB,eff)|:            0.004 eV
   
  Fragment 1 SOMO-1  Fragment 2 SOMO-3
--------------------------------------
E_mon(orb) frag1 frag2              -9.700    -9.756 eV
J(AB):                0.016 eV
S(AB):            -0.00061494 Eh
|J(AB,eff)|:            0.010 eV
   
  Fragment 1 SOMO-1  Fragment 2 SOMO-2
--------------------------------------
E_mon(orb) frag1 frag2              -9.700    -9.745 eV
J(AB):                0.002 eV
S(AB):            -0.00002362 Eh
|J(AB,eff)|:            0.002 eV
   
  Fragment 1 SOMO-1  Fragment 2 SOMO-1
--------------------------------------
E_mon(orb) frag1 frag2              -9.700    -9.699 eV
J(AB):                0.002 eV
S(AB):            -0.00001037 Eh
|J(AB,eff)|:            0.002 eV
   
  Fragment 1 SOMO-1  Fragment 2 SOMO 
--------------------------------------
E_mon(orb) frag1 frag2              -9.700    -9.609 eV
J(AB):                0.005 eV
S(AB):            -0.00021144 Eh
|J(AB,eff)|:            0.003 eV
   
  Fragment 1 SOMO-1  Fragment 2 LUMO 
--------------------------------------
E_mon(orb) frag1 frag2              -9.700    -9.273 eV
J(AB):                0.013 eV
S(AB):            -0.00051651 Eh
|J(AB,eff)|:            0.008 eV
   
  Fragment 1 SOMO-1  Fragment 2 LUMO+1
--------------------------------------
E_mon(orb) frag1 frag2              -9.700    -9.236 eV
J(AB):                0.005 eV
S(AB):            -0.00020621 Eh
|J(AB,eff)|:            0.003 eV
   
  Fragment 1 SOMO   Fragment 2 SOMO-3
--------------------------------------
E_mon(orb) frag1 frag2              -9.609    -9.756 eV
J(AB):               -0.006 eV
S(AB):             0.00018738 Eh
|J(AB,eff)|:            0.004 eV
   
  Fragment 1 SOMO   Fragment 2 SOMO-2
--------------------------------------
E_mon(orb) frag1 frag2              -9.609    -9.745 eV
J(AB):               -0.010 eV
S(AB):             0.00038432 Eh
|J(AB,eff)|:            0.006 eV
   
  Fragment 1 SOMO   Fragment 2 SOMO-1
--------------------------------------
E_mon(orb) frag1 frag2              -9.609    -9.699 eV
J(AB):               -0.006 eV
S(AB):             0.00023519 Eh
|J(AB,eff)|:            0.004 eV
   
  Fragment 1 SOMO   Fragment 2 SOMO 
--------------------------------------
E_mon(orb) frag1 frag2              -9.609    -9.609 eV
J(AB):                0.082 eV
S(AB):            -0.00315498 Eh
|J(AB,eff)|:            0.052 eV
   
  Fragment 1 SOMO   Fragment 2 LUMO 
--------------------------------------
E_mon(orb) frag1 frag2              -9.609    -9.273 eV
J(AB):                0.006 eV
S(AB):            -0.00031528 Eh
|J(AB,eff)|:            0.003 eV
   
  Fragment 1 SOMO   Fragment 2 LUMO+1
--------------------------------------
E_mon(orb) frag1 frag2              -9.609    -9.236 eV
J(AB):               -0.023 eV
S(AB):             0.00085790 Eh
|J(AB,eff)|:            0.015 eV
   
  Fragment 1 LUMO   Fragment 2 SOMO-3
--------------------------------------
E_mon(orb) frag1 frag2              -9.273    -9.756 eV
J(AB):               -0.024 eV
S(AB):             0.00091614 Eh
|J(AB,eff)|:            0.016 eV
   
  Fragment 1 LUMO   Fragment 2 SOMO-2
--------------------------------------
E_mon(orb) frag1 frag2              -9.273    -9.745 eV
J(AB):               -0.002 eV
S(AB):             0.00001306 Eh
|J(AB,eff)|:            0.002 eV
   
  Fragment 1 LUMO   Fragment 2 SOMO-1
--------------------------------------
E_mon(orb) frag1 frag2              -9.273    -9.699 eV
J(AB):               -0.014 eV
S(AB):             0.00053311 Eh
|J(AB,eff)|:            0.009 eV
   
  Fragment 1 LUMO   Fragment 2 SOMO 
--------------------------------------
E_mon(orb) frag1 frag2              -9.273    -9.609 eV
J(AB):                0.005 eV
S(AB):            -0.00029248 Eh
|J(AB,eff)|:            0.003 eV
   
  Fragment 1 LUMO   Fragment 2 LUMO 
--------------------------------------
E_mon(orb) frag1 frag2              -9.273    -9.273 eV
J(AB):               -0.083 eV
S(AB):             0.00350961 Eh
|J(AB,eff)|:            0.051 eV
   
  Fragment 1 LUMO   Fragment 2 LUMO+1
--------------------------------------
E_mon(orb) frag1 frag2              -9.273    -9.236 eV
J(AB):               -0.001 eV
S(AB):             0.00008280 Eh
|J(AB,eff)|:            0.001 eV
   
  Fragment 1 LUMO+1  Fragment 2 SOMO-3
--------------------------------------
E_mon(orb) frag1 frag2              -9.236    -9.756 eV
J(AB):               -0.001 eV
S(AB):             0.00014116 Eh
|J(AB,eff)|:            0.000 eV
   
  Fragment 1 LUMO+1  Fragment 2 SOMO-2
--------------------------------------
E_mon(orb) frag1 frag2              -9.236    -9.745 eV
J(AB):               -0.005 eV
S(AB):             0.00019005 Eh
|J(AB,eff)|:            0.003 eV
   
  Fragment 1 LUMO+1  Fragment 2 SOMO-1
--------------------------------------
E_mon(orb) frag1 frag2              -9.236    -9.699 eV
J(AB):                0.005 eV
S(AB):            -0.00023185 Eh
|J(AB,eff)|:            0.003 eV
   
  Fragment 1 LUMO+1  Fragment 2 SOMO 
--------------------------------------
E_mon(orb) frag1 frag2              -9.236    -9.609 eV
J(AB):                0.024 eV
S(AB):            -0.00086610 Eh
|J(AB,eff)|:            0.015 eV
   
  Fragment 1 LUMO+1  Fragment 2 LUMO 
--------------------------------------
E_mon(orb) frag1 frag2              -9.236    -9.273 eV
J(AB):                0.002 eV
S(AB):            -0.00010652 Eh
|J(AB,eff)|:            0.001 eV
   
  Fragment 1 LUMO+1  Fragment 2 LUMO+1
--------------------------------------
E_mon(orb) frag1 frag2              -9.236    -9.236 eV
J(AB):               -0.085 eV
S(AB):             0.00353679 Eh
|J(AB,eff)|:            0.052 eV
   
..............................................................................
:  total |J(AB,eff)| for hole transport (occ. MOs) :               0.064 eV  :
:  total |J(AB,eff)| for charge transport (unocc. MOs) :           0.073 eV  :
:  total |J(AB,eff)| for charge transfer (CT) :                    0.034 eV  :
..............................................................................
  
 Please remember, DIPRO is not available for restart!
   
normal termination of dipro
----------------------------------------------------------
 * finished run on 2024/12/10 at 16:29:35.573     
----------------------------------------------------------
 dipro:
 * wall-time:     0 d,  0 h,  0 min,  7.997 sec
 *  cpu-time:     0 d,  0 h,  0 min, 30.123 sec
 * ratio c/w:     3.767 speedup
