274
 energy: -391.728048123345 gnorm: 0.158939771017 xtb: 6.7.1 (edcfbbe)
C           -2.48890000000000       -2.62430000000000        1.10120000000000
C           -2.79050000000000       -1.34620000000000        0.63740000000000
C           -3.88350000000000       -1.15490000000000       -0.27790000000000
C           -4.53040000000000       -2.33730000000000       -0.74820000000000
C           -4.14200000000000       -3.60120000000000       -0.25620000000000
C           -3.16350000000000       -3.76280000000000        0.69400000000000
C           -4.51460000000000        0.10610000000000       -0.58740000000000
C           -5.76010000000000        0.05090000000000       -1.23670000000000
C           -6.22300000000000       -1.16900000000000       -1.79730000000000
N           -5.59680000000000       -2.33940000000000       -1.58370000000000
C           -4.12720000000000        1.42380000000000       -0.16220000000000
C           -5.12130000000000        2.43650000000000       -0.04690000000000
N           -6.33740000000000        2.33880000000000       -0.62330000000000
C           -6.60140000000000        1.20060000000000       -1.29470000000000
C           -7.81610000000000        1.11020000000000       -1.99010000000000
C           -8.23490000000000       -0.05100000000000       -2.61520000000000
C           -7.43600000000000       -1.17650000000000       -2.50330000000000
C           -2.77450000000000        1.82550000000000        0.06970000000000
C           -2.52580000000000        2.98260000000000        0.80750000000000
C           -3.53330000000000        3.89120000000000        1.10790000000000
C           -4.79720000000000        3.63250000000000        0.62430000000000
O           -1.98850000000000       -0.36930000000000        1.19520000000000
O           -1.73730000000000        1.14610000000000       -0.53840000000000
B           -0.97270000000000        0.32280000000000        0.38900000000000
C            0.55120000000000       -2.79260000000000       -0.42830000000000
C            0.81060000000000       -1.52560000000000        0.09790000000000
C            1.96040000000000       -1.32600000000000        0.94600000000000
C            2.65060000000000       -2.51140000000000        1.35370000000000
C            2.29430000000000       -3.76490000000000        0.81260000000000
C            1.30720000000000       -3.91580000000000       -0.12860000000000
C            2.63670000000000       -0.06790000000000        1.18720000000000
C            3.93400000000000       -0.14090000000000        1.72960000000000
C            4.41200000000000       -1.35700000000000        2.28650000000000
N            3.75700000000000       -2.52030000000000        2.13590000000000
C            2.27790000000000        1.24130000000000        0.70520000000000
C            3.31250000000000        2.17740000000000        0.41130000000000
N            4.55730000000000        2.07330000000000        0.92280000000000
C            4.81970000000000        0.97650000000000        1.66090000000000
C            6.08390000000000        0.87150000000000        2.26340000000000
C            6.51980000000000       -0.28170000000000        2.89480000000000
C            5.67790000000000       -1.38020000000000        2.89070000000000
C            0.93530000000000        1.69430000000000        0.51320000000000
C            0.69940000000000        2.77730000000000       -0.33260000000000
C            1.72940000000000        3.56150000000000       -0.83610000000000
C            3.00900000000000        3.28990000000000       -0.40250000000000
O           -0.09990000000000        1.12470000000000        1.22330000000000
O           -0.08490000000000       -0.57880000000000       -0.36320000000000
C           -2.96110000000000       -5.10430000000000        1.41350000000000
C           -1.63270000000000       -5.11170000000000        2.19680000000000
C           -2.95580000000000       -6.27280000000000        0.41100000000000
C           -4.12100000000000       -5.29900000000000        2.40480000000000
C           -3.23290000000000        5.21350000000000        1.82160000000000
C           -4.27400000000000        5.44620000000000        2.93170000000000
C           -1.82790000000000        5.19910000000000        2.45350000000000
C           -3.30040000000000        6.36290000000000        0.80250000000000
C           -9.59190000000000       -0.07510000000000       -3.33330000000000
C           -9.81990000000000       -1.40550000000000       -4.07610000000000
C           -9.65030000000000        1.06770000000000       -4.36440000000000
C          -10.71110000000000        0.10650000000000       -2.29260000000000
C            1.20510000000000       -5.21850000000000       -0.94010000000000
C            0.03570000000000       -5.16290000000000       -1.94120000000000
C            1.01730000000000       -6.43100000000000       -0.01110000000000
C            2.51120000000000       -5.39720000000000       -1.73750000000000
C            1.45720000000000        4.73830000000000       -1.78350000000000
C            2.37800000000000        4.62720000000000       -3.01210000000000
C            1.72800000000000        6.06180000000000       -1.05080000000000
C           -0.00440000000000        4.74080000000000       -2.27420000000000
C            7.95870000000000       -0.40890000000000        3.41760000000000
C            8.51120000000000        0.96170000000000        3.85390000000000
C            8.01480000000000       -1.36140000000000        4.62820000000000
C            8.84310000000000       -0.97080000000000        2.29240000000000
H          -11.69210000000000        0.08660000000000       -2.76650000000000
H          -10.61110000000000        1.05630000000000       -1.76870000000000
H          -10.67830000000000       -0.68960000000000       -1.54940000000000
H          -10.76580000000000       -1.38880000000000       -4.61690000000000
H           -9.85520000000000       -2.24400000000000       -3.38140000000000
H           -9.02710000000000       -1.58870000000000       -4.80070000000000
H          -10.59150000000000        1.04940000000000       -4.91320000000000
H           -8.83790000000000        0.97730000000000       -5.08470000000000
H           -9.56650000000000        2.04210000000000       -3.88570000000000
H           -3.99850000000000       -6.21840000000000        2.97670000000000
H           -5.07550000000000       -5.34910000000000        1.88210000000000
H           -4.17040000000000       -4.46650000000000        3.10490000000000
H           -1.41990000000000       -6.10170000000000        2.59910000000000
H           -1.66850000000000       -4.42080000000000        3.03680000000000
H           -0.80240000000000       -4.81130000000000        1.56060000000000
H           -2.76110000000000       -7.21750000000000        0.91820000000000
H           -2.18850000000000       -6.13810000000000       -0.34720000000000
H           -3.91430000000000       -6.36740000000000       -0.09690000000000
H           -0.07680000000000       -6.11320000000000       -2.46240000000000
H            0.20380000000000       -4.39260000000000       -2.69350000000000
H           -0.90340000000000       -4.94140000000000       -1.43870000000000
H            2.47150000000000       -6.29240000000000       -2.35730000000000
H            3.36910000000000       -5.48830000000000       -1.07240000000000
H            2.68440000000000       -4.54160000000000       -2.38980000000000
H            1.01260000000000       -7.35790000000000       -0.58430000000000
H            0.07440000000000       -6.37630000000000        0.52660000000000
H            1.81970000000000       -6.49990000000000        0.72210000000000
H           -4.02350000000000        6.32340000000000        3.52720000000000
H           -4.32260000000000        4.58470000000000        3.59440000000000
H           -5.26940000000000        5.60070000000000        2.51820000000000
H            1.57520000000000        6.91270000000000       -1.71400000000000
H            2.75150000000000        6.10460000000000       -0.68110000000000
H            1.05400000000000        6.17510000000000       -0.20270000000000
H           -1.64780000000000        6.11830000000000        3.00810000000000
H           -1.05180000000000        5.12560000000000        1.69250000000000
H           -1.71580000000000        4.36020000000000        3.13900000000000
H           -3.08860000000000        7.31960000000000        1.27930000000000
H           -4.28800000000000        6.42500000000000        0.34700000000000
H           -2.57330000000000        6.21380000000000        0.00480000000000
H            2.17800000000000        5.42840000000000       -3.72300000000000
H            2.22360000000000        3.67710000000000       -3.52230000000000
H            3.42760000000000        4.68990000000000       -2.72950000000000
H           -0.16980000000000        5.54240000000000       -2.99340000000000
H           -0.69800000000000        4.89620000000000       -1.44860000000000
H           -0.25450000000000        3.79900000000000       -2.76150000000000
H            8.83110000000000       -0.31070000000000        1.42560000000000
H            8.48640000000000       -1.94910000000000        1.97160000000000
H            9.87570000000000       -1.07780000000000        2.62310000000000
H            7.28470000000000       -1.06880000000000        5.37820000000000
H            9.00000000000000       -1.34640000000000        5.09330000000000
H            7.80690000000000       -2.39080000000000        4.34110000000000
H            7.83000000000000        1.44680000000000        4.54830000000000
H            8.65600000000000        1.62420000000000        3.00200000000000
H            9.47580000000000        0.85390000000000        4.34910000000000
H            6.73500000000000        1.72130000000000        2.18400000000000
H            6.00890000000000       -2.31520000000000        3.30140000000000
H            2.91450000000000       -4.60450000000000        1.06710000000000
H            3.81830000000000        3.93350000000000       -0.69320000000000
H           -5.57570000000000        4.36330000000000        0.74040000000000
H           -4.70940000000000       -4.45100000000000       -0.58730000000000
H           -8.44160000000000        1.98330000000000       -2.00920000000000
H           -7.75170000000000       -2.11180000000000       -2.92510000000000
H           -0.26670000000000       -2.86060000000000       -1.12060000000000
H           -1.71600000000000       -2.68550000000000        1.84390000000000
H           -1.51510000000000        3.17220000000000        1.11050000000000
H           -0.31860000000000        2.99760000000000       -0.58330000000000
C           -0.46270000000000       -2.35430000000000        6.42330000000000
C           -0.68340000000000       -1.15440000000000        5.74430000000000
C           -1.83160000000000       -1.02270000000000        4.88050000000000
C           -2.57000000000000       -2.22310000000000        4.63400000000000
C           -2.25360000000000       -3.40990000000000        5.32840000000000
C           -1.25990000000000       -3.47840000000000        6.27180000000000
C           -2.45810000000000        0.21750000000000        4.47040000000000
C           -3.76020000000000        0.12560000000000        3.94240000000000
C           -4.29180000000000       -1.13410000000000        3.55850000000000
N           -3.68300000000000       -2.29160000000000        3.86450000000000
C           -2.04190000000000        1.56440000000000        4.76480000000000
C           -3.03320000000000        2.57740000000000        4.92030000000000
N           -4.28340000000000        2.45660000000000        4.42630000000000
C           -4.59690000000000        1.27880000000000        3.85150000000000
C           -5.86770000000000        1.14480000000000        3.26880000000000
C           -6.35600000000000       -0.06570000000000        2.80550000000000
C           -5.56100000000000       -1.18750000000000        2.96330000000000
C           -0.68030000000000        1.98010000000000        4.89680000000000
C           -0.39560000000000        3.15830000000000        5.58590000000000
C           -1.38830000000000        4.04950000000000        5.97160000000000
C           -2.67860000000000        3.77910000000000        5.57010000000000
O            0.24610000000000       -0.18880000000000        6.08410000000000
O            0.32700000000000        1.27240000000000        4.27670000000000
B            1.16950000000000        0.56570000000000        5.22110000000000
C            2.61450000000000       -2.49530000000000        4.92730000000000
C            2.94590000000000       -1.17340000000000        5.21510000000000
C            4.04640000000000       -0.88590000000000        6.09640000000000
C            4.66560000000000       -2.00960000000000        6.72310000000000
C            4.24780000000000       -3.31900000000000        6.40460000000000
C            3.26490000000000       -3.58420000000000        5.48270000000000
C            4.70990000000000        0.38920000000000        6.23310000000000
C            5.95280000000000        0.39280000000000        6.88970000000000
C            6.38480000000000       -0.75110000000000        7.61150000000000
N            5.73130000000000       -1.92440000000000        7.55510000000000
C            4.35670000000000        1.64530000000000        5.63010000000000
C            5.37490000000000        2.61030000000000        5.38640000000000
N            6.58460000000000        2.56540000000000        5.98200000000000
C            6.82030000000000        1.52110000000000        6.80040000000000
C            8.03060000000000        1.49970000000000        7.51000000000000
C            8.42230000000000        0.41930000000000        8.28180000000000
C            7.59530000000000       -0.68970000000000        8.31820000000000
C            3.01530000000000        2.04240000000000        5.33430000000000
C            2.79840000000000        3.08920000000000        4.43820000000000
C            3.82800000000000        3.92730000000000        4.02810000000000
C            5.08190000000000        3.71100000000000        4.55650000000000
O            1.96100000000000        1.48290000000000        6.02910000000000
O            2.16280000000000       -0.26620000000000        4.52720000000000
C           -1.18990000000000       -4.67490000000000        7.23560000000000
C           -0.00180000000000       -4.54080000000000        8.20650000000000
C           -1.06030000000000       -5.99770000000000        6.45980000000000
C           -2.48720000000000       -4.70650000000000        8.06570000000000
C           -1.05330000000000        5.33870000000000        6.73440000000000
C           -2.04690000000000        5.52670000000000        7.89570000000000
C            0.37050000000000        5.28630000000000        7.32480000000000
C           -1.14480000000000        6.53650000000000        5.77660000000000
C           -7.80160000000000       -0.20540000000000        2.30430000000000
C           -7.89530000000000       -1.29330000000000        1.21710000000000
C           -8.31160000000000        1.12060000000000        1.70720000000000
C           -8.69790000000000       -0.59830000000000        3.49010000000000
C            3.03480000000000       -5.00370000000000        4.94420000000000
C            1.71070000000000       -5.08370000000000        4.15770000000000
C            2.99580000000000       -6.03000000000000        6.09080000000000
C            4.19440000000000       -5.35220000000000        3.99540000000000
C            3.55990000000000        5.14950000000000        3.14340000000000
C            4.62140000000000        5.22310000000000        2.03090000000000
C            3.62840000000000        6.42020000000000        4.00660000000000
C            2.16490000000000        5.07170000000000        2.49430000000000
C            9.75400000000000        0.39780000000000        9.04600000000000
C           10.52900000000000        1.71930000000000        8.88050000000000
C            9.47600000000000        0.18180000000000       10.54450000000000
C           10.62870000000000       -0.74890000000000        8.50740000000000
H           -9.73520000000000       -0.71010000000000        3.17580000000000
H           -8.65990000000000        0.16020000000000        4.27130000000000
H           -8.37250000000000       -1.54240000000000        3.92600000000000
H           -8.88290000000000       -1.30300000000000        0.75670000000000
H           -7.71600000000000       -2.28680000000000        1.62480000000000
H           -7.16140000000000       -1.11420000000000        0.43590000000000
H           -9.28270000000000        0.98600000000000        1.23160000000000
H           -7.61980000000000        1.49550000000000        0.95690000000000
H           -8.42810000000000        1.88570000000000        2.47310000000000
H           -2.46830000000000       -5.51970000000000        8.79070000000000
H           -3.35920000000000       -4.84640000000000        7.42800000000000
H           -2.61880000000000       -3.77170000000000        8.61000000000000
H            0.08840000000000       -5.42480000000000        8.83710000000000
H           -0.13000000000000       -3.68020000000000        8.86260000000000
H            0.93450000000000       -4.41470000000000        7.66710000000000
H           -1.07870000000000       -6.84750000000000        7.14180000000000
H           -0.12500000000000       -6.04340000000000        5.90830000000000
H           -1.87660000000000       -6.12580000000000        5.75040000000000
H            1.47310000000000       -6.11310000000000        3.89060000000000
H            1.76870000000000       -4.51370000000000        3.23250000000000
H            0.88580000000000       -4.68030000000000        4.74180000000000
H            4.05720000000000       -6.33900000000000        3.55420000000000
H            5.14600000000000       -5.34600000000000        4.52580000000000
H            4.26070000000000       -4.62390000000000        3.18810000000000
H            2.79240000000000       -7.02980000000000        5.70810000000000
H            2.21940000000000       -5.78610000000000        6.81130000000000
H            3.94510000000000       -6.07160000000000        6.62220000000000
H           -1.79360000000000        6.40710000000000        8.48570000000000
H           -2.03190000000000        4.66130000000000        8.55740000000000
H           -3.06530000000000        5.65620000000000        7.53300000000000
H            3.43940000000000        7.30990000000000        3.40640000000000
H            4.60920000000000        6.52730000000000        4.46830000000000
H            2.88600000000000        6.38530000000000        4.80330000000000
H            0.56920000000000        6.16650000000000        7.93550000000000
H            1.12520000000000        5.26020000000000        6.53950000000000
H            0.49900000000000        4.40640000000000        7.95450000000000
H           -0.92240000000000        7.46870000000000        6.29510000000000
H           -2.14340000000000        6.61990000000000        5.34970000000000
H           -0.43210000000000        6.42980000000000        4.95930000000000
H            4.39520000000000        6.02150000000000        1.32500000000000
H            4.66500000000000        4.28400000000000        1.48310000000000
H            5.61310000000000        5.41400000000000        2.43820000000000
H            2.01110000000000        5.90830000000000        1.81530000000000
H            1.37580000000000        5.11640000000000        3.24390000000000
H            2.04790000000000        4.14840000000000        1.92890000000000
H           10.81440000000000       -0.62280000000000        7.44110000000000
H           10.14740000000000       -1.71530000000000        8.65060000000000
H           11.59140000000000       -0.77730000000000        9.01690000000000
H            8.84000000000000        0.97550000000000       10.93530000000000
H           10.40310000000000        0.17910000000000       11.11700000000000
H            8.97240000000000       -0.76750000000000       10.72120000000000
H            9.94860000000000        2.56330000000000        9.25180000000000
H           10.77590000000000        1.90140000000000        7.83490000000000
H           11.46440000000000        1.69120000000000        9.43880000000000
H            8.66330000000000        2.36230000000000        7.42110000000000
H            7.89370000000000       -1.56170000000000        8.87000000000000
H            4.79740000000000       -4.12930000000000        6.84630000000000
H            5.87650000000000        4.40410000000000        4.35200000000000
H           -3.45680000000000        4.49480000000000        5.75820000000000
H           -2.90580000000000       -4.25190000000000        5.18720000000000
H           -6.48080000000000        2.02510000000000        3.22780000000000
H           -5.93390000000000       -2.15550000000000        2.68670000000000
H            1.83910000000000       -2.63770000000000        4.19860000000000
H            0.35880000000000       -2.36410000000000        7.11470000000000
H            0.63110000000000        3.36670000000000        5.80850000000000
H            1.79520000000000        3.25480000000000        4.09830000000000
274
 energy: -391.755237935011 gnorm: 0.073089383714 xtb: 6.7.1 (edcfbbe)
C           -2.49154604990735       -2.62271898652484        1.11058383431705
C           -2.77113153047384       -1.34287834670094        0.63930417456681
C           -3.86823001601994       -1.14136590748628       -0.25678009815233
C           -4.52562705823716       -2.32867844766075       -0.73293865427287
C           -4.14911271712618       -3.60388271508705       -0.25217499065511
C           -3.18367558398104       -3.76549649697584        0.71375295703895
C           -4.50010635153463        0.10982816309177       -0.58149116872607
C           -5.74772565827865        0.05286873100465       -1.23390827581922
C           -6.21724692851753       -1.16873926599334       -1.78679977343604
N           -5.58553703151745       -2.32573195271000       -1.56291644507212
C           -4.10215747893543        1.42300503253213       -0.17487923340908
C           -5.10860824466151        2.43385919705169       -0.05220322136503
N           -6.31675776810022        2.32585678835454       -0.62458628064989
C           -6.59068130153656        1.19900825775013       -1.29921329949417
C           -7.81430665286818        1.11152104819003       -1.98966247940303
C           -8.23670243180155       -0.05596074885813       -2.61473424013615
C           -7.43268205932973       -1.18221180651065       -2.50400389695110
C           -2.76441280696905        1.82490493813856        0.05324503891684
C           -2.52279521083730        2.98154725131644        0.78993108617359
C           -3.53580770006696        3.89441064960337        1.10149249690464
C           -4.80133139040316        3.63547676809346        0.62305966152158
O           -1.98562248556370       -0.38347478496011        1.20177318941205
O           -1.74804197550972        1.13803722231433       -0.53857521257146
B           -0.96887544057775        0.31574022223385        0.39233320332967
C            0.54778051315246       -2.78811045793960       -0.42916678329923
C            0.78382509282323       -1.51901640362011        0.10570226703708
C            1.94322646370776       -1.30970794045045        0.92782969813040
C            2.64437029694136       -2.49843008543669        1.33789604341570
C            2.29949028392018       -3.76394301122494        0.81070195731747
C            1.32364075380787       -3.91237923491943       -0.14665287258909
C            2.62268485245584       -0.06383628670100        1.18169422546479
C            3.92195503953416       -0.13898379379079        1.72557375811157
C            4.40506628367912       -1.35358215427548        2.27755804160030
N            3.74578791971169       -2.50319402167385        2.11390235097539
C            2.25338934895134        1.24058641014936        0.71730656853082
C            3.29966954291381        2.17198139392305        0.41532513692677
N            4.53597582301663        2.05799714408562        0.92372454460559
C            4.80998081999513        0.97293347454866        1.66170417163207
C            6.08277888836661        0.87362616799069        2.26032915969439
C            6.52630151861680       -0.28707781174764        2.88449304438941
C            5.67620548264574       -1.38504060725293        2.88831789568095
C            0.92625160133857        1.69927880012084        0.53187442503512
C            0.69797488530327        2.77988763599432       -0.31726089215857
C            1.73366466545140        3.56037813323516       -0.83888803104588
C            3.01335521681546        3.28905475845983       -0.40573626028125
O           -0.09019666826841        1.12535974010728        1.22374576746038
O           -0.08851300079250       -0.59212804865128       -0.37055969605262
C           -2.95956113428675       -5.10657205314562        1.41259988581079
C           -1.63737770890917       -5.10993505987730        2.19577022780278
C           -2.95736209076966       -6.27130144885117        0.41138853066077
C           -4.12117485729808       -5.29403005754609        2.40090236123295
C           -3.23344715721949        5.20831194258912        1.82137631275184
C           -4.27453722407387        5.44339678911246        2.92643278399525
C           -1.83174480621705        5.19845418957831        2.44749542405239
C           -3.30214220012047        6.35568310347108        0.80084154360534
C           -9.58736475942846       -0.07867328881132       -3.33463161490707
C           -9.81819925715876       -1.40374247312513       -4.07424966234005
C           -9.64568350841147        1.06494655476712       -4.36044055389117
C          -10.70276021747725        0.10631383510786       -2.29288713970689
C            1.20247919411431       -5.21778670495050       -0.93943177455855
C            0.03842257796918       -5.16296290505418       -1.93852481264095
C            1.01979314848540       -6.42930666040720       -0.01328069775862
C            2.50924768689944       -5.39204520434816       -1.73266287885109
C            1.45605804818140        4.73253911775000       -1.78386102686703
C            2.37741553750922        4.62397113297481       -3.00858071451700
C            1.72880511873140        6.05551743375657       -1.05280146103458
C           -0.00056252351122        4.73902726787934       -2.27269127878974
C            7.95659509522888       -0.40700050810587        3.41882615008498
C            8.51137288612530        0.95941550544458        3.84712358090572
C            8.01459603326992       -1.36078850844864        4.62188624625112
C            8.83483594127856       -0.97003735901496        2.29058057978199
H          -11.67958304253427        0.08531164453999       -2.77327476294041
H          -10.60382921551357        1.05593426017618       -1.77117724318857
H          -10.67112147454732       -0.69177421204887       -1.55298885848647
H          -10.76478743402471       -1.37405702203837       -4.61077959200627
H           -9.85923450372150       -2.24039716090982       -3.37976405441000
H           -9.02744908060777       -1.58506992043226       -4.79968176337431
H          -10.58856008860899        1.03932161701016       -4.90412692226656
H           -8.83524831077968        0.97207822553475       -5.08091019623975
H           -9.56468487624337        2.03824944898514       -3.88259887646205
H           -3.99034280595967       -6.21563142561436        2.96664206546019
H           -5.07276651817235       -5.34882800479004        1.87510253731862
H           -4.16407689099990       -4.45795259867033        3.09671180053262
H           -1.43170131631761       -6.10384034670168        2.59016252734827
H           -1.67941030716496       -4.42641824232428        3.03998530502926
H           -0.80758404154048       -4.80953237910370        1.55997319626491
H           -2.76149329241437       -7.21061919340058        0.92619093039901
H           -2.19008798699682       -6.13464966162904       -0.34537433072309
H           -3.91600338098330       -6.36623804287085       -0.09253387604125
H           -0.06501956169167       -6.11721107854823       -2.45233747911091
H            0.21040111823672       -4.39648946580954       -2.69197403874476
H           -0.90097957968664       -4.94361601417848       -1.43657808526423
H            2.46016518806183       -6.28775960495587       -2.34981117815196
H            3.36559366758276       -5.48557649819328       -1.06831952995940
H            2.67946604686287       -4.53767130229497       -2.38545248531449
H            1.01835817912767       -7.35071871878432       -0.59373560051314
H            0.07720440908267       -6.37268898032901        0.52147826604175
H            1.82206851735390       -6.49491309542784        0.71781539892367
H           -4.01484855034513        6.32176303298945        3.51541792490273
H           -4.32403311353725        4.58129580078780        3.58594628772845
H           -5.26595063576162        5.60512860823956        2.51028992627478
H            1.57410644917569        6.90108113232161       -1.72150621606308
H            2.75122748077550        6.09737947873891       -0.68401655574885
H            1.05274449873073        6.16802739847847       -0.20724949673000
H           -1.66514727493618        6.12015137378038        3.00000745287406
H           -1.05560720363705        5.13119305561633        1.68726954095387
H           -1.71967558077823        4.36294583655944        3.13470180621463
H           -3.08898880153169        7.30768767222521        1.28498191656031