116
 energy: -22.928061455056 gnorm: 0.329736929581 xtb: 6.6.1 (8d0f1dd)
C           -3.31122850772930        0.79849766164622       -0.92477639677520
C           -2.44380812530352       -0.12270372891954       -0.27661132624697
C           -1.41337090092821        0.39579727573559        0.56335275196199
C           -0.89266158675590        1.65801491088749        0.27377586709581
C           -1.72665675402493        2.51431363229076       -0.49448366572522
C           -2.95444148494349        2.13954154133227       -1.01494489940871
C           -0.74098268209890       -0.43411532818871        1.49825021926784
C            0.56872586496315        0.03782116815119        1.86248088067890
C            1.03782416582094        1.29402317993033        1.50887470833621
N            0.31238977034758        2.07067427098208        0.65193736800696
C           -1.29695700510141       -1.39996043042223        2.41574187746061
C           -0.38243517664656       -2.18060797534842        3.13232615520648
N            0.91308504082021       -1.90366887689689        3.30325166013478
C            1.37712470144904       -0.74872102533751        2.81811050966982
C            2.52149331701875       -0.17739833758153        3.39379298866852
C            2.95849061756259        1.02681208890480        2.95105897606587
C            2.24288949469137        1.78498308775960        2.03503020483770
C           -2.74860936222260       -1.74497937691422        2.38401158947411
C           -3.09416315450955       -2.91614440870436        3.00571134491758
C           -2.16786021984049       -3.77788778654213        3.63251872101904
C           -0.85708937311598       -3.40495313382985        3.68547234358092
O           -3.71994433332149       -0.94984598373544        1.67726658385724
O           -2.55702603277562       -1.47241711578389       -0.57241635275616
C           -3.84297843593025        3.13357444054366       -1.60938954875544
C           -2.68769581069131       -5.03867041417370        4.30484659386931
H           -1.39666850744143        3.51251503834900       -0.76806311868865
H           -4.27662633836220        0.55105838579656       -1.33106614114542
H            2.66329581305412        2.73912661909249        1.72562431984580
H            3.05775395548473       -0.69369546277216        4.16536137542516
H           -0.24710966264510       -4.12034095424229        4.22946223699121
H           -4.11477991332403       -3.04712728052358        3.03244694615357
O           -4.21824883374556        4.03433712717988       -0.87713382485991
O           -4.44510595673734        2.90643496899600       -2.81853501752979
C           -5.44216520282800        3.83300025693726       -3.02488532025093
C            4.23586651889298        1.50004220933226        3.59165660008449
O            5.05927614697201        0.66079890002952        3.91714215179376
O            4.47001334453535        2.86385149488593        3.72605651435371
C            5.79457498613219        3.08584475587818        4.15829123132174
O           -3.82227255313510       -5.27347675879771        4.16636005494405
O           -1.85023202017753       -5.79767454267276        5.06656077253571
C           -2.55119635829503       -6.86252441382958        5.62930343183426
C           -5.07197156564436       -1.42399175670916        1.58830531863830
C           -1.33089900128490       -2.23622472573986       -0.99264499351172
H           -2.54510546830388       -7.76426885143998        4.99136022291012
H           -3.57194749219491       -6.44405511486021        5.74196173723541
H           -2.09133598235598       -7.02043774843818        6.64022264233588
H            5.72707967266424        3.46798026205549        5.10135971236643
H            6.34060091246885        3.78468702308830        3.50069950143490
H            6.17933064298187        2.03010500085905        4.19342358084693
H           -0.91862729772622       -2.57650129080332       -0.01361370304871
H           -0.49769766914251       -1.60651221708571       -1.34094446550576
H           -1.52632419730509       -2.94569707152159       -1.75361447637286
H           -5.11788846557077       -2.41810833635233        1.17520213188926
H           -5.67929807973498       -0.69619639428435        1.04301666067831
H           -5.57598832326623       -1.42383358739762        2.57928294206544
H           -6.13050215934830        3.76035386975488       -2.23272855695873
H           -5.86615610071888        3.45938329385866       -4.02668959924245
H           -5.13479557532099        4.87790991548477       -2.98314551356402
C           -1.38192942069774        3.73616555005018        2.91232598411686
C           -1.84821468128685        2.59982427735607        3.49755545445181
C           -1.05946531454833        2.05730632010638        4.60922730982276
C            0.19893954712228        2.69376791964407        4.86302140881997
C            0.50425395911860        3.94630308659851        4.28768785650746
C           -0.26031777722226        4.46998310053134        3.25072669343212
C           -1.20488993561782        0.74454293276906        5.14851520323437
C           -0.06287609782692        0.02744069315890        5.60930570802864
C            1.19208754369866        0.71421540266195        5.78882868583885
N            1.19428660993148        2.06344359410476        5.62744624321596
C           -2.41361422770794        0.07928500213936        5.25249410304426
C           -2.45851584031083       -1.32662100968547        5.60237876023992
N           -1.29466212405906       -1.98318595734370        5.89916817085159
C           -0.14475655767527       -1.32117560077092        5.98824682881008
C            0.97209270935794       -1.98958449505532        6.53157704134458
C            2.21982707914082       -1.36973967291181        6.68703967237737
C            2.30561929262884       -0.09745313075593        6.26436900324455
C           -3.73018485967715        0.71367583494582        5.25810242262992
C           -4.89964478833448       -0.06184623426677        5.21204641615509
C           -4.82617965800088       -1.39228978090841        5.46901303780036
C           -3.67144193418464       -1.98914944386360        5.67265433266067
O           -3.75568638935321        2.07705011038914        5.52067969627343
O           -2.94192434743730        1.91263938797883        3.01658762327703
C            0.21273512614467        5.50086066357994        2.34765104514621
C           -6.06660304520411       -2.17604633098929        5.80641622556876
H            1.41756699010566        4.38133362238595        4.66974005703471
H           -1.82880610647429        4.11982501512100        2.06992133318584
H            3.26888037378556        0.32655662585251        6.31721410015598
H            0.87146188387207       -3.08471526305024        6.57830423410869
H           -3.67716811065157       -3.05999292755990        5.83019634570050
H           -5.77379677507622        0.43595144608221        4.71017130754348
O            1.34459852619901        5.82615848916894        2.44941456579099
O           -0.74718748219123        6.07961784856304        1.59848183464284
C           -0.21473095568964        7.24015934882472        1.05753806029483
C            3.53228080814219       -2.00967610361154        7.02506769044485
O            3.64093082622715       -3.14437803815732        7.50071391725347
O            4.56565258381079       -1.22937033368332        6.69086985080897
C            5.72579357310716       -1.80692399125161        7.22246151275881
O           -7.04801223588612       -1.95726935745904        5.14194115322235
O           -6.01514389321278       -2.93743591896022        6.94765316328794
C           -7.21292732384718       -3.62681918543340        7.15115816329978
C           -4.95459780685163        2.65960679932188        5.86868674392943
C           -3.68284113682406        2.59129188358641        2.05479246020704
H           -7.43119628931628       -4.22607794725959        6.20622607140901
H           -8.06548455146707       -2.91765848248592        7.29781126410398
H           -7.07314693247270       -4.33087306029711        7.91223421050944
H            6.57332189837178       -1.29353136199234        6.78341268688262
H            5.74663761932316       -2.84282155125561        6.88089468184451
H            5.69426191474290       -1.72781984964892        8.29460302186842
H           -4.10481209541493        3.44288266176275        2.60483747673152
H           -4.49244774344916        1.87419893016926        1.82433103764650
H           -3.18901540870812        2.85154642679373        1.06781919454921
H           -5.55414326821421        2.76698137191684        4.93950725322359
H           -4.78658370641210        3.62090640967288        6.25983200635257
H           -5.43485580473958        1.97242995129449        6.65265772412460
H            0.89164886030839        7.38838561720231        1.13776105146914
H           -0.62894889903848        8.04195665205089        1.64837664327952
H           -0.59282546386754        7.45699159724320        0.03719083132488
116
 energy: -22.758978397106 gnorm: 0.464699610911 xtb: 6.6.1 (8d0f1dd)
C           -2.41382016928221        1.02394134862685       -2.05078132014822
C           -1.99956276242464       -0.08571608371918       -1.20265840605335
C           -1.36460136149264        0.24428548790978        0.01555563806730
C           -1.26631720321237        1.64772221570875        0.33065841614345
C           -1.77568363553377        2.73821617859460       -0.52269055142428
C           -2.44198891200996        2.35496827438167       -1.67971739721962
C           -0.85993181854777       -0.67699230520034        1.03027545495333
C            0.29344338081505       -0.21857329051149        1.68564686520924
C            0.46659793959176        1.19890265701716        1.72465312867566
N           -0.49508926921405        2.12413746098696        1.38856024771770
C           -1.33332386330859       -2.00176433644124        1.35444566160333
C           -0.47503912852386       -2.93276632928351        2.02180924914429
N            0.77153035910545       -2.45677388913148        2.45855563510022
C            1.00747278893134       -1.11546178074509        2.50426427734498
C            2.26284979255760       -0.69041882101011        3.07048014784914
C            2.60826090241938        0.66948992846683        2.96013551097913
C            1.72629909978503        1.57548575391303        2.41052286122337
C           -2.68554124321475       -2.41154911461520        1.19467110602889
C           -3.04212187904276       -3.80240225596945        1.53471326741515
C           -2.15517576987197       -4.69667956510508        2.16800623480104
C           -0.91804831549411       -4.14988218785425        2.40093254979943
O           -3.66469244545129       -1.44854078250223        0.85502214978986
O           -1.68262846257557       -1.38300605240318       -1.68138088828604
C           -3.05220273107680        3.33727059863350       -2.62861624679769
C           -2.63245670359306       -5.94879636967695        2.82218004855444
H           -1.62529595827247        3.76193502075569       -0.40678494006090
H           -2.71245334555662        0.70371939759333       -3.12366509972615
H            2.20640220166029        2.49847394859389        2.48087180689119
H            2.90403797795171       -1.48101753012732        3.34468135284259
H           -0.02779825408237       -4.75033131014697        2.64286353494151
H           -4.00788008734877       -4.06273002297256        1.22180005564252
O           -2.80397609898620        4.49751055149468       -2.52811386503568
O           -4.12663154536700        2.75129395302713       -3.26887900744364
C           -4.99418268791325        3.60922794268580       -4.07228486881532
C            3.94605444536533        1.28633478884916        3.53355247666834
O            4.88844037065553        0.54720505865916        3.68268847059537
O            3.83099864019199        2.62237850558892        3.62433278315121
C            4.94053366898780        3.33622797347328        3.93576608785449
O           -3.67255127140014       -6.52010025704677        2.35970856558960
O           -2.10529813676342       -6.23995671516361        4.06367197793173
C           -2.63616722341374       -7.37784013030056        4.71085587124829
C           -4.80589247812742       -1.58806883064556        1.67709690667438
C           -2.93309194901492       -2.11049534780340       -1.95441371125731
H           -3.17241653987019       -8.01023636821512        4.00716218194029
H           -3.39309882562684       -7.00519148454635        5.46890217687059
H           -1.84198796480123       -7.93558543930110        5.35559870219036
H            5.67913893310041        3.28022107776536        3.18706187328906
H            5.23444142066077        2.89772931127556        4.90025574322230
H            4.53202316419123        4.37894936727810        4.14607834242940
H           -2.99699140877779       -3.05413656491479       -1.33359297570406
H           -2.63325114464721       -2.82986042991648       -2.69405685362246
H           -3.83121979596937       -1.58506980283832       -2.08240972424749
H           -5.62158477614500       -1.08945166998674        1.28922342407465
H           -4.66745462043046       -0.90834172885821        2.60368333709849
H           -4.88050749217423       -2.68002993141112        1.91194092709664
H           -6.14006187483354        3.55318567663381       -3.91881595813597
H           -4.70652109386421        3.13357075590722       -5.01441327227417
H           -4.60361350774133        4.57955051758537       -4.15204870771881
C           -1.74958528433365        3.71775000246382        3.47494420066117
C           -1.90705520591879        2.48476568125851        4.10477972430536
C           -0.84440389369420        2.03835704336731        4.94109293420020
C            0.38722801647677        2.73623243128705        4.89827533100448
C            0.42819908183009        4.03128435420207        4.40149896055784
C           -0.59004088847053        4.60318542820368        3.63924527509047
C           -0.97853935310386        0.85791147625809        5.72479444627089
C            0.19731147614053        0.18507598781227        5.98006564644981
C            1.38852502570496        0.91954645868306        5.79883864088982
N            1.56960115574443        2.19438590199935        5.37772587859779
C           -2.25356321784243        0.25715987207811        6.18143344174166
C           -2.30973309207838       -1.00554598460700        6.55402236845531
N           -1.13197635354529       -1.58211427786431        6.91479910906699
C            0.07752012594768       -1.06295296599346        6.56314863854616
C            1.24073369458260       -1.60040393830946        7.05008810565462
C            2.42315771170336       -0.94159912806792        7.05656577808341
C            2.53999854277380        0.29224063999348        6.41082909602726
C           -3.35005943691104        1.04753627896164        6.36504891148257
C           -4.63459358222526        0.47781565145520        6.69796351714386
C           -4.73236531816469       -0.87391974946676        6.85228813101225
C           -3.56009787955671       -1.59187246540178        6.82416118036300
O           -3.11141956278724        2.44393932260375        6.50839014161552
O           -2.93478678649494        1.64974957919460        3.82249798841098
C           -0.37431119472358        5.82826284241936        2.91632436353685
C           -6.08085360542171       -1.55030265358179        7.13089915396459
H            1.40879018857783        4.58541499804594        4.43020842305700
H           -2.55450241771289        4.04913472806332        2.85296936970329
H            3.49120359792344        0.76772837210764        6.32813113021586
H            1.15036261599525       -2.51407113387083        7.57903656475218
H           -3.53415392260097       -2.65036387249009        6.81061607883188
H           -5.46911761534222        1.12439268292769        6.72719404556940
O            0.00743122362088        6.85394536855110        3.44634074123367
O           -0.69130890382205        5.57016417990445        1.65985169567941
C           -0.41575260880673        6.77038479070419        1.05854434040422
C            3.67190537520422       -1.48633374406963        7.60425754763540
O            3.70655505738935       -2.63399652319268        7.91748457750652
O            4.91679929092674       -0.79159969711058        7.45925080456809
C            5.88110620914534       -1.34947226400577        8.34318724176030
O           -6.92528617912345       -0.63741839231001        7.13197302851614
O           -6.19084217025120       -2.90594666732415        7.40828446228262
C           -7.55069488014049       -3.12307239679558        7.60680165998526
C           -4.25400710069918        3.33658776795961        6.82670778581796
C           -3.60882013453842        1.97320134093307        2.61269775458692
H           -8.21417776799277       -2.45697868866320        7.06975253405623
H           -7.75511392852045       -3.10440592768425        8.74130592282469
H           -7.66744044633901       -4.24792219290381        7.54157386375553
H            5.49576197617641       -1.35903816630078        9.47361006081622
H            6.72661220729599       -0.67937235577475        8.18604115207956
H            6.11551757879973       -2.25646695987121        7.92321355060750
H           -4.20305652208846        2.93092769838615        2.66790976140128
H           -4.22429630052261        1.09914811084730        2.24094315553515
H           -2.78067058431095        2.31540869775092        1.89406189874238
H           -5.00668978486875        3.24391305270710        6.19086054433444
H           -3.96604238969132        4.37985307057020        6.78445671730414
H           -4.66731220146002        3.07922779898304        7.87470283258864
H           -1.26483459986006        7.35723412052205        1.24180532270019
H           -0.20400196035459        6.60445451482921        0.01717457987586
H            0.56075571638103        7.21576642082089        1.34556055786118
116
 energy: -22.739544570515 gnorm: 0.466979195376 xtb: 6.6.1 (8d0f1dd)
C           -3.04474136949103        0.83379821654895       -1.85716672155430
C           -2.60962243369340       -0.05311627442757       -0.97234907957932
C           -1.65408557492847        0.35921579023388        0.05850415559668
C           -1.01578065424272        1.60902225534339       -0.19304635299542
C           -1.60308467683197        2.54837833247510       -1.06112787721334
C           -2.54736592180287        2.09681786034064       -1.95037394942361
C           -1.12419300091430       -0.42278674604272        1.08801161832930
C            0.15368834615537       -0.00640370180759        1.65845991489048
C            0.77297108746862        1.27574085921934        1.29604594779420
N           -0.00074431656925        2.13885696349515        0.57204759652396
C           -1.56038645957872       -1.60944651833256        1.73475000407519
C           -0.56478722111598       -2.43494274074598        2.34256028396475
N            0.65790121370611       -2.10700185972838        2.74903434042792
C            0.95009857236186       -0.80708196708716        2.49038360651672
C            2.09270615372308       -0.16946816380052        3.13042315766650
C            2.56580934521581        1.07978444332584        2.97087837520479
C            1.97080244370202        1.73652766059882        1.90049677251133
C           -2.93381035542903       -2.01385077965223        1.76969670585727
C           -3.25514448325792       -3.33928816304793        1.98469970750699
C           -2.12633938626593       -4.21830241695153        2.17277129312691
C           -0.82162017113198       -3.77787303903161        2.28351396104794
O           -3.92152994975481       -1.01228208897816        1.37072466197452
O           -2.96078729046173       -1.40450425126515       -0.97850082627426
C           -3.17908283403001        3.02443815655219       -2.98700198530751
C           -2.27285145409685       -5.70432360006069        2.09902230658208
H           -1.52646684063979        3.54672691042381       -0.93041667397501
H           -3.53818647899255        0.52883158141627       -2.79940698706537
H            2.31408244101514        2.73726891125718        1.69706604224806
H            2.76844517122005       -0.60957997914411        3.85477383807487
H            0.02003313263807       -4.45042311879136        2.29038099798705
H           -4.27147228483526       -3.52758101871134        2.03335513728507
O           -2.83141269832556        4.18379814543731       -3.14215372011050
O           -4.11286528122019        2.50581068857721       -3.84378432665841
C           -4.95376501567774        3.25017998506018       -4.67509289788676
C            3.87470903102246        1.50688276902151        3.32187547733539
O            4.48556890461698        1.07283016657825        4.28719204299447
O            4.44244500612972        2.50758317985871        2.46204368327733
C            5.87761917937429        2.79130408020300        2.79400868628487
O           -3.31487065244017       -6.22647590572635        2.42777661860410
O           -1.07431004300701       -6.29567733656065        1.65265138293976
C           -1.25652535685987       -7.67846095289707        1.74142288887007
C           -5.30608341938578       -1.27989609437643        1.15498529685456
C           -3.98631161106621       -2.13992299135162       -1.71940141862837
H           -1.62443658562757       -8.01656583472536        2.71136225491386
H           -0.32105624962934       -8.18064189956908        1.67065211841491
H           -1.93753554083766       -8.00150463848206        1.04759974453524
H            6.44801683632817        1.82512855063030        2.98858904547836
H            5.98851784928381        3.47921508181092        3.58755303911813
H            6.30263185008580        3.25911878290320        1.84316054305358
H           -3.43293028989567       -2.54427404074670       -2.52553951390775
H           -4.65590853201116       -1.37427102321771       -1.93717030042198
H           -4.14883561415741       -3.02084050621239       -1.13166233454989
H           -5.94486282287509       -0.37749776089180        0.73711559139086
H           -5.58911083866378       -1.27191048349482        2.20915870866458
H           -5.26033148685229       -2.13403698503283        0.45885951302539
H           -5.53845397593224        3.77966576265726       -3.96456661344082
H           -5.38431320130772        2.54781000961686       -5.32927451760193
H           -4.38850718080754        3.94440372604944       -5.37563283612038
C           -1.58740396888748        3.31713185668568        3.37069251507567
C           -1.81740422618645        2.27439749638294        4.17794616421076
C           -0.75478639202898        1.84445417726392        5.17957418663260
C            0.46028539966642        2.44405776813485        5.08598837226071
C            0.59722391796985        3.53276070438355        4.17000079987023
C           -0.42239678104373        4.05833598546027        3.37983858590168
C           -1.00840466673766        0.88348096519652        6.21959368233733
C            0.06592815666254        0.42783180140805        6.91066053972621
C            1.36226704424040        0.90416646848713        6.62892965267260
N            1.60150721859065        1.91200493161613        5.75548782834845
C           -2.28178352546517        0.39795983810059        6.73292832139822
C           -2.26635838633768       -0.96507333015587        7.41475569261864
N           -1.13362854028516       -1.48244346871446        7.90808449377398
C            0.03042593125901       -0.85699652455341        7.67800386703580
C            1.17399326771549       -1.23757334293290        8.50259873710281
C            2.44206517504847       -0.62173985585417        8.13914227021339
C            2.47255678256664        0.39878773357292        7.27325721718190
C           -3.60778971771207        1.02430052687235        6.69126052145740
C           -4.73941611273411        0.22477018979975        6.85923060885588
C           -4.72256651641238       -1.10349438904405        7.40692213743790
C           -3.50788891575746       -1.74728847814846        7.51512913785580
O           -3.59806236200138        2.41799447044273        6.51866712416230
O           -2.73602880762273        1.12191195210333        4.14106472574547
C           -0.07886179631410        5.03695024880421        2.28304046644568
C           -6.00682076458829       -1.80662123295066        7.47369470116305
H            1.61956053948090        3.76127092912824        3.71600397524113
H           -2.30181502036703        3.56022958202835        2.58649257736972
H            3.44961787075927        0.65179333927764        6.97732595651445
H            1.08717774736361       -1.73428450243664        9.51328949141400
H           -3.46207625553083       -2.80013314368081        7.69287343384950
H           -5.55825256655068        0.89270255073363        6.59161291805132
O            0.96815245772300        4.74572808160754        1.62199247676606
O           -0.97559624808388        6.07232994121425        2.02756833291014
C           -0.46126207666981        6.83343252547701        1.07254396157970
C            3.72123124108158       -1.25163940227760        8.64843111029345
O            3.71649793974146       -2.31178773233585        9.35437218660516
O            4.81043839941253       -0.46529689823895        8.46364367851333
C            6.06370285504537       -0.79817494252634        9.11237242114962
O           -6.12742974151828       -3.01325838212463        7.70288712858878
O           -7.12204355625473       -1.04557694414825        7.13635227053578
C           -8.20128238243268       -1.80620248262673        6.77208698735579
C           -4.63537896310148        3.16238178134890        7.31799860254833
C           -3.36039195450773        1.14261624576381        2.92726677407389
H           -8.83373502765001       -1.86782930070508        7.77174223269108
H           -8.12313212440050       -2.73908133869816        6.23135255494859
H           -8.78373577686129       -1.09488797381250        6.12734615459441
H            5.96195070636018       -0.47263950687014       10.14955058605842
H            6.91972125010571       -0.30663579838686        8.79631740476430
H            6.34882134175567       -1.93042805993632        8.99210396219953
H           -4.24031773400168        1.83008975740842        3.12934203429875
H           -3.86394772815142        0.18735696122791        2.69986121372953
H           -2.62434740294214        1.32918198172514        2.11561599649335
H           -5.31877117792137        2.46940220559023        7.77822853673670
H           -5.29051388314544        3.66851225369943        6.47881159554469
H           -4.07725205703077        3.74502580002690        7.98638813002482
H            0.58448759107526        7.10738962849192        1.50861775496996
H           -1.12881373230871        7.68795970271239        0.97870866370669
H           -0.37210627374942        6.29284028599158        0.07822846932896
116
 energy: -22.767871015929 gnorm: 0.456728328837 xtb: 6.6.1 (8d0f1dd)
C           -3.38273359413479        0.68870112134873       -2.03595143436380
C           -2.84611249855011       -0.18269691083283       -1.06851425529937
C           -1.96596822707962        0.30810220988751       -0.02434693743245
C           -1.49494703333639        1.69321176674099       -0.12011148798347
C           -2.30012078754967        2.58329650874339       -0.88891630425646
C           -3.19347606843582        2.05040577387125       -1.82478400207128
C           -1.44059489087509       -0.42656535258822        1.18609658129231
C           -0.15056664514132        0.08052227391230        1.60562045689409
C            0.23093094888156        1.46522336976385        1.39277646324991
N           -0.39678652766807        2.23534605311359        0.49763127289257
C           -1.68225820190758       -1.77757151091747        1.45459504955729
C           -0.59682842463501       -2.63862397573723        1.54918185703316
N            0.55301643475385       -2.23738943351089        2.16731220188793
C            0.85405532243972       -0.89956817633103        2.15715606180092
C            2.07866171307804       -0.46212630526516        2.57242867577913
C            2.28452235003771        0.94602013926570        2.70973372157833
C            1.48926186109092        1.85787017514332        1.97027656164907
C           -3.03032321568913       -2.35888474744136        1.46299168088128
C           -3.22051167289479       -3.77192040619567        1.59318829289545
C           -2.09355323309383       -4.60028652166550        1.76888091352879
C           -0.85618361354444       -4.02602782260877        1.76205558829384
O           -4.16841220372896       -1.51819911192326        1.33347469445594
O           -3.27770544079963       -1.50150963347933       -1.35910565051794
C           -3.84329583076186        3.04434142668264       -2.85990233817748
C           -2.45412587847751       -5.98915604417233        2.17763772434273
H           -1.85007087191309        3.54698368646883       -0.91903952641896
H           -4.05565676668431        0.36743327710776       -2.80739000607090
H            1.80025158099236        2.90262670626487        1.91567800764776
H            2.62053327774495       -1.14006535221990        3.27283269225739
H           -0.12518093659380       -4.64115039541496        2.30335243302348
H           -4.10697459311737       -4.32380597006466        1.57205698873192
O           -3.53194494702533        4.20840368219855       -2.76531380601903