116
 energy: -22.928061455056 gnorm: 0.329736929581 xtb: 6.6.1 (8d0f1dd)
C           -3.31122850772930        0.79849766164622       -0.92477639677520
C           -2.44380812530352       -0.12270372891954       -0.27661132624697
C           -1.41337090092821        0.39579727573559        0.56335275196199
C           -0.89266158675590        1.65801491088749        0.27377586709581
C           -1.72665675402493        2.51431363229076       -0.49448366572522
C           -2.95444148494349        2.13954154133227       -1.01494489940871
C           -0.74098268209890       -0.43411532818871        1.49825021926784
C            0.56872586496315        0.03782116815119        1.86248088067890
C            1.03782416582094        1.29402317993033        1.50887470833621
N            0.31238977034758        2.07067427098208        0.65193736800696
C           -1.29695700510141       -1.39996043042223        2.41574187746061
C           -0.38243517664656       -2.18060797534842        3.13232615520648
N            0.91308504082021       -1.90366887689689        3.30325166013478
C            1.37712470144904       -0.74872102533751        2.81811050966982
C            2.52149331701875       -0.17739833758153        3.39379298866852
C            2.95849061756259        1.02681208890480        2.95105897606587
C            2.24288949469137        1.78498308775960        2.03503020483770
C           -2.74860936222260       -1.74497937691422        2.38401158947411
C           -3.09416315450955       -2.91614440870436        3.00571134491758
C           -2.16786021984049       -3.77788778654213        3.63251872101904
C           -0.85708937311598       -3.40495313382985        3.68547234358092
O           -3.71994433332149       -0.94984598373544        1.67726658385724
O           -2.55702603277562       -1.47241711578389       -0.57241635275616
C           -3.84297843593025        3.13357444054366       -1.60938954875544
C           -2.68769581069131       -5.03867041417370        4.30484659386931
H           -1.39666850744143        3.51251503834900       -0.76806311868865
H           -4.27662633836220        0.55105838579656       -1.33106614114542
H            2.66329581305412        2.73912661909249        1.72562431984580
H            3.05775395548473       -0.69369546277216        4.16536137542516
H           -0.24710966264510       -4.12034095424229        4.22946223699121
H           -4.11477991332403       -3.04712728052358        3.03244694615357
O           -4.21824883374556        4.03433712717988       -0.87713382485991
O           -4.44510595673734        2.90643496899600       -2.81853501752979
C           -5.44216520282800        3.83300025693726       -3.02488532025093
C            4.23586651889298        1.50004220933226        3.59165660008449
O            5.05927614697201        0.66079890002952        3.91714215179376
O            4.47001334453535        2.86385149488593        3.72605651435371
C            5.79457498613219        3.08584475587818        4.15829123132174
O           -3.82227255313510       -5.27347675879771        4.16636005494405
O           -1.85023202017753       -5.79767454267276        5.06656077253571
C           -2.55119635829503       -6.86252441382958        5.62930343183426
C           -5.07197156564436       -1.42399175670916        1.58830531863830
C           -1.33089900128490       -2.23622472573986       -0.99264499351172
H           -2.54510546830388       -7.76426885143998        4.99136022291012
H           -3.57194749219491       -6.44405511486021        5.74196173723541
H           -2.09133598235598       -7.02043774843818        6.64022264233588
H            5.72707967266424        3.46798026205549        5.10135971236643
H            6.34060091246885        3.78468702308830        3.50069950143490
H            6.17933064298187        2.03010500085905        4.19342358084693
H           -0.91862729772622       -2.57650129080332       -0.01361370304871
H           -0.49769766914251       -1.60651221708571       -1.34094446550576
H           -1.52632419730509       -2.94569707152159       -1.75361447637286
H           -5.11788846557077       -2.41810833635233        1.17520213188926
H           -5.67929807973498       -0.69619639428435        1.04301666067831
H           -5.57598832326623       -1.42383358739762        2.57928294206544
H           -6.13050215934830        3.76035386975488       -2.23272855695873
H           -5.86615610071888        3.45938329385866       -4.02668959924245
H           -5.13479557532099        4.87790991548477       -2.98314551356402
C           -1.38192942069774        3.73616555005018        2.91232598411686
C           -1.84821468128685        2.59982427735607        3.49755545445181
C           -1.05946531454833        2.05730632010638        4.60922730982276
C            0.19893954712228        2.69376791964407        4.86302140881997
C            0.50425395911860        3.94630308659851        4.28768785650746
C           -0.26031777722226        4.46998310053134        3.25072669343212
C           -1.20488993561782        0.74454293276906        5.14851520323437
C           -0.06287609782692        0.02744069315890        5.60930570802864
C            1.19208754369866        0.71421540266195        5.78882868583885
N            1.19428660993148        2.06344359410476        5.62744624321596
C           -2.41361422770794        0.07928500213936        5.25249410304426
C           -2.45851584031083       -1.32662100968547        5.60237876023992
N           -1.29466212405906       -1.98318595734370        5.89916817085159
C           -0.14475655767527       -1.32117560077092        5.98824682881008
C            0.97209270935794       -1.98958449505532        6.53157704134458
C            2.21982707914082       -1.36973967291181        6.68703967237737
C            2.30561929262884       -0.09745313075593        6.26436900324455
C           -3.73018485967715        0.71367583494582        5.25810242262992
C           -4.89964478833448       -0.06184623426677        5.21204641615509
C           -4.82617965800088       -1.39228978090841        5.46901303780036
C           -3.67144193418464       -1.98914944386360        5.67265433266067
O           -3.75568638935321        2.07705011038914        5.52067969627343
O           -2.94192434743730        1.91263938797883        3.01658762327703
C            0.21273512614467        5.50086066357994        2.34765104514621
C           -6.06660304520411       -2.17604633098929        5.80641622556876
H            1.41756699010566        4.38133362238595        4.66974005703471
H           -1.82880610647429        4.11982501512100        2.06992133318584
H            3.26888037378556        0.32655662585251        6.31721410015598
H            0.87146188387207       -3.08471526305024        6.57830423410869
H           -3.67716811065157       -3.05999292755990        5.83019634570050
H           -5.77379677507622        0.43595144608221        4.71017130754348
O            1.34459852619901        5.82615848916894        2.44941456579099
O           -0.74718748219123        6.07961784856304        1.59848183464284
C           -0.21473095568964        7.24015934882472        1.05753806029483
C            3.53228080814219       -2.00967610361154        7.02506769044485
O            3.64093082622715       -3.14437803815732        7.50071391725347
O            4.56565258381079       -1.22937033368332        6.69086985080897
C            5.72579357310716       -1.80692399125161        7.22246151275881
O           -7.04801223588612       -1.95726935745904        5.14194115322235
O           -6.01514389321278       -2.93743591896022        6.94765316328794
C           -7.21292732384718       -3.62681918543340        7.15115816329978
C           -4.95459780685163        2.65960679932188        5.86868674392943
C           -3.68284113682406        2.59129188358641        2.05479246020704
H           -7.43119628931628       -4.22607794725959        6.20622607140901
H           -8.06548455146707       -2.91765848248592        7.29781126410398
H           -7.07314693247270       -4.33087306029711        7.91223421050944
H            6.57332189837178       -1.29353136199234        6.78341268688262
H            5.74663761932316       -2.84282155125561        6.88089468184451
H            5.69426191474290       -1.72781984964892        8.29460302186842
H           -4.10481209541493        3.44288266176275        2.60483747673152
H           -4.49244774344916        1.87419893016926        1.82433103764650
H           -3.18901540870812        2.85154642679373        1.06781919454921
H           -5.55414326821421        2.76698137191684        4.93950725322359
H           -4.78658370641210        3.62090640967288        6.25983200635257
H           -5.43485580473958        1.97242995129449        6.65265772412460
H            0.89164886030839        7.38838561720231        1.13776105146914
H           -0.62894889903848        8.04195665205089        1.64837664327952
H           -0.59282546386754        7.45699159724320        0.03719083132488
116
 energy: -22.863081927223 gnorm: 0.370893361048 xtb: 6.6.1 (8d0f1dd)
C           -3.12281819647897        0.69647730722303       -0.94653406839866
C           -2.39158398708675       -0.21472475880316       -0.18386266049707
C           -1.29120066567440        0.32692911941209        0.49386355125768
C           -0.78222643729891        1.62475346151569        0.07681950183101
C           -1.56130773445650        2.48821761843585       -0.74216486826243
C           -2.76101423417243        2.08460367710579       -1.13036487583789
C           -0.58064575649714       -0.34269231535306        1.53571852228663
C            0.76188485439053        0.03724568582878        1.68943012943321
C            1.22755253303685        1.21215620008315        1.11123485051476
N            0.45575133313396        2.10942441329778        0.39710375382229
C           -1.19005680990796       -1.30170942992333        2.42458538588578
C           -0.28048289859640       -2.06498858375157        3.12420116414555
N            1.03690568164626       -1.80914119219096        3.18425765907181
C            1.57691794489929       -0.75869198817842        2.53534929521657
C            2.89938508488070       -0.29895250686401        2.82390328330504
C            3.36038956738686        0.83799417914799        2.17463280750336
C            2.49450568936033        1.65673245637713        1.44973017073761
C           -2.59632741215393       -1.63078680458390        2.55234091735424
C           -2.97298258987481       -2.92501840938756        3.07509882429588
C           -2.02420188388642       -3.66071119703965        3.73772436331879
C           -0.71024975887335       -3.18969602478781        3.87986289240878
O           -3.34088794529820       -0.43285767726139        2.44096239925710
O           -2.64450052200096       -1.59063009644402       -0.18705924338682
C           -3.50954140925977        2.92981621028758       -2.06294347169512
C           -2.36375350690532       -4.89955283529840        4.53139960997752
H           -1.16535243539701        3.40084642141546       -1.21584005096960
H           -3.94253655552646        0.32281453024214       -1.40854523083565
H            2.95897301198797        2.54701440963861        1.00192922798184
H            3.59987848096409       -0.94791570807384        3.35373957020662
H            0.02780554039006       -3.79869619810440        4.33472370623571
H           -3.95908042529839       -3.30026845173856        2.99400028442002
O           -3.07343089458324        3.95702001382900       -2.50795171746687
O           -4.79206399907898        2.42678406146081       -2.27944474927671
C           -5.56488144762007        3.41185997717283       -2.93848777527756
C            4.74656642388725        1.19455217710261        2.50326069935440
O            5.22635603459193        0.62595927189461        3.47257343419510
O            5.44407633337711        2.07281166240044        1.77118114107491
C            6.76072579045147        2.16579341472975        2.39263286614287
O           -3.50209205689984       -4.99541917326991        4.96842602997635
O           -1.36635122112671       -5.84799513973421        4.65693847589741
C           -1.84670649017013       -6.87977518103092        5.42398161794027
C           -4.66213954920232       -0.73216601080018        2.02581120850272
C           -2.36851588186003       -2.23240407425217       -1.44477063208715
H           -0.99353407690330       -7.58781887372125        5.67142750163164
H           -2.65793398264627       -7.32440817501569        4.91864085570186
H           -2.29353575785211       -6.53391962869626        6.32439227594650
H            6.67806285897583        2.55712586760303        3.37052272239188
H            7.23165128198184        2.95120105640967        1.79150342680126
H            7.23718116281193        1.20883119250064        2.15167851964670
H           -1.48354628930056       -2.92282463202247       -1.14641811702832
H           -1.95426630852653       -1.48238850781723       -1.99959001296412
H           -3.17602326243188       -2.64785573797143       -1.90659473998086
H           -4.59376343050745       -1.35403459121191        1.13265832262766
H           -5.22643736513338        0.08995567675700        1.54482666866275
H           -5.13667453744323       -1.04531597463076        2.92052770321830
H           -5.37063770007958        4.35380569933832       -2.39038935938839
H           -6.68429339052359        3.22849776578675       -2.98782020241432
H           -5.22040442691783        3.59867765228261       -3.96130780379679
C           -1.72455732486999        3.72471253143954        3.22342117900364
C           -1.87998004430651        2.47552346302223        3.80151244495310
C           -0.89476929523285        1.92314250089580        4.60570133539247
C            0.37591551764068        2.50067161613989        4.45849775402261
C            0.52600533123809        3.81403182854215        3.93354507540260
C           -0.54797104248033        4.43743880868215        3.27576197978541
C           -1.10074292419740        0.74542686100345        5.36749026330534
C            0.02193349448056        0.03258604794953        5.73813458617957
C            1.24779197632405        0.65652616736479        5.66456962040103
N            1.38532500755896        1.93961320273833        5.20985352371365
C           -2.42296791228021        0.19322059237316        5.56955995836828
C           -2.41374463822979       -1.17678812385902        5.84600082442629
N           -1.30056945538280       -1.85043631709328        6.14091246504244
C           -0.08603070612655       -1.30678106534700        6.17993833648809
C            1.01223819310085       -1.83320907990355        6.78225415190426
C            2.31350227159179       -1.36320132151873        6.71978368714898
C            2.38404502603146       -0.03926949706949        6.22485262090135
C           -3.64374128393652        0.85267532587044        5.67802452868437
C           -4.80544097173062        0.10685522603661        5.50763087744669
C           -4.76297600849110       -1.23440717466271        5.37850018062213
C           -3.63684301348617       -1.90716970320649        5.71786039284569
O           -3.71737731066163        2.13406616446337        6.17528252083221
O           -3.01811902071074        1.77443604036939        3.46917398053784
C           -0.57291920605484        5.85750868403409        2.81649528838625
C           -6.13216045630840       -1.88938796605687        5.16313793310627
H            1.34158051146581        4.45610910165104        4.01365216496024
H           -2.46047869850207        4.10513770466222        2.56021771031559
H            3.32952772626021        0.45055503891788        6.20230977474919
H            0.95854330528731       -2.86981389495312        7.12317887937974
H           -3.57543629602935       -3.03468220254984        5.65888123573690
H           -5.79980225485125        0.60988987402242        5.54881302942849
O            0.50840796408556        6.42739701161575        3.03110186559817
O           -1.63124910132914        6.30536072796380        2.09122629556648
C           -1.58055888792792        7.64811124152348        1.99899186808402
C            3.33188868914122       -2.08043326768772        7.64499309027484
O            3.25957849435230       -3.28747410929643        7.66894171448630
O            4.12111210180868       -1.33928612819897        8.52323134837117
C            4.96923377785948       -2.18869418703563        9.20380553905582
O           -6.78273868642698       -1.56324312020351        4.18716861915993
O           -6.70567848965999       -2.53904872413875        6.26241098989149
C           -7.91880546992848       -3.22373046474286        5.88581949470045
C           -4.94779005800320        2.55718507957370        6.72806954876626
C           -4.20975695621261        2.25041551352349        2.87949559095582
H           -7.64026411808757       -3.91785621087600        5.09650953503523
H           -8.55993109289584       -2.48820074244456        5.39414564158593
H           -8.53296836688850       -3.75662010079019        6.57207961046548
H            5.26929698918425       -1.59363710534656       10.08684206294491
H            5.81619959428514       -2.42053682129675        8.56410067689497
H            4.40907573984818       -3.12636578361393        9.31435437903770
H           -3.92583697963817        2.03801404851272        1.80018044346528
H           -4.50315449124005        3.36536733555288        2.99010638683985
H           -5.02924051558029        1.48573460527303        2.90827467523553
H           -5.55485322109543        2.72324770655791        5.75080200808749
H           -4.83450563248225        3.44275958703483        7.33508694734540
H           -5.22810886437819        1.64841778408111        7.44768781356209
H           -0.82374004399582        8.11728034908004        2.76444226475146
H           -2.70000701536075        8.01285664717887        2.09620763430605
H           -1.19485184177669        7.97077228105065        1.04137432364727
116
 energy: -22.866578213895 gnorm: 0.390753419989 xtb: 6.6.1 (8d0f1dd)
C           -3.10594762807619        0.48773508266441       -1.05389185277135
C           -2.27986116485070       -0.32093390441340       -0.22002025932415
C           -1.25727409176758        0.28218669489869        0.61494654687642
C           -0.85332140666315        1.62000927326035        0.29483144798205
C           -1.73302757713237        2.39703707528320       -0.52484950011087
C           -2.75246923479770        1.80851387763967       -1.24920226574406
C           -0.57234969938468       -0.33107158715180        1.68573623706234
C            0.69556529361988        0.09111773883233        2.02043010593439
C            1.11656930444263        1.38868214400636        1.50407925973342
N            0.28817122102644        2.19235520088667        0.86097795005991
C           -1.07926562668215       -1.45973761894598        2.41959306056264
C           -0.12810174648291       -2.33801400310025        3.00041386844466
N            1.20312851589026       -2.05013632671078        2.98416829055160
C            1.57926993035601       -0.78541961886881        2.72571307333021
C            2.87726808741620       -0.38874259122615        2.98421476754189
C            3.27538867981835        0.87041306554342        2.49514723899684
C            2.41246989763422        1.70318803055769        1.83125822222779
C           -2.41394687158424       -1.91871242585993        2.42290339464203
C           -2.82076412378289       -3.11593188872324        3.02634223188803
C           -1.82862605640561       -3.80988855401349        3.60049796821769
C           -0.49676285434760       -3.54686153235329        3.53042930615602
O           -3.41031403995208       -0.98244561936274        2.04114568940929
O           -2.32031956299627       -1.69695438638849       -0.43248146981637
C           -3.45467622436695        2.82291181166062       -2.17030088810614
C           -2.16569081336490       -5.15201826963195        4.28655418214711
H           -1.52691646254272        3.47621335729128       -0.75207223499047
H           -3.85639929155639        0.20973446495679       -1.68080910557397
H            2.75084960448639        2.61690417822080        1.37326875195250
H            3.55485055803055       -0.97071857403526        3.56976172667030
H            0.18297898905790       -4.15335895999505        3.96535845361193
H           -3.82004003080716       -3.55057162785537        2.96838387582115
O           -3.34852835644595        4.01226169471562       -1.83029869155119
O           -4.09638635268682        2.38855397987371       -3.26419377950404
C           -4.74778419152736        3.45840112551562       -3.94504895682388
C            4.63301894490264        1.43895451182137        2.64270648859717
O            5.49596387584629        0.86776592106641        3.21742796745741
O            4.86505929752508        2.61002983658186        2.08432868926795
C            6.03208793292314        3.09599432152491        2.52866959358795
O           -3.35039739553368       -5.50678854415222        4.41437270348888
O           -1.08194759528800       -5.86949712417004        4.57429659934273
C           -1.48524260611921       -6.85173074161747        5.40532049838275
C           -4.79060019174986       -1.32555297192916        2.27879737681583
C           -3.51921142143956       -2.26776404216920       -0.93189129105641
H           -0.48608417260846       -7.38023817170462        5.66895626871410
H           -2.11576883147018       -7.52831996716848        4.87177953640933
H           -2.07277172111323       -6.32744637217942        6.19529783632839
H            6.49443605135659        2.45001299145421        3.33792607070892
H            5.74722697899500        4.04445625563357        3.07159800689950
H            6.71657643045723        3.35233383009202        1.66624570960994
H           -3.09726197078397       -3.33068510837496       -1.29193452217699
H           -3.81718508871071       -1.75269731742982       -1.84640474904858
H           -4.21488093081230       -2.55847937439600       -0.17617243090725
H           -5.20099660292803       -1.92191497273652        1.46485526020800
H           -5.35486529650252       -0.45173072248920        1.96265778789684
H           -4.97868136330493       -1.51578538966481        3.37015221174540
H           -5.67647553343322        3.63191683678409       -3.45517421783411
H           -4.96546763512840        3.36445415321335       -4.97646147465142
H           -3.93050680320964        4.21965636680425       -3.91880684758298
C           -1.50220328674083        4.01523494788616        3.27237662979073
C           -1.97018738141949        2.93415317755798        3.88593165722936
C           -1.21973088852282        2.23216416185576        5.01887774957510
C            0.08208299915154        2.74442646920438        5.21902937922283
C            0.42437453511121        3.96267378169721        4.60012425982483
C           -0.32748090602521        4.64199017862410        3.71821661861352
C           -1.47857536928270        0.95201656573296        5.60957828915521
C           -0.33666032193373        0.27689077979807        6.00029667763593
C            0.98417220506972        0.80571714674450        6.14582427597881
N            1.08344664017252        2.14127731163860        5.88072666260024
C           -2.75137840067397        0.27321164763063        5.60664666046789
C           -2.68186945932087       -1.17560927219678        5.87534375049310
N           -1.61348966811569       -1.80433420377996        6.28308189323685
C           -0.46315058088942       -1.10542561150924        6.44515739904510
C            0.66707557387642       -1.78055671938701        6.94431799198026
C            1.93276407489025       -1.21369361108297        6.92997484018086
C            2.07563353741521        0.11803435677860        6.67972840758313
C           -4.01403527990821        0.94899664537201        5.61287134610204
C           -5.11561889751752        0.13203756767243        5.56867701628529
C           -5.10768869387382       -1.22924496161175        5.82623058562658
C           -3.90581387277349       -1.82335130591594        6.06535494217555
O           -4.14021048312933        2.33519032170698        5.61579457815136
O           -3.06419235679239        2.23731965668512        3.30942468490046
C            0.20721233197624        5.96070848702855        3.09316781265117
C           -6.36765762997982       -2.05561372477212        6.08265772433509
H            1.44747231459972        4.21003602765489        4.56139404519870
H           -2.21506298663898        4.63846557602207        2.84087240508461
H            3.02848475842319        0.57571460992208        6.54413313290457
H            0.63657500189625       -2.86133082957512        7.12198714116498
H           -3.86718766004449       -2.85546896030784        6.44864754961845
H           -6.10399083460922        0.58758247738219        5.36516009278720
O            1.39808811993230        6.17379944523848        3.21360229745986
O           -0.80264550501149        6.69312101505352        2.36791740864125
C           -0.14743269242842        7.66131919121991        1.59074402947119
C            3.05063237658271       -1.98497103715549        7.43262457480384
O            2.85494811588243       -2.91225840528797        8.21693745986011
O            4.32361917554654       -1.77326037008821        6.93725926677517
C            5.17448334819043       -2.88624425174610        6.94745867661432
O           -7.39362781051897       -1.45091254361062        6.37746892978833
O           -6.35767101607759       -3.42792493889272        6.00792202555888
C           -7.63730460768587       -4.00187062021019        6.23444053173560
C           -5.45679341528064        2.93262195125415        5.71642865174598
C           -3.51498770654874        2.53154591707241        2.02142447139779
H           -8.26158906696431       -3.95827631135675        5.37140402568850
H           -8.04631907738165       -3.24807086264050        6.91342674145378
H           -7.53427986921203       -5.02116329227660        6.72712973776885
H            6.05732180149153       -2.71088517379400        6.33180172089746
H            4.51866626670536       -3.75114629523611        6.73768668838373
H            5.60634726445337       -3.07226428934561        7.98635329564059
H           -2.67227826873043        3.03134030459612        1.38927223288594
H           -4.07664111747594        3.46904311049426        2.16284636743989
H           -3.99293983078049        1.71738980560999        1.38418994972713
H           -5.83616352528917        2.98462170358735        4.71224814380107
H           -5.21441062420744        3.89897839251751        5.99405016199271
H           -6.04771500872510        2.53284484165300        6.56539014977754
H           -0.22419177563050        7.51960871876544        0.51879003423943
H            0.86744532735244        7.90724204178317        1.91188100850531
H           -0.71234280060276        8.46224132851743        1.85791591055927
116
 energy: -22.899370438167 gnorm: 0.366922875417 xtb: 6.6.1 (8d0f1dd)
C           -2.70840650232365        0.48827133039710       -1.30989574837358
C           -1.95833899921495       -0.38858147074123       -0.51873254819131
C           -1.05577430389492        0.12869195399133        0.38597144252190
C           -0.72299240273538        1.55698936584554        0.22113289221836
C           -1.59716535194546        2.37694947529364       -0.42361922809171
C           -2.53906174268395        1.85491256779641       -1.26476960622465
C           -0.35357841246335       -0.58540244162295        1.39685616842419
C            0.80876890973720       -0.09024816101533        1.90416170835073
C            1.16241804467979        1.29121758923838        1.59755756124288
N            0.38408082335732        2.11086988122075        0.82824637386822
C           -0.84275990179908       -1.78324002513548        2.03940359439514
C            0.06705911983916       -2.47196750383561        2.89019999841255
N            1.29180489036210       -2.07875725001986        3.24015718251326
C            1.68835744471532       -0.87122287829444        2.75850757945387
C            2.92775816565439       -0.24342281608362        3.15692366310306
C            3.27321005169181        1.08376458060141        2.87193530930498
C            2.39807324999337        1.78808219772791        2.10793931167398
C           -2.27182678994601       -2.09947708427871        2.17865612580425
C           -2.63272304252546       -3.22921136932429        2.84071309563990
C           -1.70679115194868       -3.91873847232318        3.62723747221445
C           -0.36778280145660       -3.61608989569561        3.61106453918472
O           -3.30776401233308       -1.24845296344129        1.70147075116578
O           -2.12216217448224       -1.77450840762842       -0.74497967822497
C           -3.29217048462943        2.65470905738244       -2.24071282682752
C           -2.18820830674569       -5.03263672867997        4.50249303692037
H           -1.54566758841805        3.45572996021712       -0.57176702287395
H           -3.57667228091647        0.30541710630805       -1.93797485215022
H            2.56721083363033        2.86354872402374        2.06609909830334
H            3.50325488120220       -0.74108990307628        3.90858028837046
H            0.31989572044217       -4.09860002582056        4.22764918301198
H           -3.60957149261947       -3.62280200409323        2.75486111471837
O           -3.05219221055104        3.84445464597103       -2.40684281043206