      -----------------------------------------------------------      
     |                   =====================                   |     
     |                           x T B                           |     
     |                   =====================                   |     
     |                         S. Grimme                         |     
     |          Mulliken Center for Theoretical Chemistry        |     
     |                    University of Bonn                     |     
      -----------------------------------------------------------      

   * xtb version 6.6.1 (8d0f1dd) compiled by 'runner@Mac-1690902418499.local' on 2023-08-01

   xtb is free software: you can redistribute it and/or modify it under
   the terms of the GNU Lesser General Public License as published by
   the Free Software Foundation, either version 3 of the License, or
   (at your option) any later version.
   
   xtb is distributed in the hope that it will be useful,
   but WITHOUT ANY WARRANTY; without even the implied warranty of
   MERCHANTABILITY or FITNESS FOR A PARTICULAR PURPOSE.  See the
   GNU Lesser General Public License for more details.
   
   Cite this work as:
   * C. Bannwarth, E. Caldeweyher, S. Ehlert, A. Hansen, P. Pracht,
     J. Seibert, S. Spicher, S. Grimme, WIREs Comput. Mol. Sci., 2020, 11,
     e01493. DOI: 10.1002/wcms.1493
   
   for GFN2-xTB:
   * C. Bannwarth, S. Ehlert and S. Grimme., J. Chem. Theory Comput., 2019,
     15, 1652-1671. DOI: 10.1021/acs.jctc.8b01176
   for GFN1-xTB:
   * S. Grimme, C. Bannwarth, P. Shushkov, J. Chem. Theory Comput., 2017,
     13, 1989-2009. DOI: 10.1021/acs.jctc.7b00118
   for GFN0-xTB:
   * P. Pracht, E. Caldeweyher, S. Ehlert, S. Grimme, ChemRxiv, 2019, preprint.
     DOI: 10.26434/chemrxiv.8326202.v1
   for GFN-FF:
   * S. Spicher and S. Grimme, Angew. Chem. Int. Ed., 2020, 59, 15665-15673.
     DOI: 10.1002/anie.202004239
   
   for ALPB and GBSA implicit solvation:
   * S. Ehlert, M. Stahn, S. Spicher, S. Grimme, J. Chem. Theory Comput.,
     2021, 17, 4250-4261. DOI: 10.1021/acs.jctc.1c00471
   
   for DFT-D4:
   * E. Caldeweyher, C. Bannwarth and S. Grimme, J. Chem. Phys., 2017,
     147, 034112. DOI: 10.1063/1.4993215
   * E. Caldeweyher, S. Ehlert, A. Hansen, H. Neugebauer, S. Spicher,
     C. Bannwarth and S. Grimme, J. Chem. Phys., 2019, 150, 154122.
     DOI: 10.1063/1.5090222
   * E. Caldeweyher, J.-M. Mewes, S. Ehlert and S. Grimme, Phys. Chem. Chem. Phys.
     2020, 22, 8499-8512. DOI: 10.1039/D0CP00502A
   
   for sTDA-xTB:
   * S. Grimme and C. Bannwarth, J. Chem. Phys., 2016, 145, 054103.
     DOI: 10.1063/1.4959605
   
   in the mass-spec context:
   * V. Asgeirsson, C. Bauer and S. Grimme, Chem. Sci., 2017, 8, 4879.
     DOI: 10.1039/c7sc00601b
   * J. Koopman and S. Grimme, ACS Omega 2019, 4, 12, 15120-15133.
     DOI: 10.1021/acsomega.9b02011
   
   for metadynamics refer to:
   * S. Grimme, J. Chem. Theory Comput., 2019, 155, 2847-2862
     DOI: 10.1021/acs.jctc.9b00143
   
   for SPH calculations refer to:
   * S. Spicher and S. Grimme, J. Chem. Theory Comput., 2021, 17, 1701-1714
     DOI: 10.1021/acs.jctc.0c01306
   
   with help from (in alphabetical order)
   P. Atkinson, C. Bannwarth, F. Bohle, G. Brandenburg, E. Caldeweyher
   M. Checinski, S. Dohm, S. Ehlert, S. Ehrlich, I. Gerasimov, C. Hölzer
   A. Katbashev, J. Koopman, C. Lavigne, S. Lehtola, F. März, M. Müller,
   F. Musil, H. Neugebauer, J. Pisarek, C. Plett, P. Pracht, F. Pultar,
   J. Seibert, P. Shushkov, S. Spicher, M. Stahn, M. Steiner, T. Strunk,
   J. Stückrath, T. Rose, and J. Unsleber
   
 * started run on 2024/11/07 at 15:51:58.912     

           -------------------------------------------------
          |                Calculation Setup                |
           -------------------------------------------------

          program call               : xtb opt_anion_Base2tBu.mol --gfn2 --sp --chrg -1 --uhf 0
          coordinate file            : opt_anion_Base2tBu.mol
          omp threads                :                     8

   ID    Z sym.   atoms
    1    6 C      1-9, 11, 12, 14-21, 23-31, 33, 34, 36-43, 47, 48, 50-73,
                  77, 81
    2    7 N      10, 13, 32, 35, 46, 49
    3    8 O      22, 44
    4    5 B      45
    5    1 H      74-76, 78-80, 82-151
########################################################################
[WARNING] Please study the warnings concerning your input carefully
-1- prog_main: Charge in sdf/mol input was overwritten
########################################################################

           -------------------------------------------------
          |                 G F N 2 - x T B                 |
           -------------------------------------------------

        Reference                      10.1021/acs.jctc.8b01176
      * Hamiltonian:
        H0-scaling (s, p, d)           1.850000    2.230000    2.230000
        zeta-weighting                 0.500000
      * Dispersion:
        s8                             2.700000
        a1                             0.520000
        a2                             5.000000
        s9                             5.000000
      * Repulsion:
        kExp                           1.500000    1.000000
        rExp                           1.000000
      * Coulomb:
        alpha                          2.000000
        third order                    shell-resolved
        anisotropic                    true
        a3                             3.000000
        a5                             4.000000
        cn-shift                       1.200000
        cn-exp                         4.000000
        max-rad                        5.000000

q/qsh data taken from xtbrestart
CAMM data taken from xtbrestart

          ...................................................
          :                      SETUP                      :
          :.................................................:
          :  # basis functions                 376          :
          :  # atomic orbitals                 376          :
          :  # shells                          226          :
          :  # electrons                       386          :
          :  max. iterations                   250          :
          :  Hamiltonian                  GFN2-xTB          :
          :  restarted?                       true          :
          :  GBSA solvation                  false          :
          :  PC potential                    false          :
          :  electronic temp.          300.0000000     K    :
          :  accuracy                    1.0000000          :
          :  -> integral cutoff          0.2500000E+02      :
          :  -> integral neglect         0.1000000E-07      :
          :  -> SCF convergence          0.1000000E-05 Eh   :
          :  -> wf. convergence          0.1000000E-03 e    :
          :  Broyden damping             0.4000000          :
          ...................................................

 iter      E             dE          RMSdq      gap      omega  full diag
   1   -210.7471449 -0.210747E+03  0.248E-01    0.04       0.0  T
   2   -210.5410414  0.206103E+00  0.883E-01    0.12       1.0  T
   3   -210.7391575 -0.198116E+00  0.282E-01    0.03       1.0  T
   4   -210.6154263  0.123731E+00  0.637E-01    0.19       1.0  T
   5   -210.7135311 -0.981048E-01  0.382E-01    0.07       1.0  T
   6   -210.6940075  0.195236E-01  0.482E-01    0.05       1.0  T
   7   -210.7366373 -0.426298E-01  0.294E-01    0.04       1.0  T
   8   -210.7526969 -0.160595E-01  0.154E-01    0.04       1.0  T
   9   -210.7560722 -0.337532E-02  0.937E-02    0.04       1.0  T
  10   -210.7571223 -0.105005E-02  0.726E-02    0.04       1.0  T
  11   -210.7584662 -0.134398E-02  0.339E-02    0.04       1.0  T
  12   -210.7587457 -0.279474E-03  0.171E-02    0.04       1.0  T
  13   -210.7588170 -0.712648E-04  0.606E-03    0.04       1.3  T
  14   -210.7588264 -0.943466E-05  0.172E-03    0.04       4.7  T
  15   -210.7588241  0.236018E-05  0.270E-03    0.04       3.0  T
  16   -210.7588261 -0.208240E-05  0.138E-03    0.04       5.9  T
  17   -210.7588268 -0.683595E-06  0.184E-04    0.04      44.1  T
  18   -210.7588268 -0.814742E-08  0.706E-05    0.04     115.2  T

   *** convergence criteria satisfied after 18 iterations ***

         #    Occupation            Energy/Eh            Energy/eV
      -------------------------------------------------------------
         1        2.0000           -0.5781729             -15.7329
       ...           ...                  ...                  ...
       187        2.0000           -0.2718720              -7.3980
       188        2.0000           -0.2678079              -7.2874
       189        2.0000           -0.2560699              -6.9680
       190        2.0000           -0.2553672              -6.9489
       191        2.0000           -0.2493135              -6.7842
       192        1.8088           -0.2403823              -6.5411
       193        1.4240           -0.2391073              -6.5064 (HOMO)
       194        0.7672           -0.2377969              -6.4708 (LUMO)
       195                         -0.1763876              -4.7998
       196                         -0.1732309              -4.7139
       197                         -0.1368932              -3.7251
       198                         -0.1340859              -3.6487
       ...                                ...                  ...
       376                          0.8034755              21.8637
      -------------------------------------------------------------
                  HL-Gap            0.0013105 Eh            0.0357 eV
             Fermi-level           -0.2382474 Eh           -6.4830 eV

 SCC (total)                   0 d,  0 h,  0 min,  1.943 sec
 SCC setup                      ...        0 min,  0.001 sec (  0.028%)
 Dispersion                     ...        0 min,  0.002 sec (  0.098%)
 classical contributions        ...        0 min,  0.001 sec (  0.028%)
 integral evaluation            ...        0 min,  0.008 sec (  0.434%)
 iterations                     ...        0 min,  1.857 sec ( 95.596%)
 molecular gradient             ...        0 min,  0.073 sec (  3.734%)
 printout                       ...        0 min,  0.002 sec (  0.081%)

         :::::::::::::::::::::::::::::::::::::::::::::::::::::
         ::                     SUMMARY                     ::
         :::::::::::::::::::::::::::::::::::::::::::::::::::::
         :: total energy            -207.501847533270 Eh    ::
         :: gradient norm              0.000531438219 Eh/a0 ::
         :: HOMO-LUMO gap              0.035659316265 eV    ::
         ::.................................................::
         :: SCC energy              -210.758826827050 Eh    ::
         :: -> isotropic ES            0.214875984109 Eh    ::
         :: -> anisotropic ES          0.045378937156 Eh    ::
         :: -> anisotropic XC          0.111924252714 Eh    ::
         :: -> dispersion             -0.223989539244 Eh    ::
         :: repulsion energy           3.249695005867 Eh    ::
         :: add. restraining           0.000000000000 Eh    ::
         :: total charge              -0.999988909199 e     ::
         :::::::::::::::::::::::::::::::::::::::::::::::::::::

           -------------------------------------------------
          |                Property Printout                |
           -------------------------------------------------

    * Orbital Energies and Occupations

         #    Occupation            Energy/Eh            Energy/eV
      -------------------------------------------------------------
         1        2.0000           -0.5781729             -15.7329
       ...           ...                  ...                  ...
       181        2.0000           -0.2977216              -8.1014
       182        2.0000           -0.2970617              -8.0835
       183        2.0000           -0.2926696              -7.9639
       184        2.0000           -0.2810927              -7.6489
       185        2.0000           -0.2734447              -7.4408
       186        2.0000           -0.2728996              -7.4260
       187        2.0000           -0.2718720              -7.3980
       188        2.0000           -0.2678079              -7.2874
       189        2.0000           -0.2560699              -6.9680
       190        2.0000           -0.2553672              -6.9489
       191        2.0000           -0.2493135              -6.7842
       192        1.8088           -0.2403823              -6.5411
       193        1.4240           -0.2391073              -6.5064 (HOMO)
       194        0.7672           -0.2377969              -6.4708 (LUMO)
       195                         -0.1763876              -4.7998
       196                         -0.1732309              -4.7139
       197                         -0.1368932              -3.7251
       198                         -0.1340859              -3.6487
       199                         -0.1330420              -3.6203
       200                         -0.1322529              -3.5988
       201                         -0.1215949              -3.3088
       202                         -0.1170167              -3.1842
       203                         -0.1015182              -2.7624
       204                         -0.0973747              -2.6497
       ...                                ...                  ...
       376                          0.8034755              21.8637
      -------------------------------------------------------------
                  HL-Gap            0.0013105 Eh            0.0357 eV
             Fermi-level           -0.2382474 Eh           -6.4830 eV

     #   Z          covCN         q      C6AA      α(0)
     1   6 C        2.930    -0.072    29.783     8.950
     2   6 C        2.850     0.159    24.558     8.122
     3   6 C        2.975    -0.046    29.139     8.855
     4   6 C        2.967     0.085    26.111     8.382
     5   6 C        2.940    -0.070    29.738     8.944
     6   6 C        2.968     0.004    27.927     8.668
     7   6 C        2.972     0.027    27.394     8.585
     8   6 C        2.999    -0.036    28.872     8.814
     9   6 C        2.961     0.086    26.076     8.376
    10   7 N        1.860    -0.285    28.244     7.877
    11   6 C        2.973    -0.029    28.710     8.789
    12   6 C        2.968     0.087    26.053     8.372
    13   7 N        1.862    -0.282    28.178     7.868
    14   6 C        2.957     0.085    26.102     8.380
    15   6 C        2.930    -0.061    29.522     8.911
    16   6 C        2.966     0.002    27.980     8.676
    17   6 C        2.929    -0.064    29.597     8.922
    18   6 C        2.913     0.090    26.000     8.361
    19   6 C        2.938    -0.061    29.528     8.912
    20   6 C        2.966     0.001    28.001     8.680
    21   6 C        2.948    -0.063    29.556     8.917
    22   8 O        1.639    -0.396    20.776     6.153
    23   6 C        2.928    -0.074    29.858     8.961
    24   6 C        2.853     0.156    24.610     8.131
    25   6 C        2.979    -0.044    29.089     8.847
    26   6 C        2.976     0.086    26.091     8.379
    27   6 C        2.946    -0.066    29.645     8.930
    28   6 C        2.967     0.000    28.022     8.683
    29   6 C        2.969     0.034    27.245     8.562
    30   6 C        2.999    -0.034    28.826     8.807
    31   6 C        2.970     0.086    26.089     8.378
    32   7 N        1.864    -0.286    28.272     7.881
    33   6 C        2.967    -0.029    28.719     8.790
    34   6 C        2.968     0.088    26.035     8.369
    35   7 N        1.878    -0.280    28.117     7.860
    36   6 C        2.962     0.087    26.071     8.375
    37   6 C        2.933    -0.059    29.466     8.902
    38   6 C        2.966     0.002    27.983     8.677
    39   6 C        2.932    -0.062    29.546     8.914
    40   6 C        2.905     0.086    26.077     8.373
    41   6 C        2.940    -0.064    29.599     8.923
    42   6 C        2.967     0.002    27.985     8.677
    43   6 C        2.961    -0.060    29.490     8.907
    44   8 O        1.638    -0.393    20.731     6.146
    45   5 B        3.260     0.492    14.585     6.369
    46   7 N        2.662    -0.243    26.342     7.623
    47   6 C        3.750    -0.101    22.497     6.764
    48   6 C        3.748     0.025    20.220     6.413
    49   7 N        2.659    -0.246    26.405     7.632
    50   6 C        3.751    -0.099    22.459     6.758
    51   6 C        3.748     0.019    20.313     6.428
    52   6 C        3.903     0.025    20.095     6.372
    53   6 C        3.761    -0.105    22.548     6.769
    54   6 C        3.762    -0.103    22.517     6.764
    55   6 C        3.761    -0.103    22.515     6.764
    56   6 C        3.902     0.026    20.077     6.369
    57   6 C        3.766    -0.099    22.439     6.752
    58   6 C        3.760    -0.106    22.582     6.775
    59   6 C        3.760    -0.106    22.576     6.774
    60   6 C        3.903     0.026    20.078     6.369
    61   6 C        3.762    -0.104    22.531     6.766
    62   6 C        3.761    -0.099    22.437     6.752
    63   6 C        3.761    -0.104    22.532     6.767
    64   6 C        3.903     0.026    20.077     6.369
    65   6 C        3.761    -0.102    22.499     6.762
    66   6 C        3.762    -0.104    22.528     6.766
    67   6 C        3.761    -0.104    22.534     6.767
    68   6 C        3.903     0.025    20.096     6.372
    69   6 C        3.761    -0.105    22.547     6.769
    70   6 C        3.762    -0.103    22.507     6.763
    71   6 C        3.762    -0.103    22.513     6.764
    72   6 C        3.903     0.027    20.072     6.368
    73   6 C        3.764    -0.102    22.483     6.759
    74   1 H        0.925     0.029     2.597     2.520
    75   1 H        0.925     0.030     2.590     2.517
    76   1 H        0.925     0.036     2.500     2.472
    77   6 C        3.760    -0.105    22.561     6.771
    78   1 H        0.925     0.033     2.539     2.492
    79   1 H        0.925     0.025     2.653     2.547
    80   1 H        0.925     0.040     2.446     2.446
    81   6 C        3.759    -0.105    22.550     6.770
    82   1 H        0.925     0.036     2.500     2.473
    83   1 H        0.925     0.044     2.398     2.421
    84   1 H        0.925     0.026     2.645     2.543
    85   1 H        0.925     0.036     2.509     2.477
    86   1 H        0.925     0.035     2.513     2.479
    87   1 H        0.925     0.026     2.642     2.542
    88   1 H        0.925     0.032     2.564     2.504
    89   1 H        0.925     0.027     2.631     2.537
    90   1 H        0.925     0.037     2.487     2.466
    91   1 H        0.925     0.033     2.549     2.497
    92   1 H        0.925     0.048     2.348     2.396
    93   1 H        0.925     0.026     2.642     2.542
    94   1 H        0.925     0.034     2.532     2.488
    95   1 H        0.925     0.026     2.650     2.546
    96   1 H        0.925     0.042     2.426     2.436
    97   1 H        0.925     0.033     2.548     2.496
    98   1 H        0.925     0.028     2.612     2.528
    99   1 H        0.925     0.030     2.592     2.518
   100   1 H        0.925     0.031     2.572     2.508
   101   1 H        0.925     0.038     2.480     2.463
   102   1 H        0.925     0.027     2.627     2.534
   103   1 H        0.925     0.032     2.562     2.503
   104   1 H        0.925     0.027     2.628     2.535
   105   1 H        0.925     0.038     2.476     2.461
   106   1 H        0.925     0.036     2.507     2.476
   107   1 H        0.925     0.035     2.518     2.481
   108   1 H        0.925     0.026     2.638     2.540
   109   1 H        0.925     0.031     2.566     2.505
   110   1 H        0.925     0.026     2.645     2.543
   111   1 H        0.925     0.037     2.495     2.470
   112   1 H        0.925     0.038     2.477     2.461
   113   1 H        0.925     0.033     2.550     2.497
   114   1 H        0.925     0.028     2.618     2.530
   115   1 H        0.925     0.032     2.565     2.505
   116   1 H        0.925     0.038     2.481     2.463
   117   1 H        0.925     0.028     2.614     2.528
   118   1 H        0.925     0.031     2.572     2.508
   119   1 H        0.925     0.037     2.485     2.465
   120   1 H        0.925     0.027     2.636     2.539
   121   1 H        0.926     0.040     2.447     2.446
   122   1 H        0.926     0.031     2.574     2.509
   123   1 H        0.926     0.041     2.433     2.439
   124   1 H        0.926     0.035     2.514     2.479
   125   1 H        0.926     0.042     2.423     2.434
   126   1 H        0.926     0.037     2.491     2.468
   127   1 H        0.926     0.041     2.438     2.442
   128   1 H        0.926     0.039     2.461     2.453
   129   1 H        0.926     0.037     2.489     2.467
   130   1 H        0.926     0.039     2.462     2.454
   131   1 H        0.926     0.041     2.439     2.442
   132   1 H        0.926     0.034     2.532     2.488
   133   1 H        0.925     0.037     2.492     2.469
   134   1 H        0.925     0.027     2.635     2.538
   135   1 H        0.925     0.034     2.533     2.489
   136   1 H        0.925     0.037     2.495     2.470
   137   1 H        0.925     0.038     2.482     2.463
   138   1 H        0.925     0.026     2.648     2.545
   139   1 H        0.925     0.036     2.505     2.475
   140   1 H        0.925     0.030     2.585     2.514
   141   1 H        0.925     0.028     2.612     2.528
   142   1 H        0.925     0.049     2.336     2.390
   143   1 H        0.923     0.013     2.849     2.640
   144   1 H        0.925     0.035     2.520     2.483
   145   1 H        0.925     0.027     2.636     2.539
   146   1 H        0.925     0.033     2.538     2.491
   147   1 H        0.924     0.033     2.538     2.491
   148   1 H        0.924     0.024     2.670     2.555
   149   1 H        0.925     0.033     2.539     2.492
   150   1 H        0.925     0.028     2.621     2.532
   151   1 H        0.925     0.036     2.499     2.472

 Mol. C6AA /au·bohr⁶  :     246373.945685
 Mol. C8AA /au·bohr⁸  :    5824926.100866
 Mol. α(0) /au        :        770.466392


Wiberg/Mayer (AO) data.
largest (>0.10) Wiberg bond orders for each atom

 ---------------------------------------------------------------------------
     #   Z sym  total        # sym  WBO       # sym  WBO       # sym  WBO
 ---------------------------------------------------------------------------
     1   6 C    3.915 --     2 C    1.401     6 C    1.334   125 H    0.963
     2   6 C    3.938 --     1 C    1.401     3 C    1.237    22 O    1.113
     3   6 C    3.942 --     2 C    1.237     7 C    1.221     4 C    1.210
     4   6 C    3.974 --    10 N    1.330     5 C    1.254     3 C    1.210
     5   6 C    3.927 --     6 C    1.494     4 C    1.254   123 H    0.962
     6   6 C    3.973 --     5 C    1.494     1 C    1.334    72 C    0.982
     7   6 C    3.981 --     8 C    1.315     3 C    1.221    11 C    1.203
     8   6 C    3.975 --     7 C    1.315     9 C    1.194    14 C    1.191
     9   6 C    3.977 --    10 N    1.352    17 C    1.256     8 C    1.194
    10   7 N    2.907 --     9 C    1.352     4 C    1.330
    11   6 C    3.925 --    18 C    1.257     7 C    1.203    12 C    1.195
    12   6 C    3.970 --    13 N    1.344    21 C    1.251    11 C    1.195
    13   7 N    2.912 --    12 C    1.344    14 C    1.331
    14   6 C    3.976 --    13 N    1.331    15 C    1.281     8 C    1.191
    15   6 C    3.804 --    16 C    1.405    14 C    1.281   122 H    0.963
    16   6 C    3.975 --    17 C    1.439    15 C    1.405    68 C    0.979
    17   6 C    3.814 --    16 C    1.439     9 C    1.256   121 H    0.964
    18   6 C    3.958 --    19 C    1.386    11 C    1.257    46 N    1.123
    19   6 C    3.879 --    18 C    1.386    20 C    1.352   126 H    0.955
    20   6 C    3.974 --    21 C    1.480    19 C    1.352    64 C    0.980
    21   6 C    3.889 --    20 C    1.480    12 C    1.251   124 H    0.962
    22   8 O    2.156 --     2 C    1.113    45 B    0.805
    23   6 C    3.905 --    24 C    1.375    28 C    1.350   127 H    0.959
    24   6 C    3.940 --    23 C    1.375    25 C    1.268    44 O    1.104
    25   6 C    3.942 --    24 C    1.268    26 C    1.207    29 C    1.191
    26   6 C    3.972 --    32 N    1.335    27 C    1.254    25 C    1.207
    27   6 C    3.915 --    28 C    1.488    26 C    1.254   129 H    0.962
    28   6 C    3.975 --    27 C    1.488    23 C    1.350    60 C    0.979
    29   6 C    3.981 --    30 C    1.311    33 C    1.227    25 C    1.191
    30   6 C    3.977 --    29 C    1.311    31 C    1.200    36 C    1.195
    31   6 C    3.977 --    32 N    1.334    39 C    1.268    30 C    1.200
    32   7 N    2.886 --    26 C    1.335    31 C    1.334
    33   6 C    3.943 --    40 C    1.240    29 C    1.227    34 C    1.207
    34   6 C    3.970 --    35 N    1.331    43 C    1.254    33 C    1.207
    35   7 N    2.906 --    36 C    1.344    34 C    1.331
    36   6 C    3.978 --    35 N    1.344    37 C    1.266    30 C    1.195
    37   6 C    3.806 --    38 C    1.419    36 C    1.266   132 H    0.963
    38   6 C    3.975 --    39 C    1.426    37 C    1.419    52 C    0.979
    39   6 C    3.812 --    38 C    1.426    31 C    1.268   131 H    0.964
    40   6 C    3.956 --    41 C    1.359    33 C    1.240    49 N    1.172
    41   6 C    3.869 --    40 C    1.359    42 C    1.355   128 H    0.952
    42   6 C    3.973 --    43 C    1.474    41 C    1.355    56 C    0.979
    43   6 C    3.888 --    42 C    1.474    34 C    1.254   130 H    0.962
    44   8 O    2.153 --    24 C    1.104    45 B    0.810
    45   5 B    3.393 --    46 N    0.820    44 O    0.810    22 O    0.805
                            49 N    0.803
    46   7 N    3.185 --    18 C    1.123    48 C    1.007    45 B    0.820
    47   6 C    3.988 --    48 C    1.004   150 H    0.987   151 H    0.986
                           149 H    0.983
    48   6 C    3.979 --    46 N    1.007    47 C    1.004   147 H    0.971
                           148 H    0.945
    49   7 N    3.220 --    40 C    1.172    51 C    1.006    45 B    0.803
    50   6 C    3.992 --    51 C    1.009   144 H    0.988   145 H    0.987
                           146 H    0.983
    51   6 C    3.978 --    50 C    1.009    49 N    1.006   142 H    0.957
                           143 H    0.950
    52   6 C    3.990 --    53 C    1.000    55 C    0.989    54 C    0.989
                            38 C    0.979
    53   6 C    3.997 --    52 C    1.000   108 H    0.985   106 H    0.985
                           107 H    0.985
    54   6 C    3.995 --    52 C    0.989   103 H    0.987   104 H    0.985
                           105 H    0.984
    55   6 C    3.995 --    52 C    0.989   100 H    0.987   102 H    0.985
                           101 H    0.984
    56   6 C    3.989 --    59 C    0.999    58 C    0.995    57 C    0.981
                            42 C    0.979
    57   6 C    3.994 --    98 H    0.986    97 H    0.986    99 H    0.985
                            56 C    0.981
    58   6 C    3.996 --    56 C    0.995    95 H    0.985    94 H    0.982
                            96 H    0.979
    59   6 C    3.994 --    56 C    0.999    93 H    0.985    91 H    0.983
                            92 H    0.974
    60   6 C    3.990 --    62 C    1.000    61 C    0.989    63 C    0.988
                            28 C    0.979
    61   6 C    3.996 --    60 C    0.989   115 H    0.987   117 H    0.985
                           116 H    0.984
    62   6 C    3.997 --    60 C    1.000   110 H    0.985   111 H    0.984
                           109 H    0.980
    63   6 C    3.995 --    60 C    0.988   113 H    0.987   114 H    0.985
                           112 H    0.984
    64   6 C    3.990 --    67 C    1.000    66 C    0.990    65 C    0.987
                            20 C    0.980
    65   6 C    3.996 --    64 C    0.987   140 H    0.987   141 H    0.985
                           139 H    0.985
    66   6 C    3.995 --    64 C    0.990   135 H    0.987   134 H    0.985
                           133 H    0.983
    67   6 C    3.996 --    64 C    1.000   137 H    0.985   138 H    0.985
                           136 H    0.981
    68   6 C    3.990 --    69 C    1.000    71 C    0.990    70 C    0.988
                            16 C    0.979
    69   6 C    3.997 --    68 C    1.000    86 H    0.985    87 H    0.985
                            85 H    0.984
    70   6 C    3.995 --    68 C    0.988    88 H    0.987    89 H    0.985
                            90 H    0.984
    71   6 C    3.995 --    68 C    0.990   118 H    0.987   120 H    0.985
                           119 H    0.983
    72   6 C    3.990 --    77 C    0.999    81 C    0.992    73 C    0.983
                             6 C    0.982
    73   6 C    3.994 --    75 H    0.987    76 H    0.986    74 H    0.985
                            72 C    0.983
    74   1 H    0.998 --    73 C    0.985
    75   1 H    0.999 --    73 C    0.987
    76   1 H    0.999 --    73 C    0.986
    77   6 C    3.996 --    72 C    0.999    79 H    0.985    78 H    0.984
                            80 H    0.980
    78   1 H    0.999 --    77 C    0.984
    79   1 H    0.999 --    77 C    0.985
    80   1 H    0.998 --    77 C    0.980
    81   6 C    3.994 --    72 C    0.992    84 H    0.985    82 H    0.983
                            83 H    0.979
    82   1 H    0.999 --    81 C    0.983
    83   1 H    0.998 --    81 C    0.979
    84   1 H    0.999 --    81 C    0.985
    85   1 H    0.999 --    69 C    0.984
    86   1 H    0.999 --    69 C    0.985
    87   1 H    0.999 --    69 C    0.985
    88   1 H    0.999 --    70 C    0.987
    89   1 H    0.998 --    70 C    0.985
    90   1 H    0.999 --    70 C    0.984
    91   1 H    0.999 --    59 C    0.983
    92   1 H    0.998 --    59 C    0.974
    93   1 H    0.999 --    59 C    0.985
    94   1 H    0.999 --    58 C    0.982
    95   1 H    0.999 --    58 C    0.985
    96   1 H    0.998 --    58 C    0.979
    97   1 H    0.999 --    57 C    0.986
    98   1 H    0.999 --    57 C    0.986
    99   1 H    0.998 --    57 C    0.985
   100   1 H    0.999 --    55 C    0.987
   101   1 H    0.999 --    55 C    0.984
   102   1 H    0.998 --    55 C    0.985
   103   1 H    0.999 --    54 C    0.987
   104   1 H    0.998 --    54 C    0.985
   105   1 H    0.999 --    54 C    0.984
   106   1 H    0.999 --    53 C    0.985
   107   1 H    0.999 --    53 C    0.985
   108   1 H    0.999 --    53 C    0.985
   109   1 H    0.999 --    62 C    0.980
   110   1 H    0.999 --    62 C    0.985
   111   1 H    0.999 --    62 C    0.984
   112   1 H    0.999 --    63 C    0.984
   113   1 H    0.999 --    63 C    0.987
   114   1 H    0.998 --    63 C    0.985
   115   1 H    0.999 --    61 C    0.987
   116   1 H    0.999 --    61 C    0.984
   117   1 H    0.998 --    61 C    0.985
   118   1 H    0.999 --    71 C    0.987
   119   1 H    0.999 --    71 C    0.983
   120   1 H    0.998 --    71 C    0.985
   121   1 H    0.998 --    17 C    0.964
   122   1 H    0.998 --    15 C    0.963
   123   1 H    0.998 --     5 C    0.962
   124   1 H    0.998 --    21 C    0.962
   125   1 H    0.998 --     1 C    0.963
   126   1 H    0.998 --    19 C    0.955
   127   1 H    0.998 --    23 C    0.959
   128   1 H    0.998 --    41 C    0.952
   129   1 H    0.998 --    27 C    0.962
   130   1 H    0.998 --    43 C    0.962
   131   1 H    0.998 --    39 C    0.964
   132   1 H    0.998 --    37 C    0.963
   133   1 H    0.999 --    66 C    0.983
   134   1 H    0.998 --    66 C    0.985
   135   1 H    0.999 --    66 C    0.987
   136   1 H    0.999 --    67 C    0.981
   137   1 H    0.999 --    67 C    0.985
   138   1 H    0.999 --    67 C    0.985
   139   1 H    0.999 --    65 C    0.985
   140   1 H    0.999 --    65 C    0.987
   141   1 H    0.998 --    65 C    0.985
   142   1 H    0.996 --    51 C    0.957
   143   1 H    0.991 --    51 C    0.950
   144   1 H    0.999 --    50 C    0.988
   145   1 H    0.999 --    50 C    0.987
   146   1 H    0.998 --    50 C    0.983
   147   1 H    0.998 --    48 C    0.971
   148   1 H    0.987 --    48 C    0.945
   149   1 H    0.998 --    47 C    0.983
   150   1 H    0.999 --    47 C    0.987
   151   1 H    0.999 --    47 C    0.986
 ---------------------------------------------------------------------------

Topologies differ in bond orders
Writing corrected topology to xtbtopo.mol

Note: The following floating-point exceptions are signalling: IEEE_UNDERFLOW_FLAG
normal termination of xtb
molecular dipole:
                 x           y           z       tot (Debye)
 q only:        0.133       0.024      -0.749
   full:        0.061      -0.206      -0.581       1.574
molecular quadrupole (traceless):
                xx          xy          yy          xz          yz          zz
 q only:      -37.336      33.761       6.631     -17.588      12.248      30.705
  q+dip:      -38.921      37.265      11.150     -22.962      10.599      27.772
   full:      -43.792      36.384       4.276     -23.241      11.915      39.516


           -------------------------------------------------
          | TOTAL ENERGY             -207.501847533270 Eh   |
          | GRADIENT NORM               0.000531438219 Eh/α |
          | HOMO-LUMO GAP               0.035659316265 eV   |
           -------------------------------------------------
########################################################################
[WARNING] Runtime exception occurred
-2- restart_readRestart: Multiplicity missmatch in restart file.
-1- restart_readRestart: Number of electron missmatch in restart file.
########################################################################

------------------------------------------------------------------------
 * finished run on 2024/11/07 at 15:52:00.875     
------------------------------------------------------------------------
 total:
 * wall-time:     0 d,  0 h,  0 min,  1.962 sec
 *  cpu-time:     0 d,  0 h,  0 min,  7.485 sec
 * ratio c/w:     3.815 speedup
 SCF:
 * wall-time:     0 d,  0 h,  0 min,  1.943 sec
 *  cpu-time:     0 d,  0 h,  0 min,  7.441 sec
 * ratio c/w:     3.829 speedup

