      -----------------------------------------------------------      
     |                   =====================                   |     
     |                           x T B                           |     
     |                   =====================                   |     
     |                         S. Grimme                         |     
     |          Mulliken Center for Theoretical Chemistry        |     
     |                    University of Bonn                     |     
      -----------------------------------------------------------      

   * xtb version 6.6.1 (8d0f1dd) compiled by 'runner@Mac-1690902418499.local' on 2023-08-01

   xtb is free software: you can redistribute it and/or modify it under
   the terms of the GNU Lesser General Public License as published by
   the Free Software Foundation, either version 3 of the License, or
   (at your option) any later version.
   
   xtb is distributed in the hope that it will be useful,
   but WITHOUT ANY WARRANTY; without even the implied warranty of
   MERCHANTABILITY or FITNESS FOR A PARTICULAR PURPOSE.  See the
   GNU Lesser General Public License for more details.
   
   Cite this work as:
   * C. Bannwarth, E. Caldeweyher, S. Ehlert, A. Hansen, P. Pracht,
     J. Seibert, S. Spicher, S. Grimme, WIREs Comput. Mol. Sci., 2020, 11,
     e01493. DOI: 10.1002/wcms.1493
   
   for GFN2-xTB:
   * C. Bannwarth, S. Ehlert and S. Grimme., J. Chem. Theory Comput., 2019,
     15, 1652-1671. DOI: 10.1021/acs.jctc.8b01176
   for GFN1-xTB:
   * S. Grimme, C. Bannwarth, P. Shushkov, J. Chem. Theory Comput., 2017,
     13, 1989-2009. DOI: 10.1021/acs.jctc.7b00118
   for GFN0-xTB:
   * P. Pracht, E. Caldeweyher, S. Ehlert, S. Grimme, ChemRxiv, 2019, preprint.
     DOI: 10.26434/chemrxiv.8326202.v1
   for GFN-FF:
   * S. Spicher and S. Grimme, Angew. Chem. Int. Ed., 2020, 59, 15665-15673.
     DOI: 10.1002/anie.202004239
   
   for ALPB and GBSA implicit solvation:
   * S. Ehlert, M. Stahn, S. Spicher, S. Grimme, J. Chem. Theory Comput.,
     2021, 17, 4250-4261. DOI: 10.1021/acs.jctc.1c00471
   
   for DFT-D4:
   * E. Caldeweyher, C. Bannwarth and S. Grimme, J. Chem. Phys., 2017,
     147, 034112. DOI: 10.1063/1.4993215
   * E. Caldeweyher, S. Ehlert, A. Hansen, H. Neugebauer, S. Spicher,
     C. Bannwarth and S. Grimme, J. Chem. Phys., 2019, 150, 154122.
     DOI: 10.1063/1.5090222
   * E. Caldeweyher, J.-M. Mewes, S. Ehlert and S. Grimme, Phys. Chem. Chem. Phys.
     2020, 22, 8499-8512. DOI: 10.1039/D0CP00502A
   
   for sTDA-xTB:
   * S. Grimme and C. Bannwarth, J. Chem. Phys., 2016, 145, 054103.
     DOI: 10.1063/1.4959605
   
   in the mass-spec context:
   * V. Asgeirsson, C. Bauer and S. Grimme, Chem. Sci., 2017, 8, 4879.
     DOI: 10.1039/c7sc00601b
   * J. Koopman and S. Grimme, ACS Omega 2019, 4, 12, 15120-15133.
     DOI: 10.1021/acsomega.9b02011
   
   for metadynamics refer to:
   * S. Grimme, J. Chem. Theory Comput., 2019, 155, 2847-2862
     DOI: 10.1021/acs.jctc.9b00143
   
   for SPH calculations refer to:
   * S. Spicher and S. Grimme, J. Chem. Theory Comput., 2021, 17, 1701-1714
     DOI: 10.1021/acs.jctc.0c01306
   
   with help from (in alphabetical order)
   P. Atkinson, C. Bannwarth, F. Bohle, G. Brandenburg, E. Caldeweyher
   M. Checinski, S. Dohm, S. Ehlert, S. Ehrlich, I. Gerasimov, C. Hölzer
   A. Katbashev, J. Koopman, C. Lavigne, S. Lehtola, F. März, M. Müller,
   F. Musil, H. Neugebauer, J. Pisarek, C. Plett, P. Pracht, F. Pultar,
   J. Seibert, P. Shushkov, S. Spicher, M. Stahn, M. Steiner, T. Strunk,
   J. Stückrath, T. Rose, and J. Unsleber
   
 * started run on 2024/11/07 at 15:52:02.655     

           -------------------------------------------------
          |                Calculation Setup                |
           -------------------------------------------------

          program call               : xtb opt_radical_Base2tBu.mol --gfn2 --sp --chrg -1 --uhf 1
          coordinate file            : opt_radical_Base2tBu.mol
          omp threads                :                     8

   ID    Z sym.   atoms
    1    6 C      1-9, 11, 12, 14-21, 23-31, 33, 34, 36-43, 47, 48, 50-73,
                  77, 81
    2    7 N      10, 13, 32, 35, 46, 49
    3    8 O      22, 44
    4    5 B      45
    5    1 H      74-76, 78-80, 82-151

           -------------------------------------------------
          |                 G F N 2 - x T B                 |
           -------------------------------------------------

        Reference                      10.1021/acs.jctc.8b01176
      * Hamiltonian:
        H0-scaling (s, p, d)           1.850000    2.230000    2.230000
        zeta-weighting                 0.500000
      * Dispersion:
        s8                             2.700000
        a1                             0.520000
        a2                             5.000000
        s9                             5.000000
      * Repulsion:
        kExp                           1.500000    1.000000
        rExp                           1.000000
      * Coulomb:
        alpha                          2.000000
        third order                    shell-resolved
        anisotropic                    true
        a3                             3.000000
        a5                             4.000000
        cn-shift                       1.200000
        cn-exp                         4.000000
        max-rad                        5.000000

q/qsh data taken from xtbrestart
CAMM data taken from xtbrestart

          ...................................................
          :                      SETUP                      :
          :.................................................:
          :  # basis functions                 376          :
          :  # atomic orbitals                 376          :
          :  # shells                          226          :
          :  # electrons                       386          :
          :  max. iterations                   250          :
          :  Hamiltonian                  GFN2-xTB          :
          :  restarted?                       true          :
          :  GBSA solvation                  false          :
          :  PC potential                    false          :
          :  electronic temp.          300.0000000     K    :
          :  accuracy                    1.0000000          :
          :  -> integral cutoff          0.2500000E+02      :
          :  -> integral neglect         0.1000000E-07      :
          :  -> SCF convergence          0.1000000E-05 Eh   :
          :  -> wf. convergence          0.1000000E-03 e    :
          :  Broyden damping             0.4000000          :
          ...................................................

 iter      E             dE          RMSdq      gap      omega  full diag
   1   -210.7530961 -0.210753E+03  0.278E-01    0.05       0.0  T
   2   -210.7268312  0.262649E-01  0.369E-01    0.05       1.0  T
   3   -210.6135387  0.113293E+00  0.654E-01    0.22       1.0  T
   4   -210.6006392  0.128995E-01  0.744E-01    0.13       1.0  T
   5   -210.7435135 -0.142874E+00  0.264E-01    0.05       1.0  T
   6   -210.6968045  0.467090E-01  0.491E-01    0.05       1.0  T
   7   -210.7558665 -0.590620E-01  0.197E-01    0.04       1.0  T
   8   -210.7615557 -0.568920E-02  0.102E-01    0.04       1.0  T
   9   -210.7634679 -0.191220E-02  0.615E-02    0.04       1.0  T
  10   -210.7642888 -0.820952E-03  0.231E-02    0.04       1.0  T
  11   -210.7643206 -0.317222E-04  0.188E-02    0.04       1.0  T
  12   -210.7644018 -0.812740E-04  0.678E-03    0.04       1.2  T
  13   -210.7644116 -0.980474E-05  0.195E-03    0.04       4.2  T
  14   -210.7644124 -0.767151E-06  0.833E-04    0.04       9.8  T
  15   -210.7644124 -0.207965E-07  0.614E-04    0.04      13.2  T

   *** convergence criteria satisfied after 15 iterations ***

         #    Occupation            Energy/Eh            Energy/eV
      -------------------------------------------------------------
         1        2.0000           -0.5787532             -15.7487
       ...           ...                  ...                  ...
       187        2.0000           -0.2713009              -7.3825
       188        2.0000           -0.2674456              -7.2776
       189        2.0000           -0.2549365              -6.9372
       190        2.0000           -0.2541994              -6.9171
       191        2.0000           -0.2485083              -6.7623
       192        1.8081           -0.2393228              -6.5123
       193        1.4463           -0.2381039              -6.4791 (HOMO)
       194        0.7456           -0.2366974              -6.4409 (LUMO)
       195                         -0.1755472              -4.7769
       196                         -0.1721651              -4.6849
       197                         -0.1364719              -3.7136
       198                         -0.1335721              -3.6347
       ...                                ...                  ...
       376                          0.8061198              21.9356
      -------------------------------------------------------------
                  HL-Gap            0.0014066 Eh            0.0383 eV
             Fermi-level           -0.2371917 Eh           -6.4543 eV

 SCC (total)                   0 d,  0 h,  0 min,  1.907 sec
 SCC setup                      ...        0 min,  0.000 sec (  0.025%)
 Dispersion                     ...        0 min,  0.002 sec (  0.107%)
 classical contributions        ...        0 min,  0.000 sec (  0.023%)
 integral evaluation            ...        0 min,  0.009 sec (  0.449%)
 iterations                     ...        0 min,  1.802 sec ( 94.469%)
 molecular gradient             ...        0 min,  0.075 sec (  3.920%)
 printout                       ...        0 min,  0.019 sec (  1.007%)

         :::::::::::::::::::::::::::::::::::::::::::::::::::::
         ::                     SUMMARY                     ::
         :::::::::::::::::::::::::::::::::::::::::::::::::::::
         :: total energy            -207.501351887649 Eh    ::
         :: gradient norm              0.016245005066 Eh/a0 ::
         :: HOMO-LUMO gap              0.038275000672 eV    ::
         ::.................................................::
         :: SCC energy              -210.764412430372 Eh    ::
         :: -> isotropic ES            0.214425898793 Eh    ::
         :: -> anisotropic ES          0.045334253669 Eh    ::
         :: -> anisotropic XC          0.111650399599 Eh    ::
         :: -> dispersion             -0.223851477458 Eh    ::
         :: repulsion energy           3.255804516914 Eh    ::
         :: add. restraining           0.000000000000 Eh    ::
         :: total charge              -1.000037975286 e     ::
         :::::::::::::::::::::::::::::::::::::::::::::::::::::

           -------------------------------------------------
          |                Property Printout                |
           -------------------------------------------------

    * Orbital Energies and Occupations

         #    Occupation            Energy/Eh            Energy/eV
      -------------------------------------------------------------
         1        2.0000           -0.5787532             -15.7487
       ...           ...                  ...                  ...
       181        2.0000           -0.2969914              -8.0815
       182        2.0000           -0.2967586              -8.0752
       183        2.0000           -0.2924369              -7.9576
       184        2.0000           -0.2803439              -7.6285
       185        2.0000           -0.2727870              -7.4229
       186        2.0000           -0.2719621              -7.4005
       187        2.0000           -0.2713009              -7.3825
       188        2.0000           -0.2674456              -7.2776
       189        2.0000           -0.2549365              -6.9372
       190        2.0000           -0.2541994              -6.9171
       191        2.0000           -0.2485083              -6.7623
       192        1.8081           -0.2393228              -6.5123
       193        1.4463           -0.2381039              -6.4791 (HOMO)
       194        0.7456           -0.2366974              -6.4409 (LUMO)
       195                         -0.1755472              -4.7769
       196                         -0.1721651              -4.6849
       197                         -0.1364719              -3.7136
       198                         -0.1335721              -3.6347
       199                         -0.1329863              -3.6187
       200                         -0.1317067              -3.5839
       201                         -0.1208507              -3.2885
       202                         -0.1163190              -3.1652
       203                         -0.1011931              -2.7536
       204                         -0.0963188              -2.6210
       ...                                ...                  ...
       376                          0.8061198              21.9356
      -------------------------------------------------------------
                  HL-Gap            0.0014066 Eh            0.0383 eV
             Fermi-level           -0.2371917 Eh           -6.4543 eV

     #   Z          covCN         q      C6AA      α(0)
     1   6 C        2.930    -0.072    29.798     8.952
     2   6 C        2.850     0.159    24.555     8.122
     3   6 C        2.975    -0.047    29.156     8.857
     4   6 C        2.967     0.085    26.106     8.381
     5   6 C        2.940    -0.070    29.748     8.945
     6   6 C        2.968     0.004    27.928     8.668
     7   6 C        2.971     0.027    27.396     8.586
     8   6 C        3.000    -0.036    28.875     8.815
     9   6 C        2.962     0.086    26.077     8.376
    10   7 N        1.861    -0.285    28.233     7.876
    11   6 C        2.973    -0.029    28.732     8.792
    12   6 C        2.969     0.088    26.047     8.371
    13   7 N        1.864    -0.281    28.148     7.864
    14   6 C        2.958     0.085    26.106     8.380
    15   6 C        2.930    -0.062    29.538     8.913
    16   6 C        2.966     0.002    27.987     8.677
    17   6 C        2.930    -0.065    29.614     8.925
    18   6 C        2.913     0.090    26.009     8.363
    19   6 C        2.939    -0.062    29.551     8.916
    20   6 C        2.966     0.001    28.007     8.681
    21   6 C        2.949    -0.063    29.569     8.919
    22   8 O        1.639    -0.393    20.731     6.146
    23   6 C        2.928    -0.075    29.866     8.962
    24   6 C        2.852     0.157    24.601     8.129
    25   6 C        2.978    -0.045    29.117     8.851
    26   6 C        2.976     0.086    26.085     8.378
    27   6 C        2.948    -0.066    29.651     8.931
    28   6 C        2.967    -0.000    28.026     8.684
    29   6 C        2.969     0.033    27.251     8.563
    30   6 C        3.000    -0.034    28.825     8.807
    31   6 C        2.970     0.085    26.094     8.379
    32   7 N        1.866    -0.285    28.247     7.878
    33   6 C        2.968    -0.030    28.741     8.794
    34   6 C        2.970     0.089    26.027     8.368
    35   7 N        1.880    -0.280    28.109     7.859
    36   6 C        2.963     0.086    26.077     8.376
    37   6 C        2.933    -0.060    29.482     8.905
    38   6 C        2.966     0.002    27.990     8.678
    39   6 C        2.932    -0.063    29.567     8.918
    40   6 C        2.905     0.086    26.082     8.374
    41   6 C        2.940    -0.065    29.617     8.926
    42   6 C        2.967     0.002    27.986     8.677
    43   6 C        2.963    -0.061    29.505     8.910
    44   8 O        1.639    -0.391    20.678     6.138
    45   5 B        3.260     0.493    14.579     6.368
    46   7 N        2.662    -0.242    26.321     7.620
    47   6 C        3.751    -0.101    22.491     6.763
    48   6 C        3.748     0.024    20.229     6.415
    49   7 N        2.660    -0.246    26.415     7.633
    50   6 C        3.752    -0.099    22.457     6.758
    51   6 C        3.748     0.020    20.307     6.427
    52   6 C        3.903     0.026    20.088     6.371
    53   6 C        3.761    -0.105    22.547     6.769
    54   6 C        3.762    -0.103    22.515     6.764
    55   6 C        3.762    -0.103    22.514     6.764
    56   6 C        3.903     0.027    20.072     6.368
    57   6 C        3.766    -0.099    22.437     6.751
    58   6 C        3.760    -0.106    22.577     6.774
    59   6 C        3.760    -0.106    22.578     6.774
    60   6 C        3.903     0.027    20.073     6.368
    61   6 C        3.762    -0.104    22.533     6.767
    62   6 C        3.761    -0.099    22.441     6.753
    63   6 C        3.762    -0.104    22.529     6.766
    64   6 C        3.903     0.027    20.072     6.368
    65   6 C        3.761    -0.102    22.498     6.762
    66   6 C        3.762    -0.104    22.525     6.765
    67   6 C        3.761    -0.104    22.529     6.766
    68   6 C        3.903     0.026    20.089     6.371
    69   6 C        3.761    -0.105    22.546     6.769
    70   6 C        3.762    -0.103    22.505     6.763
    71   6 C        3.762    -0.103    22.512     6.764
    72   6 C        3.903     0.027    20.068     6.368
    73   6 C        3.765    -0.102    22.481     6.758
    74   1 H        0.925     0.029     2.596     2.520
    75   1 H        0.925     0.030     2.588     2.516
    76   1 H        0.925     0.036     2.502     2.474
    77   6 C        3.760    -0.105    22.561     6.771
    78   1 H        0.925     0.034     2.537     2.491
    79   1 H        0.925     0.025     2.653     2.547
    80   1 H        0.925     0.040     2.444     2.445
    81   6 C        3.759    -0.105    22.548     6.770
    82   1 H        0.925     0.036     2.500     2.473
    83   1 H        0.925     0.044     2.399     2.422
    84   1 H        0.925     0.026     2.645     2.544
    85   1 H        0.925     0.036     2.507     2.476
    86   1 H        0.925     0.035     2.511     2.478
    87   1 H        0.925     0.026     2.644     2.543
    88   1 H        0.925     0.032     2.563     2.504
    89   1 H        0.925     0.027     2.631     2.537
    90   1 H        0.925     0.037     2.487     2.466
    91   1 H        0.925     0.033     2.547     2.496
    92   1 H        0.925     0.048     2.344     2.394
    93   1 H        0.925     0.026     2.644     2.543
    94   1 H        0.925     0.034     2.534     2.489
    95   1 H        0.925     0.026     2.649     2.545
    96   1 H        0.925     0.042     2.428     2.437
    97   1 H        0.925     0.033     2.551     2.497
    98   1 H        0.925     0.028     2.610     2.526
    99   1 H        0.925     0.030     2.591     2.517
   100   1 H        0.925     0.031     2.570     2.507
   101   1 H        0.925     0.038     2.480     2.462
   102   1 H        0.925     0.027     2.627     2.535
   103   1 H        0.925     0.032     2.560     2.502
   104   1 H        0.925     0.027     2.627     2.535
   105   1 H        0.925     0.038     2.477     2.461
   106   1 H        0.925     0.036     2.504     2.475
   107   1 H        0.925     0.035     2.516     2.480
   108   1 H        0.925     0.026     2.641     2.541
   109   1 H        0.925     0.032     2.564     2.504
   110   1 H        0.925     0.026     2.644     2.543
   111   1 H        0.925     0.037     2.492     2.469
   112   1 H        0.925     0.038     2.479     2.462
   113   1 H        0.925     0.033     2.548     2.496
   114   1 H        0.925     0.028     2.616     2.529
   115   1 H        0.925     0.032     2.564     2.504
   116   1 H        0.925     0.038     2.480     2.463
   117   1 H        0.925     0.028     2.614     2.528
   118   1 H        0.925     0.031     2.571     2.507
   119   1 H        0.925     0.037     2.485     2.465
   120   1 H        0.925     0.027     2.636     2.539
   121   1 H        0.926     0.040     2.452     2.449
   122   1 H        0.926     0.031     2.578     2.511
   123   1 H        0.926     0.041     2.434     2.440
   124   1 H        0.926     0.035     2.519     2.482
   125   1 H        0.926     0.041     2.430     2.438
   126   1 H        0.926     0.036     2.497     2.471
   127   1 H        0.926     0.041     2.440     2.443
   128   1 H        0.926     0.038     2.469     2.457
   129   1 H        0.926     0.037     2.487     2.466
   130   1 H        0.926     0.039     2.459     2.452
   131   1 H        0.926     0.040     2.444     2.445
   132   1 H        0.926     0.034     2.537     2.491
   133   1 H        0.925     0.037     2.493     2.469
   134   1 H        0.925     0.027     2.635     2.538
   135   1 H        0.925     0.034     2.532     2.488
   136   1 H        0.925     0.036     2.498     2.471
   137   1 H        0.925     0.038     2.481     2.463
   138   1 H        0.925     0.026     2.649     2.545
   139   1 H        0.925     0.036     2.504     2.475
   140   1 H        0.925     0.030     2.587     2.515
   141   1 H        0.925     0.028     2.613     2.528
   142   1 H        0.925     0.048     2.345     2.395
   143   1 H        0.923     0.013     2.844     2.637
   144   1 H        0.925     0.035     2.523     2.484
   145   1 H        0.925     0.027     2.635     2.538
   146   1 H        0.925     0.034     2.535     2.490
   147   1 H        0.924     0.034     2.537     2.491
   148   1 H        0.924     0.026     2.651     2.546
   149   1 H        0.925     0.033     2.541     2.493
   150   1 H        0.925     0.028     2.619     2.531
   151   1 H        0.925     0.036     2.497     2.471

 Mol. C6AA /au·bohr⁶  :     246375.886156
 Mol. C8AA /au·bohr⁸  :    5825036.022827
 Mol. α(0) /au        :        770.475256


Wiberg/Mayer (AO) data.
largest (>0.10) Wiberg bond orders for each atom

 ---------------------------------------------------------------------------
     #   Z sym  total        # sym  WBO       # sym  WBO       # sym  WBO
 ---------------------------------------------------------------------------
     1   6 C    3.914 --     2 C    1.398     6 C    1.335   125 H    0.963
     2   6 C    3.937 --     1 C    1.398     3 C    1.240    22 O    1.113
     3   6 C    3.943 --     2 C    1.240     7 C    1.221     4 C    1.207
     4   6 C    3.974 --    10 N    1.334     5 C    1.253     3 C    1.207
     5   6 C    3.926 --     6 C    1.493     4 C    1.253   123 H    0.962
     6   6 C    3.973 --     5 C    1.493     1 C    1.335    72 C    0.983
     7   6 C    3.981 --     8 C    1.313     3 C    1.221    11 C    1.204
     8   6 C    3.975 --     7 C    1.313     9 C    1.195    14 C    1.191
     9   6 C    3.977 --    10 N    1.352    17 C    1.255     8 C    1.195
    10   7 N    2.911 --     9 C    1.352     4 C    1.334
    11   6 C    3.924 --    18 C    1.256     7 C    1.204    12 C    1.192
    12   6 C    3.970 --    13 N    1.349    21 C    1.249    11 C    1.192
    13   7 N    2.917 --    12 C    1.349    14 C    1.332
    14   6 C    3.976 --    13 N    1.332    15 C    1.279     8 C    1.191
    15   6 C    3.804 --    16 C    1.406    14 C    1.279   122 H    0.964
    16   6 C    3.975 --    17 C    1.437    15 C    1.406    68 C    0.980
    17   6 C    3.813 --    16 C    1.437     9 C    1.255   121 H    0.964
    18   6 C    3.958 --    19 C    1.380    11 C    1.256    46 N    1.131
    19   6 C    3.875 --    18 C    1.380    20 C    1.353   126 H    0.956
    20   6 C    3.974 --    21 C    1.479    19 C    1.353    64 C    0.980
    21   6 C    3.885 --    20 C    1.479    12 C    1.249   124 H    0.962
    22   8 O    2.163 --     2 C    1.113    45 B    0.810
    23   6 C    3.902 --    24 C    1.369    28 C    1.349   127 H    0.959
    24   6 C    3.939 --    23 C    1.369    25 C    1.270    44 O    1.107
    25   6 C    3.942 --    24 C    1.270    26 C    1.203    29 C    1.192
    26   6 C    3.972 --    32 N    1.342    27 C    1.251    25 C    1.203
    27   6 C    3.913 --    28 C    1.489    26 C    1.251   129 H    0.962
    28   6 C    3.975 --    27 C    1.489    23 C    1.349    60 C    0.980
    29   6 C    3.981 --    30 C    1.311    33 C    1.227    25 C    1.192
    30   6 C    3.977 --    29 C    1.311    31 C    1.200    36 C    1.196
    31   6 C    3.977 --    32 N    1.332    39 C    1.268    30 C    1.200
    32   7 N    2.891 --    26 C    1.342    31 C    1.332
    33   6 C    3.943 --    40 C    1.241    29 C    1.227    34 C    1.205
    34   6 C    3.970 --    35 N    1.336    43 C    1.251    33 C    1.205
    35   7 N    2.911 --    36 C    1.343    34 C    1.336
    36   6 C    3.978 --    35 N    1.343    37 C    1.266    30 C    1.196
    37   6 C    3.807 --    38 C    1.420    36 C    1.266   132 H    0.964
    38   6 C    3.975 --    39 C    1.424    37 C    1.420    52 C    0.980
    39   6 C    3.812 --    38 C    1.424    31 C    1.268   131 H    0.964
    40   6 C    3.956 --    41 C    1.357    33 C    1.241    49 N    1.174
    41   6 C    3.868 --    40 C    1.357    42 C    1.354   128 H    0.952
    42   6 C    3.974 --    43 C    1.475    41 C    1.354    56 C    0.980
    43   6 C    3.887 --    42 C    1.475    34 C    1.251   130 H    0.962
    44   8 O    2.161 --    24 C    1.107    45 B    0.812
    45   5 B    3.393 --    46 N    0.813    44 O    0.812    22 O    0.810
                            49 N    0.803
    46   7 N    3.190 --    18 C    1.131    48 C    1.007    45 B    0.813
    47   6 C    3.988 --    48 C    1.005   150 H    0.987   151 H    0.985
                           149 H    0.983
    48   6 C    3.978 --    46 N    1.007    47 C    1.005   147 H    0.971
                           148 H    0.943
    49   7 N    3.223 --    40 C    1.174    51 C    1.005    45 B    0.803
    50   6 C    3.992 --    51 C    1.010   144 H    0.988   145 H    0.987
                           146 H    0.983
    51   6 C    3.979 --    50 C    1.010    49 N    1.005   142 H    0.958
                           143 H    0.951
    52   6 C    3.990 --    53 C    1.000    55 C    0.989    54 C    0.988
                            38 C    0.980
    53   6 C    3.997 --    52 C    1.000   108 H    0.985   106 H    0.985
                           107 H    0.985
    54   6 C    3.995 --    52 C    0.988   103 H    0.987   104 H    0.985
                           105 H    0.984
    55   6 C    3.995 --    52 C    0.989   100 H    0.987   102 H    0.985
                           101 H    0.984
    56   6 C    3.989 --    59 C    0.998    58 C    0.996    57 C    0.980
                            42 C    0.980
    57   6 C    3.994 --    97 H    0.986    98 H    0.986    99 H    0.985
                            56 C    0.980
    58   6 C    3.996 --    56 C    0.996    95 H    0.985    94 H    0.982
                            96 H    0.979
    59   6 C    3.994 --    56 C    0.998    93 H    0.985    91 H    0.983
                            92 H    0.973
    60   6 C    3.990 --    62 C    0.999    61 C    0.989    63 C    0.988
                            28 C    0.980
    61   6 C    3.996 --    60 C    0.989   115 H    0.987   117 H    0.985
                           116 H    0.983
    62   6 C    3.997 --    60 C    0.999   110 H    0.985   111 H    0.984
                           109 H    0.981
    63   6 C    3.995 --    60 C    0.988   113 H    0.987   114 H    0.985
                           112 H    0.984
    64   6 C    3.990 --    67 C    1.000    66 C    0.990    65 C    0.987
                            20 C    0.980
    65   6 C    3.996 --   140 H    0.987    64 C    0.987   141 H    0.985
                           139 H    0.985
    66   6 C    3.995 --    64 C    0.990   135 H    0.987   134 H    0.985
                           133 H    0.984
    67   6 C    3.996 --    64 C    1.000   137 H    0.985   138 H    0.985
                           136 H    0.982
    68   6 C    3.990 --    69 C    1.000    71 C    0.989    70 C    0.988
                            16 C    0.980
    69   6 C    3.997 --    68 C    1.000    86 H    0.985    87 H    0.985
                            85 H    0.984
    70   6 C    3.995 --    68 C    0.988    88 H    0.987    89 H    0.985
                            90 H    0.984
    71   6 C    3.995 --    68 C    0.989   118 H    0.987   120 H    0.985
                           119 H    0.983
    72   6 C    3.990 --    77 C    0.999    81 C    0.992     6 C    0.983
                            73 C    0.982
    73   6 C    3.994 --    75 H    0.987    76 H    0.986    74 H    0.985
                            72 C    0.982
    74   1 H    0.998 --    73 C    0.985
    75   1 H    0.999 --    73 C    0.987
    76   1 H    0.999 --    73 C    0.986
    77   6 C    3.996 --    72 C    0.999    79 H    0.985    78 H    0.984
                            80 H    0.980
    78   1 H    0.999 --    77 C    0.984
    79   1 H    0.999 --    77 C    0.985
    80   1 H    0.998 --    77 C    0.980
    81   6 C    3.994 --    72 C    0.992    84 H    0.985    82 H    0.983
                            83 H    0.979
    82   1 H    0.999 --    81 C    0.983
    83   1 H    0.998 --    81 C    0.979
    84   1 H    0.999 --    81 C    0.985
    85   1 H    0.999 --    69 C    0.984
    86   1 H    0.999 --    69 C    0.985
    87   1 H    0.999 --    69 C    0.985
    88   1 H    0.999 --    70 C    0.987
    89   1 H    0.998 --    70 C    0.985
    90   1 H    0.999 --    70 C    0.984
    91   1 H    0.999 --    59 C    0.983
    92   1 H    0.998 --    59 C    0.973
    93   1 H    0.999 --    59 C    0.985
    94   1 H    0.999 --    58 C    0.982
    95   1 H    0.999 --    58 C    0.985
    96   1 H    0.998 --    58 C    0.979
    97   1 H    0.999 --    57 C    0.986
    98   1 H    0.999 --    57 C    0.986
    99   1 H    0.998 --    57 C    0.985
   100   1 H    0.999 --    55 C    0.987
   101   1 H    0.999 --    55 C    0.984
   102   1 H    0.998 --    55 C    0.985
   103   1 H    0.999 --    54 C    0.987
   104   1 H    0.998 --    54 C    0.985
   105   1 H    0.999 --    54 C    0.984
   106   1 H    0.999 --    53 C    0.985
   107   1 H    0.999 --    53 C    0.985
   108   1 H    0.999 --    53 C    0.985
   109   1 H    0.999 --    62 C    0.981
   110   1 H    0.999 --    62 C    0.985
   111   1 H    0.999 --    62 C    0.984
   112   1 H    0.999 --    63 C    0.984
   113   1 H    0.999 --    63 C    0.987
   114   1 H    0.998 --    63 C    0.985
   115   1 H    0.999 --    61 C    0.987
   116   1 H    0.999 --    61 C    0.983
   117   1 H    0.998 --    61 C    0.985
   118   1 H    0.999 --    71 C    0.987
   119   1 H    0.999 --    71 C    0.983
   120   1 H    0.998 --    71 C    0.985
   121   1 H    0.998 --    17 C    0.964
   122   1 H    0.998 --    15 C    0.964
   123   1 H    0.998 --     5 C    0.962
   124   1 H    0.998 --    21 C    0.962
   125   1 H    0.998 --     1 C    0.963
   126   1 H    0.998 --    19 C    0.956
   127   1 H    0.998 --    23 C    0.959
   128   1 H    0.998 --    41 C    0.952
   129   1 H    0.998 --    27 C    0.962
   130   1 H    0.998 --    43 C    0.962
   131   1 H    0.998 --    39 C    0.964
   132   1 H    0.998 --    37 C    0.964
   133   1 H    0.999 --    66 C    0.984
   134   1 H    0.998 --    66 C    0.985
   135   1 H    0.999 --    66 C    0.987
   136   1 H    0.999 --    67 C    0.982
   137   1 H    0.999 --    67 C    0.985
   138   1 H    0.999 --    67 C    0.985
   139   1 H    0.999 --    65 C    0.985
   140   1 H    0.999 --    65 C    0.987
   141   1 H    0.998 --    65 C    0.985
   142   1 H    0.997 --    51 C    0.958
   143   1 H    0.991 --    51 C    0.951
   144   1 H    0.999 --    50 C    0.988
   145   1 H    0.999 --    50 C    0.987
   146   1 H    0.998 --    50 C    0.983
   147   1 H    0.998 --    48 C    0.971
   148   1 H    0.987 --    48 C    0.943
   149   1 H    0.998 --    47 C    0.983
   150   1 H    0.999 --    47 C    0.987
   151   1 H    0.999 --    47 C    0.985
 ---------------------------------------------------------------------------

Topologies differ in bond orders
Writing corrected topology to xtbtopo.mol

molecular dipole:
                 x           y           z       tot (Debye)
 q only:        0.108       0.023      -0.731
   full:        0.030      -0.211      -0.565       1.536
molecular quadrupole (traceless):
                xx          xy          yy          xz          yz          zz
 q only:      -37.444      33.843       6.564     -17.476      12.140      30.879
  q+dip:      -39.165      37.442      11.106     -22.821      10.424      28.059
   full:      -44.043      36.488       4.305     -23.117      11.674      39.738
Note: The following floating-point exceptions are signalling: IEEE_UNDERFLOW_FLAG
normal termination of xtb


           -------------------------------------------------
          | TOTAL ENERGY             -207.501351887649 Eh   |
          | GRADIENT NORM               0.016245005066 Eh/α |
          | HOMO-LUMO GAP               0.038275000672 eV   |
           -------------------------------------------------
########################################################################
[WARNING] Runtime exception occurred
-1- restart_readRestart: Number of electron missmatch in restart file.
########################################################################

------------------------------------------------------------------------
 * finished run on 2024/11/07 at 15:52:04.583     
------------------------------------------------------------------------
 total:
 * wall-time:     0 d,  0 h,  0 min,  1.927 sec
 *  cpu-time:     0 d,  0 h,  0 min,  7.684 sec
 * ratio c/w:     3.987 speedup
 SCF:
 * wall-time:     0 d,  0 h,  0 min,  1.908 sec
 *  cpu-time:     0 d,  0 h,  0 min,  7.641 sec
 * ratio c/w:     4.005 speedup

