      -----------------------------------------------------------      
     |                   =====================                   |     
     |                           x T B                           |     
     |                   =====================                   |     
     |                         S. Grimme                         |     
     |          Mulliken Center for Theoretical Chemistry        |     
     |                    University of Bonn                     |     
      -----------------------------------------------------------      

   * xtb version 6.6.1 (8d0f1dd) compiled by 'runner@Mac-1690902418499.local' on 2023-08-01

   xtb is free software: you can redistribute it and/or modify it under
   the terms of the GNU Lesser General Public License as published by
   the Free Software Foundation, either version 3 of the License, or
   (at your option) any later version.
   
   xtb is distributed in the hope that it will be useful,
   but WITHOUT ANY WARRANTY; without even the implied warranty of
   MERCHANTABILITY or FITNESS FOR A PARTICULAR PURPOSE.  See the
   GNU Lesser General Public License for more details.
   
   Cite this work as:
   * C. Bannwarth, E. Caldeweyher, S. Ehlert, A. Hansen, P. Pracht,
     J. Seibert, S. Spicher, S. Grimme, WIREs Comput. Mol. Sci., 2020, 11,
     e01493. DOI: 10.1002/wcms.1493
   
   for GFN2-xTB:
   * C. Bannwarth, S. Ehlert and S. Grimme., J. Chem. Theory Comput., 2019,
     15, 1652-1671. DOI: 10.1021/acs.jctc.8b01176
   for GFN1-xTB:
   * S. Grimme, C. Bannwarth, P. Shushkov, J. Chem. Theory Comput., 2017,
     13, 1989-2009. DOI: 10.1021/acs.jctc.7b00118
   for GFN0-xTB:
   * P. Pracht, E. Caldeweyher, S. Ehlert, S. Grimme, ChemRxiv, 2019, preprint.
     DOI: 10.26434/chemrxiv.8326202.v1
   for GFN-FF:
   * S. Spicher and S. Grimme, Angew. Chem. Int. Ed., 2020, 59, 15665-15673.
     DOI: 10.1002/anie.202004239
   
   for ALPB and GBSA implicit solvation:
   * S. Ehlert, M. Stahn, S. Spicher, S. Grimme, J. Chem. Theory Comput.,
     2021, 17, 4250-4261. DOI: 10.1021/acs.jctc.1c00471
   
   for DFT-D4:
   * E. Caldeweyher, C. Bannwarth and S. Grimme, J. Chem. Phys., 2017,
     147, 034112. DOI: 10.1063/1.4993215
   * E. Caldeweyher, S. Ehlert, A. Hansen, H. Neugebauer, S. Spicher,
     C. Bannwarth and S. Grimme, J. Chem. Phys., 2019, 150, 154122.
     DOI: 10.1063/1.5090222
   * E. Caldeweyher, J.-M. Mewes, S. Ehlert and S. Grimme, Phys. Chem. Chem. Phys.
     2020, 22, 8499-8512. DOI: 10.1039/D0CP00502A
   
   for sTDA-xTB:
   * S. Grimme and C. Bannwarth, J. Chem. Phys., 2016, 145, 054103.
     DOI: 10.1063/1.4959605
   
   in the mass-spec context:
   * V. Asgeirsson, C. Bauer and S. Grimme, Chem. Sci., 2017, 8, 4879.
     DOI: 10.1039/c7sc00601b
   * J. Koopman and S. Grimme, ACS Omega 2019, 4, 12, 15120-15133.
     DOI: 10.1021/acsomega.9b02011
   
   for metadynamics refer to:
   * S. Grimme, J. Chem. Theory Comput., 2019, 155, 2847-2862
     DOI: 10.1021/acs.jctc.9b00143
   
   for SPH calculations refer to:
   * S. Spicher and S. Grimme, J. Chem. Theory Comput., 2021, 17, 1701-1714
     DOI: 10.1021/acs.jctc.0c01306
   
   with help from (in alphabetical order)
   P. Atkinson, C. Bannwarth, F. Bohle, G. Brandenburg, E. Caldeweyher
   M. Checinski, S. Dohm, S. Ehlert, S. Ehrlich, I. Gerasimov, C. Hölzer
   A. Katbashev, J. Koopman, C. Lavigne, S. Lehtola, F. März, M. Müller,
   F. Musil, H. Neugebauer, J. Pisarek, C. Plett, P. Pracht, F. Pultar,
   J. Seibert, P. Shushkov, S. Spicher, M. Stahn, M. Steiner, T. Strunk,
   J. Stückrath, T. Rose, and J. Unsleber
   
 * started run on 2024/11/07 at 15:46:33.187     

           -------------------------------------------------
          |                Calculation Setup                |
           -------------------------------------------------

          program call               : xtb Base2tBu.mol --opt --gfn2 --chrg -1 --uhf 0 --tight
          coordinate file            : Base2tBu.mol
          omp threads                :                     8

   ID    Z sym.   atoms
    1    6 C      1-9, 11, 12, 14-21, 23-31, 33, 34, 36-43, 47, 48, 50-73,
                  77, 81
    2    7 N      10, 13, 32, 35, 46, 49
    3    8 O      22, 44
    4    5 B      45
    5    1 H      74-76, 78-80, 82-151
########################################################################
[WARNING] Please study the warnings concerning your input carefully
-1- prog_main_parseArguments: Unknown option '--tight' provided
########################################################################

           -------------------------------------------------
          |                 G F N 2 - x T B                 |
           -------------------------------------------------

        Reference                      10.1021/acs.jctc.8b01176
      * Hamiltonian:
        H0-scaling (s, p, d)           1.850000    2.230000    2.230000
        zeta-weighting                 0.500000
      * Dispersion:
        s8                             2.700000
        a1                             0.520000
        a2                             5.000000
        s9                             5.000000
      * Repulsion:
        kExp                           1.500000    1.000000
        rExp                           1.000000
      * Coulomb:
        alpha                          2.000000
        third order                    shell-resolved
        anisotropic                    true
        a3                             3.000000
        a5                             4.000000
        cn-shift                       1.200000
        cn-exp                         4.000000
        max-rad                        5.000000

q/qsh data taken from xtbrestart
CAMM data taken from xtbrestart

          ...................................................
          :                      SETUP                      :
          :.................................................:
          :  # basis functions                 376          :
          :  # atomic orbitals                 376          :
          :  # shells                          226          :
          :  # electrons                       386          :
          :  max. iterations                   250          :
          :  Hamiltonian                  GFN2-xTB          :
          :  restarted?                       true          :
          :  GBSA solvation                  false          :
          :  PC potential                    false          :
          :  electronic temp.          300.0000000     K    :
          :  accuracy                    1.0000000          :
          :  -> integral cutoff          0.2500000E+02      :
          :  -> integral neglect         0.1000000E-07      :
          :  -> SCF convergence          0.1000000E-05 Eh   :
          :  -> wf. convergence          0.1000000E-03 e    :
          :  Broyden damping             0.4000000          :
          ...................................................

 iter      E             dE          RMSdq      gap      omega  full diag
   1   -210.0890719 -0.210089E+03  0.191E+00    0.01       0.0  T
   2   -209.5917294  0.497342E+00  0.186E+00    0.39       1.0  T
   3   -209.7445157 -0.152786E+00  0.136E+00    0.34       1.0  T
   4   -208.3631901  0.138133E+01  0.198E+00    0.12       1.0  T
   5   -209.6779559 -0.131477E+01  0.141E+00    0.19       1.0  T
   6   -209.9899765 -0.312021E+00  0.762E-01    0.08       1.0  T
   7   -209.9115365  0.784400E-01  0.914E-01    0.21       1.0  T
   8   -210.0787079 -0.167171E+00  0.562E-01    0.02       1.0  T
   9   -210.0856575 -0.694966E-02  0.504E-01    0.02       1.0  T
  10   -210.1015428 -0.158853E-01  0.432E-01    0.02       1.0  T
  11   -210.0969676  0.457517E-02  0.414E-01    0.03       1.0  T
  12   -210.1251567 -0.281890E-01  0.191E-01    0.01       1.0  T
  13   -210.1243608  0.795892E-03  0.182E-01    0.03       1.0  T
  14   -210.1181503  0.621045E-02  0.254E-01    0.01       1.0  T
  15   -210.1263629 -0.821259E-02  0.151E-01    0.03       1.0  T
  16   -210.1325319 -0.616899E-02  0.122E-02    0.02       1.0  T
  17   -210.1318067  0.725231E-03  0.540E-02    0.03       1.0  T
  18   -210.1324324 -0.625776E-03  0.204E-02    0.02       1.0  T
  19   -210.1322088  0.223656E-03  0.387E-02    0.02       1.0  T
  20   -210.1325486 -0.339833E-03  0.400E-03    0.02       2.0  T
  21   -210.1325445  0.411884E-05  0.614E-03    0.02       1.3  T
  22   -210.1325530 -0.854413E-05  0.985E-04    0.02       8.3  T
  23   -210.1325527  0.385101E-06  0.170E-03    0.02       4.8  T
  24   -210.1325534 -0.707446E-06  0.396E-04    0.02      20.6  T
  25   -210.1325534 -0.247476E-07  0.195E-04    0.02      41.6  T

   *** convergence criteria satisfied after 25 iterations ***

         #    Occupation            Energy/Eh            Energy/eV
      -------------------------------------------------------------
         1        2.0000           -0.5774690             -15.7137
       ...           ...                  ...                  ...
       187        2.0000           -0.2685593              -7.3079
       188        2.0000           -0.2613496              -7.1117
       189        2.0000           -0.2495247              -6.7899
       190        1.9999           -0.2467445              -6.7143
       191        1.9904           -0.2417860              -6.5793
       192        1.9712           -0.2407353              -6.5507
       193        1.2175           -0.2371409              -6.4529 (HOMO)
       194        0.8210           -0.2363769              -6.4321 (LUMO)
       195                         -0.1822584              -4.9595
       196                         -0.1797871              -4.8923
       197                         -0.1498833              -4.0785
       198                         -0.1433084              -3.8996
       ...                                ...                  ...
       376                          0.8573144              23.3287
      -------------------------------------------------------------
                  HL-Gap            0.0007639 Eh            0.0208 eV
             Fermi-level           -0.2367208 Eh           -6.4415 eV

 SCC (total)                   0 d,  0 h,  0 min,  2.802 sec
 SCC setup                      ...        0 min,  0.000 sec (  0.017%)
 Dispersion                     ...        0 min,  0.002 sec (  0.076%)
 classical contributions        ...        0 min,  0.001 sec (  0.018%)
 integral evaluation            ...        0 min,  0.008 sec (  0.290%)
 iterations                     ...        0 min,  2.715 sec ( 96.880%)
 molecular gradient             ...        0 min,  0.075 sec (  2.662%)
 printout                       ...        0 min,  0.002 sec (  0.056%)

         :::::::::::::::::::::::::::::::::::::::::::::::::::::
         ::                     SUMMARY                     ::
         :::::::::::::::::::::::::::::::::::::::::::::::::::::
         :: total energy            -207.012631619632 Eh    ::
         :: gradient norm              0.395510322485 Eh/a0 ::
         :: HOMO-LUMO gap              0.020788099716 eV    ::
         ::.................................................::
         :: SCC energy              -210.132553388172 Eh    ::
         :: -> isotropic ES            0.221962647229 Eh    ::
         :: -> anisotropic ES          0.050197331450 Eh    ::
         :: -> anisotropic XC          0.119227991940 Eh    ::
         :: -> dispersion             -0.224924820412 Eh    ::
         :: repulsion energy           3.113762135036 Eh    ::
         :: add. restraining           0.000000000000 Eh    ::
         :: total charge              -1.000000440153 e     ::
         :::::::::::::::::::::::::::::::::::::::::::::::::::::

      ----------------------------------------------------------- 
     |                   =====================                   |
     |                        A N C O P T                        |
     |                   =====================                   |
     |               Approximate Normal Coordinate               |
     |                Rational Function Optimizer                |
      ----------------------------------------------------------- 

          ...................................................
          :                      SETUP                      :
          :.................................................:
          :   optimization level            normal          :
          :   max. optcycles                   453          :
          :   ANC micro-cycles                  20          :
          :   degrees of freedom               447          :
          :.................................................:
          :   RF solver                   davidson          :
          :   write xtbopt.log                true          :
          :   linear?                        false          :
          :   energy convergence         0.5000000E-05 Eh   :
          :   grad. convergence          0.1000000E-02 Eh/α :
          :   maxmium RF displ.          1.0000000          :
          :   Hlow (freq-cutoff)         0.1000000E-01      :
          :   Hmax (freq-cutoff)         5.0000000          :
          :   S6 in model hess.         20.0000000          :
          ...................................................

generating ANC from model Hessian ...
Using Lindh-Hessian (1995)
 Shifting diagonal of input Hessian by    1.1836497607121793E-002
 Lowest  eigenvalues of input Hessian
    0.010000    0.010510    0.010634    0.011681    0.011831    0.000000
    0.000000    0.000000    0.000000    0.000000    0.000000    0.011861
    0.011948    0.011959    0.012025    0.012123    0.012179    0.012240
 Highest eigenvalues
    2.075143    2.116959    2.203951    2.229869    2.242610    2.301364


........................................................................
.............................. CYCLE    1 ..............................
........................................................................

 iter      E             dE          RMSdq      gap      omega  full diag
   1   -210.1325534 -0.210133E+03  0.583E-05    0.02       0.0  T
   2   -210.1325528  0.596808E-06  0.121E-03    0.02       6.7  T
   3   -210.1325534 -0.592560E-06  0.121E-04    0.02      67.2  T
   4   -210.1325534 -0.298016E-08  0.781E-05    0.02     104.2  T
     SCC iter.                  ...        0 min,  0.328 sec
     gradient                   ...        0 min,  0.074 sec
 * total energy  :  -207.0126316 Eh     change       -0.1129428E-07 Eh
   gradient norm :     0.3955106 Eh/α   predicted     0.0000000E+00 (-100.00%)
   displ. norm   :     0.6659073 α      lambda       -0.1946031E+00
   maximum displ.:     0.2200357 α      in ANC's #190, #191, #193, ...

........................................................................
.............................. CYCLE    2 ..............................
........................................................................

 iter      E             dE          RMSdq      gap      omega  full diag
   1   -210.2772137 -0.210277E+03  0.294E-01    0.02       0.0  T
   2   -210.2660510  0.111628E-01  0.257E-01    0.01       1.0  T
   3   -210.0967815  0.169270E+00  0.717E-01    0.33       1.0  T
   4   -210.0250426  0.717388E-01  0.103E+00    0.17       1.0  T
   5   -210.2684112 -0.243369E+00  0.186E-01    0.04       1.0  T
   6   -210.2048844  0.635269E-01  0.441E-01    0.07       1.0  T
   7   -210.2667615 -0.618771E-01  0.206E-01    0.04       1.0  T
   8   -210.2643641  0.239741E-02  0.199E-01    0.06       1.0  T
   9   -210.2783145 -0.139505E-01  0.649E-02    0.03       1.0  T
  10   -210.2792513 -0.936827E-03  0.438E-02    0.03       1.0  T
  11   -210.2799147 -0.663362E-03  0.107E-02    0.02       1.0  T
  12   -210.2799475 -0.328028E-04  0.478E-03    0.02       1.7  T
  13   -210.2799537 -0.616747E-05  0.214E-03    0.02       3.8  T
  14   -210.2799552 -0.152412E-05  0.506E-04    0.02      16.1  T
  15   -210.2799551  0.783277E-07  0.589E-04    0.02      13.8  T
  16   -210.2799552 -0.849082E-07  0.353E-04    0.02      23.0  T
     SCC iter.                  ...        0 min,  1.127 sec
     gradient                   ...        0 min,  0.074 sec
 * total energy  :  -207.1639254 Eh     change       -0.1512938E+00 Eh
   gradient norm :     0.2207357 Eh/α   predicted    -0.1405958E+00 (  -7.07%)
   displ. norm   :     0.6602607 α      lambda       -0.1090206E+00
   maximum displ.:     0.1260632 α      in ANC's #190, #95, #88, ...

........................................................................
.............................. CYCLE    3 ..............................
........................................................................

 iter      E             dE          RMSdq      gap      omega  full diag
   1   -210.4005650 -0.210401E+03  0.254E-01    0.02       0.0  T
   2   -210.3214755  0.790895E-01  0.496E-01    0.14       1.0  T
   3   -210.2544216  0.670539E-01  0.644E-01    0.13       1.0  T
   4   -210.2678149 -0.133933E-01  0.683E-01    0.06       1.0  T
   5   -210.3849551 -0.117140E+00  0.226E-01    0.06       1.0  T
   6   -210.3684780  0.164771E-01  0.345E-01    0.02       1.0  T
   7   -210.3933789 -0.249008E-01  0.166E-01    0.01       1.0  T
   8   -210.4001113 -0.673247E-02  0.104E-01    0.04       1.0  T
   9   -210.4017956 -0.168428E-02  0.610E-02    0.02       1.0  T
  10   -210.4024809 -0.685322E-03  0.422E-02    0.03       1.0  T
  11   -210.4028021 -0.321125E-03  0.229E-02    0.03       1.0  T
  12   -210.4029023 -0.100269E-03  0.108E-02    0.03       1.0  T
  13   -210.4029157 -0.133631E-04  0.737E-03    0.03       1.1  T
  14   -210.4029267 -0.110350E-04  0.304E-03    0.03       2.7  T
  15   -210.4029288 -0.212296E-05  0.105E-03    0.03       7.7  T
  16   -210.4029291 -0.205183E-06  0.523E-04    0.03      15.5  T
  17   -210.4029291 -0.613991E-07  0.126E-04    0.03      64.7  T
     SCC iter.                  ...        0 min,  1.032 sec
     gradient                   ...        0 min,  0.079 sec
 * total energy  :  -207.2427218 Eh     change       -0.7879637E-01 Eh
   gradient norm :     0.0886164 Eh/α   predicted    -0.7827402E-01 (  -0.66%)
   displ. norm   :     0.7538401 α      lambda       -0.5195827E-01
   maximum displ.:     0.1915937 α      in ANC's #37, #30, #26, ...

........................................................................
.............................. CYCLE    4 ..............................
........................................................................

 iter      E             dE          RMSdq      gap      omega  full diag
   1   -210.4665107 -0.210467E+03  0.213E-01    0.03       0.0  T
   2   -210.2643615  0.202149E+00  0.923E-01    0.15       1.0  T
   3   -210.3812827 -0.116921E+00  0.481E-01    0.13       1.0  T
   4   -210.3481571  0.331256E-01  0.577E-01    0.11       1.0  T
   5   -210.2700102  0.781469E-01  0.845E-01    0.11       1.0  T
   6   -210.4665652 -0.196555E+00  0.907E-02    0.03       1.0  T
   7   -210.4682873 -0.172212E-02  0.388E-02    0.03       1.0  T
   8   -210.4679654  0.321957E-03  0.461E-02    0.03       1.0  T
   9   -210.4685011 -0.535769E-03  0.229E-02    0.03       1.0  T
  10   -210.4684881  0.130486E-04  0.228E-02    0.03       1.0  T
  11   -210.4685957 -0.107668E-03  0.973E-03    0.03       1.0  T
  12   -210.4685996 -0.387797E-05  0.821E-03    0.03       1.0  T
  13   -210.4686119 -0.122615E-04  0.381E-03    0.03       2.1  T
  14   -210.4686142 -0.236037E-05  0.156E-03    0.03       5.2  T
  15   -210.4686147 -0.469150E-06  0.643E-04    0.03      12.7  T
  16   -210.4686148 -0.692129E-07  0.344E-04    0.03      23.7  T
     SCC iter.                  ...        0 min,  1.323 sec
     gradient                   ...        0 min,  0.073 sec
 * total energy  :  -207.2857872 Eh     change       -0.4306543E-01 Eh
   gradient norm :     0.0558998 Eh/α   predicted    -0.4074298E-01 (  -5.39%)
   displ. norm   :     0.8401746 α      lambda       -0.3898995E-01
   maximum displ.:     0.2433172 α      in ANC's #30, #26, #37, ...

........................................................................
.............................. CYCLE    5 ..............................
........................................................................

 iter      E             dE          RMSdq      gap      omega  full diag
   1   -210.5151651 -0.210515E+03  0.181E-01    0.03       0.0  T
   2   -210.2266044  0.288561E+00  0.110E+00    0.20       1.0  T
   3   -210.4869163 -0.260312E+00  0.290E-01    0.07       1.0  T
   4   -210.3793094  0.107607E+00  0.614E-01    0.13       1.0  T
   5   -210.3968654 -0.175560E-01  0.652E-01    0.10       1.0  T
   6   -210.4920572 -0.951918E-01  0.251E-01    0.04       1.0  T
   7   -210.5161927 -0.241355E-01  0.524E-02    0.03       1.0  T
   8   -210.5163256 -0.132957E-03  0.442E-02    0.03       1.0  T
   9   -210.5165592 -0.233623E-03  0.340E-02    0.03       1.0  T
  10   -210.5167666 -0.207336E-03  0.222E-02    0.03       1.0  T
  11   -210.5168275 -0.609572E-04  0.152E-02    0.03       1.0  T
  12   -210.5168583 -0.307322E-04  0.916E-03    0.03       1.0  T
  13   -210.5168841 -0.258691E-04  0.270E-03    0.03       3.0  T
  14   -210.5168862 -0.210850E-05  0.647E-04    0.04      12.6  T
  15   -210.5168862  0.813655E-07  0.733E-04    0.04      11.1  T
  16   -210.5168863 -0.179831E-06  0.195E-04    0.04      41.7  T
     SCC iter.                  ...        0 min,  1.185 sec
     gradient                   ...        0 min,  0.072 sec
 * total energy  :  -207.3202569 Eh     change       -0.3446971E-01 Eh
   gradient norm :     0.0482205 Eh/α   predicted    -0.3325637E-01 (  -3.52%)
   displ. norm   :     0.8798574 α      lambda       -0.3323403E-01
   maximum displ.:     0.2727552 α      in ANC's #30, #37, #26, ...

........................................................................
.............................. CYCLE    6 ..............................
........................................................................

 iter      E             dE          RMSdq      gap      omega  full diag
   1   -210.5595133 -0.210560E+03  0.165E-01    0.03       0.0  T
   2   -210.2980435  0.261470E+00  0.105E+00    0.18       1.0  T
   3   -210.5316048 -0.233561E+00  0.284E-01    0.07       1.0  T
   4   -210.4419556  0.896492E-01  0.569E-01    0.11       1.0  T
   5   -210.4563213 -0.143656E-01  0.607E-01    0.09       1.0  T
   6   -210.5449407 -0.886195E-01  0.202E-01    0.04       1.0  T
   7   -210.5605044 -0.155637E-01  0.414E-02    0.03       1.0  T
   8   -210.5605387 -0.343397E-04  0.360E-02    0.03       1.0  T
   9   -210.5607676 -0.228833E-03  0.242E-02    0.04       1.0  T
  10   -210.5608580 -0.903947E-04  0.162E-02    0.04       1.0  T
  11   -210.5608958 -0.378699E-04  0.984E-03    0.04       1.0  T
  12   -210.5609127 -0.169155E-04  0.485E-03    0.04       1.7  T
  13   -210.5609204 -0.769185E-05  0.890E-04    0.04       9.1  T
  14   -210.5609206 -0.160746E-06  0.422E-04    0.04      19.3  T
  15   -210.5609206  0.436996E-07  0.476E-04    0.04      17.1  T
     SCC iter.                  ...        0 min,  1.147 sec
     gradient                   ...        0 min,  0.074 sec
 * total energy  :  -207.3493924 Eh     change       -0.2913542E-01 Eh
   gradient norm :     0.0442105 Eh/α   predicted    -0.2948107E-01 (   1.19%)
   displ. norm   :     0.9067776 α      lambda       -0.2944003E-01
   maximum displ.:     0.2697754 α      in ANC's #30, #26, #46, ...

........................................................................
.............................. CYCLE    7 ..............................
........................................................................

 iter      E             dE          RMSdq      gap      omega  full diag
   1   -210.5836725 -0.210584E+03  0.144E-01    0.04       0.0  T
   2   -210.4096632  0.174009E+00  0.848E-01    0.11       1.0  T
   3   -210.5821332 -0.172470E+00  0.119E-01    0.03       1.0  T
   4   -210.4904953  0.916379E-01  0.554E-01    0.10       1.0  T
   5   -210.4905099 -0.145771E-04  0.496E-01    0.09       1.0  T
   6   -210.5813922 -0.908823E-01  0.983E-02    0.04       1.0  T
   7   -210.5837237 -0.233149E-02  0.510E-02    0.03       1.0  T
   8   -210.5838688 -0.145085E-03  0.428E-02    0.03       1.0  T
   9   -210.5841975 -0.328723E-03  0.262E-02    0.04       1.0  T
  10   -210.5842902 -0.926517E-04  0.180E-02    0.04       1.0  T
  11   -210.5843616 -0.714662E-04  0.652E-03    0.04       1.2  T
  12   -210.5843718 -0.101462E-04  0.191E-03    0.04       4.3  T
  13   -210.5843727 -0.907332E-06  0.525E-04    0.04      15.5  T
  14   -210.5843727 -0.354701E-07  0.361E-04    0.04      22.5  T
     SCC iter.                  ...        0 min,  1.072 sec
     gradient                   ...        0 min,  0.075 sec
 * total energy  :  -207.3733354 Eh     change       -0.2394305E-01 Eh
   gradient norm :     0.0504935 Eh/α   predicted    -0.2682350E-01 (  12.03%)
   displ. norm   :     0.8472410 α      lambda       -0.2342918E-01
   maximum displ.:     0.2710833 α      in ANC's #30, #26, #37, ...

........................................................................
.............................. CYCLE    8 ..............................
........................................................................

 iter      E             dE          RMSdq      gap      omega  full diag
   1   -210.6147706 -0.210615E+03  0.120E-01    0.03       0.0  T
   2   -210.5575106  0.572599E-01  0.439E-01    0.10       1.0  T
   3   -210.5978598 -0.403492E-01  0.228E-01    0.04       1.0  T
   4   -210.5146886  0.831712E-01  0.518E-01    0.15       1.0  T
   5   -210.6062586 -0.915700E-01  0.169E-01    0.05       1.0  T
   6   -210.6102259 -0.396731E-02  0.114E-01    0.05       1.0  T
   7   -210.6148701 -0.464421E-02  0.331E-02    0.04       1.0  T
   8   -210.6149666 -0.965256E-04  0.242E-02    0.04       1.0  T
   9   -210.6151549 -0.188255E-03  0.558E-03    0.04       1.5  T
  10   -210.6151588 -0.397782E-05  0.418E-03    0.04       1.9  T
  11   -210.6151598 -0.932024E-06  0.346E-03    0.04       2.4  T
  12   -210.6151637 -0.395466E-05  0.105E-03    0.04       7.8  T
  13   -210.6151641 -0.384586E-06  0.357E-04    0.04      22.8  T
  14   -210.6151641 -0.241438E-07  0.133E-04    0.04      61.3  T
     SCC iter.                  ...        0 min,  0.822 sec
     gradient                   ...        0 min,  0.074 sec
 * total energy  :  -207.3932858 Eh     change       -0.1995033E-01 Eh
   gradient norm :     0.0320034 Eh/α   predicted    -0.2012353E-01 (   0.87%)
   displ. norm   :     0.8428365 α      lambda       -0.1754874E-01
   maximum displ.:     0.2483328 α      in ANC's #30, #26, #21, ...

........................................................................
.............................. CYCLE    9 ..............................
........................................................................

 iter      E             dE          RMSdq      gap      omega  full diag
   1   -210.6390971 -0.210639E+03  0.102E-01    0.03       0.0  T
   2   -210.6243788  0.147183E-01  0.216E-01    0.07       1.0  T
   3   -210.5829943  0.413844E-01  0.391E-01    0.07       1.0  T
   4   -210.5832948 -0.300466E-03  0.407E-01    0.09       1.0  T
   5   -210.6382066 -0.549118E-01  0.531E-02    0.03       1.0  T
   6   -210.6365608  0.164585E-02  0.904E-02    0.04       1.0  T
   7   -210.6390502 -0.248945E-02  0.235E-02    0.03       1.0  T
   8   -210.6391111 -0.609077E-04  0.163E-02    0.04       1.0  T
   9   -210.6391786 -0.674762E-04  0.517E-03    0.04       1.6  T
  10   -210.6391837 -0.508126E-05  0.338E-03    0.04       2.4  T
  11   -210.6391878 -0.412031E-05  0.885E-04    0.04       9.2  T
  12   -210.6391880 -0.195618E-06  0.429E-04    0.04      19.0  T
  13   -210.6391880 -0.439962E-07  0.140E-04    0.04      58.3  T
     SCC iter.                  ...        0 min,  0.924 sec
     gradient                   ...        0 min,  0.072 sec
 * total energy  :  -207.4086173 Eh     change       -0.1533150E-01 Eh
   gradient norm :     0.0262300 Eh/α   predicted    -0.1500745E-01 (  -2.11%)
   displ. norm   :     0.8302568 α      lambda       -0.1369571E-01
   maximum displ.:     0.2384641 α      in ANC's #30, #21, #26, ...

........................................................................
.............................. CYCLE   10 ..............................
........................................................................

 iter      E             dE          RMSdq      gap      omega  full diag
   1   -210.6568950 -0.210657E+03  0.892E-02    0.03       0.0  T
   2   -210.6535707  0.332426E-02  0.111E-01    0.04       1.0  T
   3   -210.5994084  0.541623E-01  0.404E-01    0.03       1.0  T
   4   -210.6102509 -0.108425E-01  0.384E-01    0.05       1.0  T
   5   -210.6342375 -0.239866E-01  0.253E-01    0.04       1.0  T
   6   -210.6560247 -0.217872E-01  0.517E-02    0.03       1.0  T
   7   -210.6564989 -0.474157E-03  0.398E-02    0.03       1.0  T
   8   -210.6568680 -0.369158E-03  0.177E-02    0.03       1.0  T
   9   -210.6569243 -0.562733E-04  0.942E-03    0.03       1.0  T
  10   -210.6569449 -0.206306E-04  0.399E-03    0.03       2.0  T
  11   -210.6569479 -0.295400E-05  0.157E-03    0.03       5.2  T
  12   -210.6569483 -0.440100E-06  0.887E-04    0.03       9.2  T
  13   -210.6569485 -0.220924E-06  0.217E-04    0.03      37.6  T
     SCC iter.                  ...        0 min,  1.032 sec
     gradient                   ...        0 min,  0.071 sec
 * total energy  :  -207.4204222 Eh     change       -0.1180495E-01 Eh
   gradient norm :     0.0205239 Eh/α   predicted    -0.1156827E-01 (  -2.00%)
   displ. norm   :     0.8203087 α      lambda       -0.1045318E-01
   maximum displ.:     0.2467265 α      in ANC's #21, #26, #24, ...

........................................................................
.............................. CYCLE   11 ..............................
........................................................................

 iter      E             dE          RMSdq      gap      omega  full diag
   1   -210.6737037 -0.210674E+03  0.848E-02    0.03       0.0  T
   2   -210.6704314  0.327236E-02  0.109E-01    0.03       1.0  T
   3   -210.6092850  0.611464E-01  0.408E-01    0.11       1.0  T
   4   -210.6317365 -0.224515E-01  0.360E-01    0.05       1.0  T
   5   -210.6657761 -0.340396E-01  0.163E-01    0.04       1.0  T
   6   -210.6732893 -0.751319E-02  0.410E-02    0.03       1.0  T
   7   -210.6734922 -0.202854E-03  0.312E-02    0.03       1.0  T
   8   -210.6736760 -0.183892E-03  0.157E-02    0.03       1.0  T
   9   -210.6737390 -0.629326E-04  0.495E-03    0.03       1.6  T
  10   -210.6737447 -0.575177E-05  0.129E-03    0.03       6.3  T
  11   -210.6737442  0.505823E-06  0.152E-03    0.03       5.3  T
  12   -210.6737450 -0.811792E-06  0.257E-04    0.03      31.7  T
  13   -210.6737451 -0.142233E-07  0.132E-04    0.03      61.5  T
     SCC iter.                  ...        0 min,  0.908 sec
     gradient                   ...        0 min,  0.072 sec
 * total energy  :  -207.4292414 Eh     change       -0.8819164E-02 Eh
   gradient norm :     0.0160626 Eh/α   predicted    -0.8743601E-02 (  -0.86%)
   displ. norm   :     0.8331805 α      lambda       -0.8449015E-02
   maximum displ.:     0.2582033 α      in ANC's #21, #15, #26, ...

........................................................................
.............................. CYCLE   12 ..............................
........................................................................

 iter      E             dE          RMSdq      gap      omega  full diag
   1   -210.6725051 -0.210673E+03  0.904E-02    0.03       0.0  T
   2   -210.6604298  0.120753E-01  0.191E-01    0.02       1.0  T
   3   -210.6261904  0.342394E-01  0.345E-01    0.09       1.0  T
   4   -210.6324799 -0.628950E-02  0.352E-01    0.05       1.0  T
   5   -210.6604552 -0.279753E-01  0.199E-01    0.04       1.0  T
   6   -210.6721440 -0.116889E-01  0.450E-02    0.03       1.0  T
   7   -210.6721790 -0.349726E-04  0.406E-02    0.03       1.0  T
   8   -210.6725458 -0.366807E-03  0.161E-02    0.03       1.0  T
   9   -210.6726064 -0.605787E-04  0.670E-03    0.03       1.2  T
  10   -210.6726166 -0.102425E-04  0.262E-03    0.03       3.1  T
  11   -210.6726165  0.156469E-06  0.231E-03    0.03       3.5  T
  12   -210.6726181 -0.163247E-05  0.610E-04    0.03      13.3  T
  13   -210.6726182 -0.552170E-07  0.375E-04    0.03      21.7  T
  14   -210.6726182 -0.324482E-07  0.101E-04    0.03      80.2  T
     SCC iter.                  ...        0 min,  1.031 sec
     gradient                   ...        0 min,  0.072 sec
 * total energy  :  -207.4353234 Eh     change       -0.6082086E-02 Eh
   gradient norm :     0.0306429 Eh/α   predicted    -0.7157122E-02 (  17.68%)
   displ. norm   :     0.7441085 α      lambda       -0.7445118E-02
   maximum displ.:     0.2257551 α      in ANC's #21, #11, #26, ...

........................................................................
.............................. CYCLE   13 ..............................
........................................................................

 iter      E             dE          RMSdq      gap      omega  full diag
   1   -210.6879435 -0.210688E+03  0.800E-02    0.03       0.0  T
   2   -210.6672012  0.207422E-01  0.267E-01    0.02       1.0  T
   3   -210.6773369 -0.101357E-01  0.173E-01    0.05       1.0  T
   4   -210.6115080  0.658289E-01  0.460E-01    0.08       1.0  T
   5   -210.6672762 -0.557682E-01  0.261E-01    0.05       1.0  T
   6   -210.6863282 -0.190520E-01  0.721E-02    0.03       1.0  T
   7   -210.6876804 -0.135222E-02  0.385E-02    0.03       1.0  T
   8   -210.6879699 -0.289447E-03  0.201E-02    0.03       1.0  T
   9   -210.6880387 -0.688308E-04  0.119E-02    0.03       1.0  T
  10   -210.6880757 -0.369366E-04  0.398E-03    0.03       2.0  T
  11   -210.6880783 -0.268573E-05  0.209E-03    0.03       3.9  T
  12   -210.6880793 -0.101092E-05  0.831E-04    0.03       9.8  T
  13   -210.6880795 -0.143471E-06  0.355E-04    0.03      22.9  T
  14   -210.6880795 -0.333146E-07  0.604E-05    0.03     134.8  T
     SCC iter.                  ...        0 min,  1.010 sec
     gradient                   ...        0 min,  0.083 sec
 * total energy  :  -207.4407546 Eh     change       -0.5431118E-02 Eh
   gradient norm :     0.0196739 Eh/α   predicted    -0.5783734E-02 (   6.49%)
   displ. norm   :     0.7595166 α      lambda       -0.5455095E-02
   maximum displ.:     0.2297916 α      in ANC's #21, #15, #11, ...

........................................................................
.............................. CYCLE   14 ..............................
........................................................................

 iter      E             dE          RMSdq      gap      omega  full diag
   1   -210.6908983 -0.210691E+03  0.872E-02    0.03       0.0  T
   2   -210.6029298  0.879684E-01  0.594E-01    0.06       1.0  T
   3   -210.6900075 -0.870777E-01  0.791E-02    0.02       1.0  T
   4   -210.6377080  0.522995E-01  0.389E-01    0.08       1.0  T
   5   -210.6357196  0.198842E-02  0.381E-01    0.07       1.0  T
   6   -210.6901135 -0.543939E-01  0.575E-02    0.03       1.0  T
   7   -210.6910609 -0.947404E-03  0.230E-02    0.03       1.0  T
   8   -210.6911335 -0.725855E-04  0.159E-02    0.03       1.0  T
   9   -210.6911845 -0.510087E-04  0.882E-03    0.03       1.0  T
  10   -210.6912031 -0.186460E-04  0.299E-03    0.03       2.7  T
  11   -210.6912047 -0.157788E-05  0.172E-03    0.03       4.7  T
  12   -210.6912053 -0.627033E-06  0.609E-04    0.03      13.4  T
  13   -210.6912054 -0.410211E-07  0.538E-04    0.03      15.1  T
     SCC iter.                  ...        0 min,  0.929 sec
     gradient                   ...        0 min,  0.073 sec
 * total energy  :  -207.4446419 Eh     change       -0.3887334E-02 Eh
   gradient norm :     0.0299697 Eh/α   predicted    -0.4300988E-02 (  10.64%)
   displ. norm   :     0.7354973 α      lambda       -0.5611666E-02
   maximum displ.:     0.2178471 α      in ANC's #21, #15, #2, ...

........................................................................
.............................. CYCLE   15 ..............................
........................................................................

 iter      E             dE          RMSdq      gap      omega  full diag
   1   -210.6876713 -0.210688E+03  0.869E-02    0.03       0.0  T
   2   -210.5999409  0.877305E-01  0.590E-01    0.06       1.0  T
   3   -210.6863405 -0.863996E-01  0.874E-02    0.02       1.0  T
   4   -210.6289540  0.573865E-01  0.399E-01    0.09       1.0  T
   5   -210.6518334 -0.228794E-01  0.313E-01    0.06       1.0  T
   6   -210.6868367 -0.350033E-01  0.583E-02    0.03       1.0  T
   7   -210.6878397 -0.100299E-02  0.248E-02    0.03       1.0  T
   8   -210.6879514 -0.111791E-03  0.142E-02    0.03       1.0  T
   9   -210.6879946 -0.432012E-04  0.825E-03    0.03       1.0  T
  10   -210.6880104 -0.157766E-04  0.277E-03    0.03       2.9  T
  11   -210.6880117 -0.124621E-05  0.190E-03    0.03       4.3  T
  12   -210.6880124 -0.711954E-06  0.792E-04    0.03      10.3  T
  13   -210.6880125 -0.116436E-06  0.554E-04    0.03      14.7  T
     SCC iter.                  ...        0 min,  0.812 sec
     gradient                   ...        0 min,  0.072 sec
 * total energy  :  -207.4482549 Eh     change       -0.3612970E-02 Eh
   gradient norm :     0.0213109 Eh/α   predicted    -0.4323673E-02 (  19.67%)
   displ. norm   :     0.6768243 α      lambda       -0.4687990E-02
   maximum displ.:     0.1918457 α      in ANC's #15, #21, #11, ...

........................................................................
.............................. CYCLE   16 ..............................
........................................................................

 iter      E             dE          RMSdq      gap      omega  full diag
   1   -210.6973388 -0.210697E+03  0.779E-02    0.03       0.0  T
   2   -210.6433287  0.540101E-01  0.415E-01    0.02       1.0  T
   3   -210.6926093 -0.492806E-01  0.120E-01    0.04       1.0  T
   4   -210.6387705  0.538388E-01  0.403E-01    0.07       1.0  T
   5   -210.6747945 -0.360239E-01  0.270E-01    0.05       1.0  T
   6   -210.6960184 -0.212239E-01  0.667E-02    0.02       1.0  T
   7   -210.6974320 -0.141363E-02  0.256E-02    0.03       1.0  T
   8   -210.6975532 -0.121229E-03  0.143E-02    0.03       1.0  T
   9   -210.6976004 -0.471358E-04  0.692E-03    0.03       1.2  T
  10   -210.6976102 -0.986351E-05  0.315E-03    0.03       2.6  T
  11   -210.6976125 -0.227503E-05  0.128E-03    0.03       6.4  T
  12   -210.6976129 -0.419697E-06  0.394E-04    0.03      20.7  T
  13   -210.6976129 -0.249444E-07  0.255E-04    0.03      31.9  T
     SCC iter.                  ...        0 min,  0.801 sec
     gradient                   ...        0 min,  0.073 sec
 * total energy  :  -207.4515779 Eh     change       -0.3323014E-02 Eh
   gradient norm :     0.0168478 Eh/α   predicted    -0.3417760E-02 (   2.85%)
   displ. norm   :     0.7214709 α      lambda       -0.3840209E-02
   maximum displ.:     0.2479146 α      in ANC's #11, #15, #8, ...

........................................................................
.............................. CYCLE   17 ..............................
........................................................................

 iter      E             dE          RMSdq      gap      omega  full diag
   1   -210.6987527 -0.210699E+03  0.730E-02    0.03       0.0  T
   2   -210.6656379  0.331147E-01  0.344E-01    0.03       1.0  T
   3   -210.6956482 -0.300102E-01  0.102E-01    0.03       1.0  T
   4   -210.6297521  0.658960E-01  0.430E-01    0.08       1.0  T
   5   -210.6758689 -0.461168E-01  0.269E-01    0.05       1.0  T
   6   -210.6978418 -0.219728E-01  0.545E-02    0.03       1.0  T
   7   -210.6987044 -0.862594E-03  0.277E-02    0.03       1.0  T
   8   -210.6988686 -0.164190E-03  0.136E-02    0.03       1.0  T
   9   -210.6988997 -0.311567E-04  0.826E-03    0.03       1.0  T
  10   -210.6989153 -0.155728E-04  0.323E-03    0.03       2.5  T
  11   -210.6989176 -0.231902E-05  0.104E-03    0.03       7.8  T
  12   -210.6989178 -0.164036E-06  0.604E-04    0.03      13.5  T
  13   -210.6989179 -0.107766E-06  0.204E-04    0.03      39.8  T
     SCC iter.                  ...        0 min,  0.714 sec
     gradient                   ...        0 min,  0.072 sec
 * total energy  :  -207.4545185 Eh     change       -0.2940605E-02 Eh
   gradient norm :     0.0148372 Eh/α   predicted    -0.2919558E-02 (  -0.72%)
   displ. norm   :     0.7583100 α      lambda       -0.3198174E-02
   maximum displ.:     0.2476010 α      in ANC's #15, #11, #8, ...

........................................................................
.............................. CYCLE   18 ..............................
........................................................................

 iter      E             dE          RMSdq      gap      omega  full diag
   1   -210.6982527 -0.210698E+03  0.745E-02    0.03       0.0  T
   2   -210.6701639  0.280889E-01  0.325E-01    0.03       1.0  T
   3   -210.6964662 -0.263023E-01  0.858E-02    0.03       1.0  T
   4   -210.6230329  0.734332E-01  0.447E-01    0.09       1.0  T
   5   -210.6757187 -0.526858E-01  0.262E-01    0.05       1.0  T
   6   -210.6982845 -0.225658E-01  0.221E-02    0.03       1.0  T
   7   -210.6981049  0.179642E-03  0.310E-02    0.03       1.0  T
   8   -210.6983219 -0.216997E-03  0.150E-02    0.03       1.0  T
   9   -210.6983674 -0.455670E-04  0.779E-03    0.03       1.0  T
  10   -210.6983789 -0.114534E-04  0.398E-03    0.03       2.0  T
  11   -210.6983828 -0.394508E-05  0.719E-04    0.03      11.3  T
  12   -210.6983829 -0.920014E-07  0.420E-04    0.03      19.4  T
  13   -210.6983829 -0.187221E-07  0.280E-04    0.03      29.0  T
     SCC iter.                  ...        0 min,  0.843 sec
     gradient                   ...        0 min,  0.073 sec
 * total energy  :  -207.4569163 Eh     change       -0.2397813E-02 Eh
   gradient norm :     0.0153253 Eh/α   predicted    -0.2518625E-02 (   5.04%)
   displ. norm   :     0.7491341 α      lambda       -0.2825035E-02
   maximum displ.:     0.2377053 α      in ANC's #15, #11, #8, ...

........................................................................
.............................. CYCLE   19 ..............................
........................................................................

 iter      E             dE          RMSdq      gap      omega  full diag
   1   -210.7002248 -0.210700E+03  0.657E-02    0.03       0.0  T
   2   -210.6442521  0.559727E-01  0.375E-01    0.05       1.0  T
   3   -210.6953884 -0.511363E-01  0.127E-01    0.04       1.0  T
   4   -210.6933682  0.202015E-02  0.158E-01    0.03       1.0  T
   5   -210.6982021 -0.483391E-02  0.835E-02    0.03       1.0  T
   6   -210.7000542 -0.185206E-02  0.356E-02    0.03       1.0  T
   7   -210.7002322 -0.178069E-03  0.232E-02    0.03       1.0  T
   8   -210.7003573 -0.125040E-03  0.112E-02    0.03       1.0  T
   9   -210.7003911 -0.338299E-04  0.179E-03    0.03       4.6  T
  10   -210.7003905  0.586205E-06  0.193E-03    0.03       4.2  T
  11   -210.7003919 -0.133809E-05  0.577E-04    0.03      14.1  T
  12   -210.7003919 -0.464407E-07  0.431E-04    0.03      18.9  T
  13   -210.7003920 -0.557922E-07  0.146E-04    0.03      55.6  T
     SCC iter.                  ...        0 min,  0.805 sec
     gradient                   ...        0 min,  0.077 sec
 * total energy  :  -207.4591458 Eh     change       -0.2229542E-02 Eh
   gradient norm :     0.0155555 Eh/α   predicted    -0.2205224E-02 (  -1.09%)
   displ. norm   :     0.7323431 α      lambda       -0.2436453E-02
   maximum displ.:     0.2377758 α      in ANC's #15, #11, #18, ...

........................................................................
.............................. CYCLE   20 ..............................
........................................................................

 iter      E             dE          RMSdq      gap      omega  full diag
   1   -210.7061431 -0.210706E+03  0.631E-02    0.03       0.0  T
   2   -210.6493142  0.568289E-01  0.396E-01    0.06       1.0  T
   3   -210.6883551 -0.390409E-01  0.214E-01    0.06       1.0  T
   4   -210.6974020 -0.904690E-02  0.183E-01    0.03       1.0  T
   5   -210.7048435 -0.744141E-02  0.722E-02    0.03       1.0  T
   6   -210.7059907 -0.114719E-02  0.385E-02    0.03       1.0  T
   7   -210.7059702  0.204439E-04  0.385E-02    0.03       1.0  T
   8   -210.7062443 -0.274060E-03  0.200E-02    0.03       1.0  T
   9   -210.7063390 -0.947760E-04  0.672E-03    0.03       1.2  T
  10   -210.7063471 -0.802236E-05  0.289E-03    0.03       2.8  T
  11   -210.7063491 -0.206278E-05  0.360E-04    0.03      22.6  T
  12   -210.7063491 -0.145366E-07  0.205E-04    0.03      39.7  T
  13   -210.7063492 -0.439070E-08  0.123E-04    0.03      65.9  T
     SCC iter.                  ...        0 min,  0.936 sec
     gradient                   ...        0 min,  0.082 sec
 * total energy  :  -207.4611789 Eh     change       -0.2033040E-02 Eh
   gradient norm :     0.0149557 Eh/α   predicted    -0.1871596E-02 (  -7.94%)
   displ. norm   :     0.7610601 α      lambda       -0.2490223E-02
   maximum displ.:     0.2597712 α      in ANC's #18, #11, #15, ...
 * RMSD in coord.:     0.9686824 α      energy gain  -0.4485473E+00 Eh

generating ANC from model Hessian ...
Using Lindh-Hessian (1995)
 Shifting diagonal of input Hessian by    1.0906767784487448E-002
 Lowest  eigenvalues of input Hessian
    0.010000    0.010723    0.000000    0.000000    0.000000    0.000000
    0.000000    0.000000    0.010937    0.010992    0.011058    0.011092
    0.011193    0.011290    0.011322    0.011356    0.011497    0.011542
 Highest eigenvalues
    2.077072    2.085482    2.180577    2.181619    2.189855    2.201883


........................................................................
.............................. CYCLE   21 ..............................
........................................................................

 iter      E             dE          RMSdq      gap      omega  full diag
   1   -210.7118067 -0.210712E+03  0.754E-02    0.03       0.0  T
   2   -210.6308332  0.809734E-01  0.475E-01    0.08       1.0  T
   3   -210.6700350 -0.392017E-01  0.329E-01    0.08       1.0  T
   4   -210.7085667 -0.385317E-01  0.117E-01    0.03       1.0  T
   5   -210.7109010 -0.233434E-02  0.733E-02    0.03       1.0  T
   6   -210.7114701 -0.569093E-03  0.564E-02    0.03       1.0  T
   7   -210.7118606 -0.390436E-03  0.412E-02    0.03       1.0  T
   8   -210.7122572 -0.396639E-03  0.110E-02    0.03       1.0  T
   9   -210.7122899 -0.326993E-04  0.386E-03    0.03       2.1  T
  10   -210.7122915 -0.159575E-05  0.407E-03    0.03       2.0  T
  11   -210.7122946 -0.314894E-05  0.179E-03    0.03       4.6  T
  12   -210.7122954 -0.815496E-06  0.176E-04    0.03      46.2  T
  13   -210.7122954  0.409281E-08  0.218E-04    0.03      37.4  T
     SCC iter.                  ...        0 min,  1.096 sec
     gradient                   ...        0 min,  0.081 sec
 * total energy  :  -207.4631782 Eh     change       -0.1999298E-02 Eh
   gradient norm :     0.0133055 Eh/α   predicted     0.0000000E+00 (-100.00%)
   displ. norm   :     0.2298237 α      lambda       -0.1119709E-02
   maximum displ.:     0.0907664 α      in ANC's #7, #17, #4, ...

........................................................................
.............................. CYCLE   22 ..............................
........................................................................

 iter      E             dE          RMSdq      gap      omega  full diag
   1   -210.7134492 -0.210713E+03  0.279E-02    0.03       0.0  T
   2   -210.7084337  0.501543E-02  0.114E-01    0.03       1.0  T
   3   -210.7121494 -0.371566E-02  0.593E-02    0.04       1.0  T
   4   -210.7121288  0.206393E-04  0.679E-02    0.03       1.0  T
   5   -210.7131035 -0.974782E-03  0.365E-02    0.03       1.0  T
   6   -210.7133457 -0.242125E-03  0.198E-02    0.03       1.0  T
   7   -210.7134600 -0.114317E-03  0.256E-03    0.03       3.2  T
   8   -210.7134614 -0.139539E-05  0.112E-03    0.03       7.3  T
   9   -210.7134617 -0.265838E-06  0.436E-04    0.03      18.6  T
  10   -210.7134616  0.831156E-08  0.386E-04    0.03      21.1  T
     SCC iter.                  ...        0 min,  0.737 sec
     gradient                   ...        0 min,  0.074 sec
 * total energy  :  -207.4641266 Eh     change       -0.9484018E-03 Eh
   gradient norm :     0.0058516 Eh/α   predicted    -0.5898019E-03 ( -37.81%)
   displ. norm   :     0.6140162 α      lambda       -0.2058129E-02
   maximum displ.:     0.2492162 α      in ANC's #7, #17, #4, ...

........................................................................
.............................. CYCLE   23 ..............................
........................................................................

 iter      E             dE          RMSdq      gap      omega  full diag
   1   -210.7130033 -0.210713E+03  0.568E-02    0.03       0.0  T
   2   -210.6781383  0.348650E-01  0.301E-01    0.05       1.0  T
   3   -210.7107691 -0.326307E-01  0.826E-02    0.04       1.0  T
   4   -210.7064672  0.430186E-02  0.150E-01    0.04       1.0  T
   5   -210.7123128 -0.584557E-02  0.510E-02    0.03       1.0  T
   6   -210.7120607  0.252141E-03  0.586E-02    0.03       1.0  T
   7   -210.7130668 -0.100615E-02  0.795E-03    0.03       1.0  T
   8   -210.7130802 -0.133633E-04  0.357E-03    0.03       2.3  T
   9   -210.7130828 -0.263026E-05  0.155E-03    0.03       5.2  T
  10   -210.7130825  0.256563E-06  0.154E-03    0.03       5.3  T
  11   -210.7130833 -0.781875E-06  0.295E-04    0.03      27.6  T
  12   -210.7130833 -0.437512E-08  0.203E-04    0.03      40.2  T
     SCC iter.                  ...        0 min,  1.371 sec
     gradient                   ...        0 min,  0.076 sec
 * total energy  :  -207.4657510 Eh     change       -0.1624379E-02 Eh
   gradient norm :     0.0111722 Eh/α   predicted    -0.1417217E-02 ( -12.75%)
   displ. norm   :     0.6697539 α      lambda       -0.1701810E-02
   maximum displ.:     0.2831672 α      in ANC's #7, #17, #4, ...

........................................................................
.............................. CYCLE   24 ..............................
........................................................................

 iter      E             dE          RMSdq      gap      omega  full diag
   1   -210.7111683 -0.210711E+03  0.526E-02    0.03       0.0  T
   2   -210.6727982  0.383701E-01  0.316E-01    0.05       1.0  T
   3   -210.7100656 -0.372674E-01  0.615E-02    0.04       1.0  T
   4   -210.7005826  0.948305E-02  0.189E-01    0.03       1.0  T
   5   -210.7063388 -0.575623E-02  0.130E-01    0.04       1.0  T
   6   -210.7112067 -0.486790E-02  0.142E-02    0.03       1.0  T
   7   -210.7112315 -0.248223E-04  0.846E-03    0.03       1.0  T
   8   -210.7112478 -0.162626E-04  0.426E-03    0.03       1.9  T
   9   -210.7112517 -0.391206E-05  0.188E-03    0.03       4.3  T
  10   -210.7112525 -0.781990E-06  0.609E-04    0.03      13.4  T
  11   -210.7112526 -0.120859E-06  0.141E-04    0.03      57.7  T
     SCC iter.                  ...        0 min,  1.163 sec
     gradient                   ...        0 min,  0.080 sec
 * total energy  :  -207.4672050 Eh     change       -0.1454041E-02 Eh
   gradient norm :     0.0179051 Eh/α   predicted    -0.1232643E-02 ( -15.23%)
   displ. norm   :     0.7053161 α      lambda       -0.1993335E-02
   maximum displ.:     0.3062449 α      in ANC's #7, #17, #4, ...

........................................................................
.............................. CYCLE   25 ..............................
........................................................................

 iter      E             dE          RMSdq      gap      omega  full diag
   1   -210.7120299 -0.210712E+03  0.506E-02    0.04       0.0  T
   2   -210.6720074  0.400225E-01  0.322E-01    0.05       1.0  T
   3   -210.7114852 -0.394779E-01  0.485E-02    0.04       1.0  T
   4   -210.7063929  0.509237E-02  0.136E-01    0.04       1.0  T
   5   -210.7109955 -0.460266E-02  0.604E-02    0.04       1.0  T
   6   -210.7120099 -0.101437E-02  0.201E-02    0.03       1.0  T
   7   -210.7121067 -0.967922E-04  0.439E-03    0.03       1.9  T
   8   -210.7121113 -0.461792E-05  0.178E-03    0.03       4.6  T
   9   -210.7121116 -0.250675E-06  0.125E-03    0.03       6.5  T
  10   -210.7121120 -0.389765E-06  0.653E-04    0.03      12.5  T
  11   -210.7121121 -0.133229E-06  0.210E-04    0.03      38.8  T
     SCC iter.                  ...        0 min,  0.768 sec
     gradient                   ...        0 min,  0.072 sec
 * total energy  :  -207.4689874 Eh     change       -0.1782428E-02 Eh
   gradient norm :     0.0163753 Eh/α   predicted    -0.1492484E-02 ( -16.27%)
   displ. norm   :     0.7116945 α      lambda       -0.2355118E-02
   maximum displ.:     0.3175619 α      in ANC's #7, #17, #4, ...

........................................................................
.............................. CYCLE   26 ..............................
........................................................................

 iter      E             dE          RMSdq      gap      omega  full diag
   1   -210.7194956 -0.210719E+03  0.547E-02    0.04       0.0  T
   2   -210.6938454  0.256502E-01  0.259E-01    0.04       1.0  T
   3   -210.7171428 -0.232974E-01  0.830E-02    0.04       1.0  T
   4   -210.7061775  0.109653E-01  0.215E-01    0.03       1.0  T
   5   -210.7163565 -0.101790E-01  0.104E-01    0.04       1.0  T
   6   -210.7194417 -0.308522E-02  0.208E-02    0.04       1.0  T
   7   -210.7195370 -0.952719E-04  0.716E-03    0.03       1.1  T
   8   -210.7195516 -0.146116E-04  0.279E-03    0.04       2.9  T
   9   -210.7195539 -0.233053E-05  0.115E-03    0.04       7.1  T
  10   -210.7195542 -0.267660E-06  0.420E-04    0.04      19.4  T
  11   -210.7195542 -0.335735E-07  0.207E-04    0.04      39.3  T
     SCC iter.                  ...        0 min,  0.892 sec
     gradient                   ...        0 min,  0.084 sec
 * total energy  :  -207.4709046 Eh     change       -0.1917142E-02 Eh
   gradient norm :     0.0073521 Eh/α   predicted    -0.1774017E-02 (  -7.47%)
   displ. norm   :     0.8533432 α      lambda       -0.2038815E-02
   maximum displ.:     0.3656535 α      in ANC's #7, #17, #4, ...

........................................................................
.............................. CYCLE   27 ..............................
........................................................................

 iter      E             dE          RMSdq      gap      omega  full diag
   1   -210.7166262 -0.210717E+03  0.640E-02    0.04       0.0  T
   2   -210.6948994  0.217268E-01  0.236E-01    0.04       1.0  T
   3   -210.7091725 -0.142731E-01  0.142E-01    0.06       1.0  T
   4   -210.7061133  0.305922E-02  0.199E-01    0.04       1.0  T
   5   -210.7162036 -0.100904E-01  0.407E-02    0.04       1.0  T
   6   -210.7161826  0.210454E-04  0.430E-02    0.04       1.0  T
   7   -210.7166503 -0.467690E-03  0.129E-02    0.04       1.0  T
   8   -210.7166855 -0.351747E-04  0.575E-03    0.04       1.4  T
   9   -210.7166962 -0.107498E-04  0.120E-03    0.04       6.8  T
  10   -210.7166962  0.506924E-07  0.109E-03    0.04       7.4  T
  11   -210.7166965 -0.358849E-06  0.352E-04    0.04      23.1  T
  12   -210.7166965 -0.322901E-07  0.878E-05    0.04      92.7  T
     SCC iter.                  ...        0 min,  1.176 sec
     gradient                   ...        0 min,  0.080 sec
 * total energy  :  -207.4724747 Eh     change       -0.1570129E-02 Eh
   gradient norm :     0.0152202 Eh/α   predicted    -0.1761735E-02 (  12.20%)
   displ. norm   :     0.6882904 α      lambda       -0.1651283E-02
   maximum displ.:     0.3157975 α      in ANC's #7, #17, #4, ...

........................................................................
.............................. CYCLE   28 ..............................
........................................................................

 iter      E             dE          RMSdq      gap      omega  full diag
   1   -210.7219303 -0.210722E+03  0.512E-02    0.04       0.0  T
   2   -210.7121047  0.982564E-02  0.165E-01    0.03       1.0  T
   3   -210.7122747 -0.170003E-03  0.156E-01    0.06       1.0  T
   4   -210.7103281  0.194664E-02  0.191E-01    0.04       1.0  T
   5   -210.7170768 -0.674869E-02  0.128E-01    0.04       1.0  T
   6   -210.7219213 -0.484455E-02  0.159E-02    0.04       1.0  T
   7   -210.7219411 -0.198322E-04  0.124E-02    0.04       1.0  T
   8   -210.7219727 -0.315155E-04  0.586E-03    0.04       1.4  T
   9   -210.7219808 -0.811748E-05  0.190E-03    0.04       4.3  T
  10   -210.7219816 -0.867179E-06  0.644E-04    0.04      12.6  T
  11   -210.7219817 -0.105154E-06  0.319E-04    0.04      25.5  T
     SCC iter.                  ...        0 min,  0.748 sec
     gradient                   ...        0 min,  0.076 sec
 * total energy  :  -207.4738836 Eh     change       -0.1408868E-02 Eh
   gradient norm :     0.0103547 Eh/α   predicted    -0.1216784E-02 ( -13.63%)
   displ. norm   :     0.7762410 α      lambda       -0.1572444E-02
   maximum displ.:     0.3578767 α      in ANC's #7, #17, #4, ...

........................................................................
.............................. CYCLE   29 ..............................
........................................................................

 iter      E             dE          RMSdq      gap      omega  full diag
   1   -210.7253784 -0.210725E+03  0.524E-02    0.04       0.0  T
   2   -210.7150834  0.102950E-01  0.187E-01    0.04       1.0  T
   3   -210.7204598 -0.537642E-02  0.114E-01    0.05       1.0  T
   4   -210.6936112  0.268486E-01  0.292E-01    0.05       1.0  T
   5   -210.7188813 -0.252701E-01  0.146E-01    0.05       1.0  T
   6   -210.7253084 -0.642715E-02  0.214E-02    0.04       1.0  T
   7   -210.7253986 -0.901913E-04  0.138E-02    0.04       1.0  T
   8   -210.7254379 -0.392553E-04  0.714E-03    0.04       1.1  T
   9   -210.7254495 -0.116490E-04  0.293E-03    0.04       2.8  T
  10   -210.7254513 -0.178674E-05  0.123E-03    0.04       6.6  T
  11   -210.7254517 -0.382402E-06  0.338E-04    0.04      24.1  T
  12   -210.7254517 -0.220127E-07  0.223E-04    0.04      36.5  T
     SCC iter.                  ...        0 min,  0.685 sec
     gradient                   ...        0 min,  0.074 sec
 * total energy  :  -207.4752888 Eh     change       -0.1405232E-02 Eh
   gradient norm :     0.0079497 Eh/α   predicted    -0.1259964E-02 ( -10.34%)
   displ. norm   :     0.8297294 α      lambda       -0.1563037E-02
   maximum displ.:     0.3759373 α      in ANC's #7, #17, #6, ...

........................................................................
.............................. CYCLE   30 ..............................
........................................................................

 iter      E             dE          RMSdq      gap      omega  full diag
   1   -210.7306090 -0.210731E+03  0.561E-02    0.04       0.0  T
   2   -210.7136648  0.169442E-01  0.256E-01    0.05       1.0  T
   3   -210.7296738 -0.160091E-01  0.664E-02    0.04       1.0  T
   4   -210.7189963  0.106775E-01  0.178E-01    0.04       1.0  T
   5   -210.6957891  0.232072E-01  0.301E-01    0.08       1.0  T
   6   -210.7303288 -0.345397E-01  0.338E-02    0.04       1.0  T
   7   -210.7306514 -0.322643E-03  0.152E-02    0.04       1.0  T
   8   -210.7306903 -0.388348E-04  0.919E-03    0.04       1.0  T
   9   -210.7307091 -0.188976E-04  0.398E-03    0.04       2.0  T
  10   -210.7307131 -0.395483E-05  0.113E-03    0.04       7.2  T
  11   -210.7307133 -0.238103E-06  0.368E-04    0.04      22.1  T
  12   -210.7307134 -0.113845E-07  0.319E-04    0.04      25.5  T
     SCC iter.                  ...        0 min,  0.989 sec
     gradient                   ...        0 min,  0.094 sec
 * total energy  :  -207.4766969 Eh     change       -0.1408085E-02 Eh
   gradient norm :     0.0059106 Eh/α   predicted    -0.1319557E-02 (  -6.29%)
   displ. norm   :     0.8722964 α      lambda       -0.1452400E-02
   maximum displ.:     0.3880990 α      in ANC's #7, #5, #6, ...

........................................................................
.............................. CYCLE   31 ..............................
........................................................................

 iter      E             dE          RMSdq      gap      omega  full diag
   1   -210.7286811 -0.210729E+03  0.592E-02    0.04       0.0  T
   2   -210.7056392  0.230419E-01  0.301E-01    0.06       1.0  T
   3   -210.7280897 -0.224505E-01  0.598E-02    0.04       1.0  T
   4   -210.7195942  0.849551E-02  0.171E-01    0.05       1.0  T
   5   -210.6786061  0.409881E-01  0.353E-01    0.07       1.0  T
   6   -210.7286576 -0.500515E-01  0.242E-02    0.04       1.0  T
   7   -210.7287260 -0.684564E-04  0.172E-02    0.04       1.0  T
   8   -210.7287807 -0.546872E-04  0.959E-03    0.04       1.0  T
   9   -210.7288005 -0.197922E-04  0.472E-03    0.04       1.7  T
  10   -210.7288057 -0.522110E-05  0.150E-03    0.04       5.4  T
  11   -210.7288062 -0.485965E-06  0.336E-04    0.04      24.2  T
  12   -210.7288061  0.651166E-07  0.478E-04    0.04      17.0  T
     SCC iter.                  ...        0 min,  0.878 sec
     gradient                   ...        0 min,  0.069 sec
 * total energy  :  -207.4779821 Eh     change       -0.1285211E-02 Eh
   gradient norm :     0.0070509 Eh/α   predicted    -0.1278770E-02 (  -0.50%)
   displ. norm   :     0.8140220 α      lambda       -0.1479478E-02
   maximum displ.:     0.3326246 α      in ANC's #7, #5, #6, ...

........................................................................
.............................. CYCLE   32 ..............................
........................................................................

 iter      E             dE          RMSdq      gap      omega  full diag
   1   -210.7427037 -0.210743E+03  0.658E-02    0.04       0.0  T
   2   -210.6928185  0.498852E-01  0.442E-01    0.08       1.0  T
   3   -210.7419339 -0.491154E-01  0.679E-02    0.04       1.0  T
   4   -210.7165481  0.253858E-01  0.268E-01    0.07       1.0  T
   5   -210.7012034  0.153447E-01  0.320E-01    0.07       1.0  T
   6   -210.7425662 -0.413627E-01  0.368E-02    0.04       1.0  T
   7   -210.7428514 -0.285181E-03  0.181E-02    0.04       1.0  T
   8   -210.7429148 -0.634694E-04  0.971E-03    0.04       1.0  T
   9   -210.7429311 -0.162729E-04  0.603E-03    0.04       1.3  T
  10   -210.7429401 -0.895696E-05  0.152E-03    0.04       5.4  T
  11   -210.7429405 -0.430501E-06  0.431E-04    0.04      18.9  T
  12   -210.7429404  0.894074E-07  0.562E-04    0.04      14.5  T
     SCC iter.                  ...        0 min,  0.781 sec
     gradient                   ...        0 min,  0.076 sec
 * total energy  :  -207.4789104 Eh     change       -0.9283270E-03 Eh
   gradient norm :     0.0133420 Eh/α   predicted    -0.1229914E-02 (  32.49%)
   displ. norm   :     0.7749518 α      lambda       -0.1431078E-02
   maximum displ.:     0.3282343 α      in ANC's #7, #5, #6, ...

........................................................................
.............................. CYCLE   33 ..............................
........................................................................

 iter      E             dE          RMSdq      gap      omega  full diag
   1   -210.7331128 -0.210733E+03  0.565E-02    0.04       0.0  T
   2   -210.7000657  0.330471E-01  0.357E-01    0.06       1.0  T
   3   -210.7325017 -0.324360E-01  0.576E-02    0.04       1.0  T
   4   -210.7113105  0.211912E-01  0.238E-01    0.05       1.0  T
   5   -210.7118306 -0.520134E-03  0.242E-01    0.06       1.0  T
   6   -210.7328913 -0.210607E-01  0.344E-02    0.04       1.0  T
   7   -210.7332248 -0.333426E-03  0.134E-02    0.04       1.0  T
   8   -210.7332600 -0.352449E-04  0.749E-03    0.04       1.1  T
   9   -210.7332698 -0.982681E-05  0.458E-03    0.04       1.8  T
  10   -210.7332751 -0.525278E-05  0.117E-03    0.04       7.0  T
  11   -210.7332753 -0.227993E-06  0.522E-04    0.04      15.6  T
  12   -210.7332754 -0.714367E-07  0.236E-04    0.04      34.4  T
     SCC iter.                  ...        0 min,  0.975 sec
     gradient                   ...        0 min,  0.075 sec
 * total energy  :  -207.4799348 Eh     change       -0.1024376E-02 Eh
   gradient norm :     0.0088746 Eh/α   predicted    -0.1145261E-02 (  11.80%)
   displ. norm   :     0.7344437 α      lambda       -0.9534393E-03
   maximum displ.:     0.3127593 α      in ANC's #7, #5, #6, ...

........................................................................
.............................. CYCLE   34 ..............................
........................................................................

 iter      E             dE          RMSdq      gap      omega  full diag
   1   -210.7279128 -0.210728E+03  0.489E-02    0.04       0.0  T
   2   -210.6956502  0.322626E-01  0.355E-01    0.06       1.0  T
   3   -210.7275793 -0.319291E-01  0.478E-02    0.04       1.0  T
   4   -210.7222353  0.534400E-02  0.128E-01    0.04       1.0  T
   5   -210.6962192  0.260162E-01  0.283E-01    0.08       1.0  T
   6   -210.7276701 -0.314510E-01  0.342E-02    0.04       1.0  T
   7   -210.7280280 -0.357853E-03  0.111E-02    0.04       1.0  T
   8   -210.7280554 -0.274173E-04  0.572E-03    0.04       1.4  T
   9   -210.7280601 -0.467275E-05  0.400E-03    0.04       2.0  T
  10   -210.7280638 -0.375016E-05  0.144E-03    0.04       5.7  T
  11   -210.7280642 -0.395425E-06  0.502E-04    0.04      16.2  T
  12   -210.7280643 -0.614286E-07  0.240E-04    0.04      33.9  T
     SCC iter.                  ...        0 min,  1.157 sec
     gradient                   ...        0 min,  0.074 sec
 * total energy  :  -207.4806835 Eh     change       -0.7486899E-03 Eh
   gradient norm :     0.0105209 Eh/α   predicted    -0.7338656E-03 (  -1.98%)
   displ. norm   :     0.6778070 α      lambda       -0.1031594E-02
   maximum displ.:     0.2721343 α      in ANC's #5, #7, #6, ...

........................................................................
.............................. CYCLE   35 ..............................
........................................................................

 iter      E             dE          RMSdq      gap      omega  full diag
   1   -210.7339967 -0.210734E+03  0.421E-02    0.04       0.0  T
   2   -210.7069633  0.270334E-01  0.324E-01    0.06       1.0  T
   3   -210.7336047 -0.266414E-01  0.463E-02    0.04       1.0  T
   4   -210.7223662  0.112384E-01  0.173E-01    0.04       1.0  T
   5   -210.7249209 -0.255463E-02  0.159E-01    0.05       1.0  T
   6   -210.7338647 -0.894385E-02  0.300E-02    0.04       1.0  T
   7   -210.7340781 -0.213418E-03  0.135E-02    0.04       1.0  T
   8   -210.7341104 -0.322534E-04  0.769E-03    0.04       1.1  T
   9   -210.7341176 -0.717016E-05  0.549E-03    0.04       1.5  T
  10   -210.7341240 -0.646458E-05  0.232E-03    0.04       3.5  T
  11   -210.7341252 -0.118861E-05  0.474E-04    0.04      17.2  T
  12   -210.7341253 -0.701902E-07  0.204E-04    0.04      40.0  T
  13   -210.7341253 -0.971389E-08  0.160E-04    0.04      50.8  T
     SCC iter.                  ...        0 min,  1.039 sec
     gradient                   ...        0 min,  0.079 sec
 * total energy  :  -207.4815814 Eh     change       -0.8979521E-03 Eh
   gradient norm :     0.0066351 Eh/α   predicted    -0.7527708E-03 ( -16.17%)
   displ. norm   :     0.7503315 α      lambda       -0.1156212E-02
   maximum displ.:     0.3222349 α      in ANC's #5, #7, #6, ...

........................................................................
.............................. CYCLE   36 ..............................
........................................................................

 iter      E             dE          RMSdq      gap      omega  full diag
   1   -210.7419811 -0.210742E+03  0.534E-02    0.04       0.0  T
   2   -210.7192923  0.226888E-01  0.294E-01    0.06       1.0  T
   3   -210.7407438 -0.214515E-01  0.670E-02    0.04       1.0  T
   4   -210.6824724  0.582714E-01  0.388E-01    0.08       1.0  T
   5   -210.7362802 -0.538078E-01  0.141E-01    0.04       1.0  T
   6   -210.7416657 -0.538547E-02  0.364E-02    0.04       1.0  T
   7   -210.7420299 -0.364177E-03  0.157E-02    0.04       1.0  T
   8   -210.7420688 -0.389184E-04  0.948E-03    0.04       1.0  T
   9   -210.7420816 -0.127935E-04  0.642E-03    0.04       1.3  T
  10   -210.7420914 -0.978135E-05  0.163E-03    0.04       5.0  T
  11   -210.7420919 -0.543061E-06  0.243E-04    0.04      33.4  T
  12   -210.7420919  0.132544E-07  0.268E-04    0.04      30.4  T
     SCC iter.                  ...        0 min,  0.801 sec
     gradient                   ...        0 min,  0.088 sec
 * total energy  :  -207.4824558 Eh     change       -0.8743861E-03 Eh
   gradient norm :     0.0103056 Eh/α   predicted    -0.9035803E-03 (   3.34%)
   displ. norm   :     0.7538125 α      lambda       -0.1095155E-02
   maximum displ.:     0.3344986 α      in ANC's #5, #6, #7, ...

........................................................................
.............................. CYCLE   37 ..............................
........................................................................

 iter      E             dE          RMSdq      gap      omega  full diag
   1   -210.7447632 -0.210745E+03  0.505E-02    0.04       0.0  T
   2   -210.7300083  0.147549E-01  0.234E-01    0.05       1.0  T
   3   -210.7423603 -0.123520E-01  0.857E-02    0.04       1.0  T
   4   -210.6981581  0.442022E-01  0.346E-01    0.07       1.0  T
   5   -210.7397973 -0.416392E-01  0.133E-01    0.04       1.0  T
   6   -210.7442680 -0.447077E-02  0.442E-02    0.04       1.0  T
   7   -210.7447107 -0.442680E-03  0.230E-02    0.04       1.0  T
   8   -210.7447966 -0.859097E-04  0.137E-02    0.04       1.0  T
   9   -210.7448246 -0.279626E-04  0.875E-03    0.04       1.0  T
  10   -210.7448429 -0.183298E-04  0.203E-03    0.04       4.0  T
  11   -210.7448438 -0.863657E-06  0.432E-04    0.04      18.8  T
  12   -210.7448438 -0.283461E-07  0.272E-04    0.04      30.0  T
     SCC iter.                  ...        0 min,  1.049 sec
     gradient                   ...        0 min,  0.077 sec
 * total energy  :  -207.4833577 Eh     change       -0.9019100E-03 Eh
   gradient norm :     0.0070309 Eh/α   predicted    -0.8587295E-03 (  -4.79%)
   displ. norm   :     0.8658829 α      lambda       -0.1011014E-02
   maximum displ.:     0.3769815 α      in ANC's #5, #7, #6, ...

........................................................................
.............................. CYCLE   38 ..............................
........................................................................

 iter      E             dE          RMSdq      gap      omega  full diag
   1   -210.7377356 -0.210738E+03  0.546E-02    0.04       0.0  T
   2   -210.7181312  0.196044E-01  0.279E-01    0.05       1.0  T
   3   -210.7369122 -0.187811E-01  0.650E-02    0.04       1.0  T
   4   -210.7037369  0.331754E-01  0.299E-01    0.07       1.0  T
   5   -210.7182084 -0.144715E-01  0.221E-01    0.05       1.0  T
   6   -210.7376324 -0.194240E-01  0.283E-02    0.04       1.0  T
   7   -210.7377595 -0.127036E-03  0.173E-02    0.04       1.0  T
   8   -210.7378153 -0.558425E-04  0.100E-02    0.04       1.0  T
   9   -210.7378316 -0.163069E-04  0.627E-03    0.04       1.3  T
  10   -210.7378416 -0.994623E-05  0.137E-03    0.04       5.9  T
  11   -210.7378420 -0.392394E-06  0.239E-04    0.04      34.0  T
  12   -210.7378419  0.336945E-07  0.339E-04    0.04      24.0  T
     SCC iter.                  ...        0 min,  0.825 sec
     gradient                   ...        0 min,  0.082 sec
 * total energy  :  -207.4841988 Eh     change       -0.8410781E-03 Eh
   gradient norm :     0.0088537 Eh/α   predicted    -0.8845143E-03 (   5.16%)
   displ. norm   :     0.7442894 α      lambda       -0.1110568E-02
   maximum displ.:     0.3688506 α      in ANC's #5, #6, #2, ...

........................................................................
.............................. CYCLE   39 ..............................
........................................................................

 iter      E             dE          RMSdq      gap      omega  full diag
   1   -210.7405857 -0.210741E+03  0.601E-02    0.04       0.0  T
   2   -210.7225831  0.180026E-01  0.216E-01    0.06       1.0  T
   3   -210.7302007 -0.761766E-02  0.163E-01    0.05       1.0  T
   4   -210.7308955 -0.694771E-03  0.177E-01    0.04       1.0  T
   5   -210.7404919 -0.959642E-02  0.228E-02    0.04       1.0  T
   6   -210.7404619  0.300470E-04  0.249E-02    0.04       1.0  T
   7   -210.7405659 -0.104053E-03  0.152E-02    0.04       1.0  T
   8   -210.7406345 -0.685562E-04  0.370E-03    0.04       2.2  T
   9   -210.7406380 -0.346576E-05  0.207E-03    0.04       3.9  T
  10   -210.7406385 -0.519170E-06  0.163E-03    0.04       5.0  T
  11   -210.7406389 -0.459024E-06  0.916E-04    0.04       8.9  T
  12   -210.7406391 -0.194995E-06  0.291E-04    0.04      27.9  T
     SCC iter.                  ...        0 min,  0.791 sec
     gradient                   ...        0 min,  0.075 sec
 * total energy  :  -207.4849835 Eh     change       -0.7846717E-03 Eh
   gradient norm :     0.0133104 Eh/α   predicted    -0.8628915E-03 (   9.97%)
   displ. norm   :     0.7103088 α      lambda       -0.1078007E-02
   maximum displ.:     0.3484864 α      in ANC's #5, #6, #2, ...

........................................................................
.............................. CYCLE   40 ..............................
........................................................................

 iter      E             dE          RMSdq      gap      omega  full diag
   1   -210.7395909 -0.210740E+03  0.506E-02    0.04       0.0  T
   2   -210.7198307  0.197602E-01  0.236E-01    0.06       1.0  T
   3   -210.7328832 -0.130525E-01  0.131E-01    0.04       1.0  T
   4   -210.7285443  0.433883E-02  0.175E-01    0.05       1.0  T
   5   -210.7392849 -0.107406E-01  0.350E-02    0.03       1.0  T
   6   -210.7393918 -0.106858E-03  0.311E-02    0.04       1.0  T
   7   -210.7396092 -0.217385E-03  0.145E-02    0.04       1.0  T
   8   -210.7396528 -0.436449E-04  0.669E-03    0.04       1.2  T
   9   -210.7396659 -0.131141E-04  0.139E-03    0.04       5.8  T
  10   -210.7396663 -0.336965E-06  0.807E-04    0.04      10.1  T
  11   -210.7396665 -0.208387E-06  0.451E-04    0.04      18.1  T
     SCC iter.                  ...        0 min,  0.744 sec
     gradient                   ...        0 min,  0.072 sec
 * total energy  :  -207.4857495 Eh     change       -0.7660331E-03 Eh
   gradient norm :     0.0120587 Eh/α   predicted    -0.8109528E-03 (   5.86%)
   displ. norm   :     0.6636731 α      lambda       -0.8727644E-03
   maximum displ.:     0.3556520 α      in ANC's #5, #6, #2, ...

........................................................................
.............................. CYCLE   41 ..............................
........................................................................

 iter      E             dE          RMSdq      gap      omega  full diag
   1   -210.7413282 -0.210741E+03  0.452E-02    0.03       0.0  T
   2   -210.7254151  0.159131E-01  0.223E-01    0.05       1.0  T
   3   -210.7363486 -0.109335E-01  0.113E-01    0.04       1.0  T
   4   -210.7272931  0.905559E-02  0.191E-01    0.05       1.0  T
   5   -210.7410726 -0.137796E-01  0.333E-02    0.03       1.0  T
   6   -210.7412089 -0.136269E-03  0.256E-02    0.03       1.0  T
   7   -210.7413520 -0.143135E-03  0.128E-02    0.04       1.0  T
   8   -210.7413852 -0.331770E-04  0.604E-03    0.03       1.3  T
   9   -210.7413956 -0.103575E-04  0.117E-03    0.04       7.0  T
  10   -210.7413958 -0.205838E-06  0.690E-04    0.04      11.8  T
  11   -210.7413960 -0.170908E-06  0.213E-04    0.04      38.3  T
     SCC iter.                  ...        0 min,  0.884 sec
     gradient                   ...        0 min,  0.075 sec
 * total energy  :  -207.4864663 Eh     change       -0.7167277E-03 Eh
   gradient norm :     0.0099739 Eh/α   predicted    -0.6285943E-03 ( -12.30%)
   displ. norm   :     0.6786241 α      lambda       -0.1017534E-02
   maximum displ.:     0.3745888 α      in ANC's #5, #6, #13, ...

........................................................................
.............................. CYCLE   42 ..............................
........................................................................

 iter      E             dE          RMSdq      gap      omega  full diag
   1   -210.7480163 -0.210748E+03  0.510E-02    0.03       0.0  T
   2   -210.7302961  0.177203E-01  0.255E-01    0.04       1.0  T
   3   -210.7450181 -0.147220E-01  0.936E-02    0.03       1.0  T
   4   -210.7069341  0.380840E-01  0.320E-01    0.08       1.0  T
   5   -210.7473280 -0.403939E-01  0.531E-02    0.03       1.0  T
   6   -210.7479336 -0.605617E-03  0.251E-02    0.03       1.0  T
   7   -210.7480178 -0.841974E-04  0.174E-02    0.03       1.0  T
   8   -210.7480845 -0.666457E-04  0.870E-03    0.03       1.0  T
   9   -210.7481038 -0.193254E-04  0.245E-03    0.03       3.3  T
  10   -210.7481050 -0.118513E-05  0.520E-04    0.03      15.6  T
  11   -210.7481050 -0.103793E-07  0.343E-04    0.03      23.8  T
  12   -210.7481050 -0.385009E-07  0.120E-04    0.03      67.6  T
     SCC iter.                  ...        0 min,  0.740 sec
     gradient                   ...        0 min,  0.072 sec
 * total energy  :  -207.4872032 Eh     change       -0.7369250E-03 Eh
   gradient norm :     0.0088825 Eh/α   predicted    -0.7430764E-03 (   0.83%)
   displ. norm   :     0.7791361 α      lambda       -0.9419125E-03
   maximum displ.:     0.4188563 α      in ANC's #5, #6, #13, ...
 * RMSD in coord.:     1.1649658 α      energy gain  -0.2602429E-01 Eh

generating ANC from model Hessian ...
Using Lindh-Hessian (1995)
 Shifting diagonal of input Hessian by    9.9679097186502925E-003
 Lowest  eigenvalues of input Hessian
    0.000000    0.000000    0.000000    0.000000    0.000000    0.000000
    0.010000    0.010007    0.010085    0.010117    0.010202    0.010302
    0.010343    0.010387    0.010422    0.010567    0.010598    0.010662
 Highest eigenvalues
    2.082521    2.096892    2.177406    2.185312    2.185733    2.191270


........................................................................
.............................. CYCLE   43 ..............................
........................................................................

 iter      E             dE          RMSdq      gap      omega  full diag
   1   -210.7423021 -0.210742E+03  0.570E-02    0.03       0.0  T
   2   -210.7132541  0.290480E-01  0.336E-01    0.04       1.0  T
   3   -210.7394596 -0.262056E-01  0.943E-02    0.04       1.0  T
   4   -210.6866342  0.528255E-01  0.378E-01    0.08       1.0  T
   5   -210.7381900 -0.515558E-01  0.124E-01    0.03       1.0  T
[...]
                            56 C    0.981
    58   6 C    3.996 --    56 C    0.995    95 H    0.985    94 H    0.982
                            96 H    0.979
    59   6 C    3.994 --    56 C    0.999    93 H    0.985    91 H    0.983
                            92 H    0.974
    60   6 C    3.990 --    62 C    1.000    61 C    0.989    63 C    0.988
                            28 C    0.979
    61   6 C    3.996 --    60 C    0.989   115 H    0.987   117 H    0.985
                           116 H    0.984
    62   6 C    3.997 --    60 C    1.000   110 H    0.985   111 H    0.984
                           109 H    0.980
    63   6 C    3.995 --    60 C    0.988   113 H    0.987   114 H    0.985
                           112 H    0.984
    64   6 C    3.990 --    67 C    1.000    66 C    0.990    65 C    0.987
                            20 C    0.980
    65   6 C    3.996 --    64 C    0.987   140 H    0.987   141 H    0.985
                           139 H    0.985
    66   6 C    3.995 --    64 C    0.990   135 H    0.987   134 H    0.985
                           133 H    0.983
    67   6 C    3.996 --    64 C    1.000   137 H    0.985   138 H    0.985
                           136 H    0.981
    68   6 C    3.990 --    69 C    1.000    71 C    0.990    70 C    0.988
                            16 C    0.979
    69   6 C    3.997 --    68 C    1.000    86 H    0.985    87 H    0.985
                            85 H    0.984
    70   6 C    3.995 --    68 C    0.988    88 H    0.987    89 H    0.985
                            90 H    0.984
    71   6 C    3.995 --    68 C    0.990   118 H    0.987   120 H    0.985
                           119 H    0.983
    72   6 C    3.990 --    77 C    0.999    81 C    0.992    73 C    0.983
                             6 C    0.982
    73   6 C    3.994 --    75 H    0.987    76 H    0.986    74 H    0.985
                            72 C    0.983
    74   1 H    0.998 --    73 C    0.985
    75   1 H    0.999 --    73 C    0.987
    76   1 H    0.999 --    73 C    0.986
    77   6 C    3.996 --    72 C    0.999    79 H    0.985    78 H    0.984
                            80 H    0.980
    78   1 H    0.999 --    77 C    0.984
    79   1 H    0.999 --    77 C    0.985
    80   1 H    0.998 --    77 C    0.980
    81   6 C    3.994 --    72 C    0.992    84 H    0.985    82 H    0.983
                            83 H    0.979
    82   1 H    0.999 --    81 C    0.983
    83   1 H    0.998 --    81 C    0.979
    84   1 H    0.999 --    81 C    0.985
    85   1 H    0.999 --    69 C    0.984
    86   1 H    0.999 --    69 C    0.985
    87   1 H    0.999 --    69 C    0.985
    88   1 H    0.999 --    70 C    0.987
    89   1 H    0.998 --    70 C    0.985
    90   1 H    0.999 --    70 C    0.984
    91   1 H    0.999 --    59 C    0.983
    92   1 H    0.998 --    59 C    0.974
    93   1 H    0.999 --    59 C    0.985
    94   1 H    0.999 --    58 C    0.982
    95   1 H    0.999 --    58 C    0.985
    96   1 H    0.998 --    58 C    0.979
    97   1 H    0.999 --    57 C    0.986
    98   1 H    0.999 --    57 C    0.986
    99   1 H    0.998 --    57 C    0.985
   100   1 H    0.999 --    55 C    0.987
   101   1 H    0.999 --    55 C    0.984
   102   1 H    0.998 --    55 C    0.985
   103   1 H    0.999 --    54 C    0.987
   104   1 H    0.998 --    54 C    0.985
   105   1 H    0.999 --    54 C    0.984
   106   1 H    0.999 --    53 C    0.985
   107   1 H    0.999 --    53 C    0.985
   108   1 H    0.999 --    53 C    0.985
   109   1 H    0.999 --    62 C    0.980
   110   1 H    0.999 --    62 C    0.985
   111   1 H    0.999 --    62 C    0.984
   112   1 H    0.999 --    63 C    0.984
   113   1 H    0.999 --    63 C    0.987
   114   1 H    0.998 --    63 C    0.985
   115   1 H    0.999 --    61 C    0.987
   116   1 H    0.999 --    61 C    0.984
   117   1 H    0.998 --    61 C    0.985
   118   1 H    0.999 --    71 C    0.987
   119   1 H    0.999 --    71 C    0.983
   120   1 H    0.998 --    71 C    0.985
   121   1 H    0.998 --    17 C    0.964
   122   1 H    0.998 --    15 C    0.963
   123   1 H    0.998 --     5 C    0.962
   124   1 H    0.998 --    21 C    0.962
   125   1 H    0.998 --     1 C    0.963
   126   1 H    0.998 --    19 C    0.955
   127   1 H    0.998 --    23 C    0.959
   128   1 H    0.998 --    41 C    0.952
   129   1 H    0.998 --    27 C    0.962
   130   1 H    0.998 --    43 C    0.962
   131   1 H    0.998 --    39 C    0.964
   132   1 H    0.998 --    37 C    0.963
   133   1 H    0.999 --    66 C    0.983
   134   1 H    0.998 --    66 C    0.985
   135   1 H    0.999 --    66 C    0.987
   136   1 H    0.999 --    67 C    0.981
   137   1 H    0.999 --    67 C    0.985
   138   1 H    0.999 --    67 C    0.985
   139   1 H    0.999 --    65 C    0.985
   140   1 H    0.999 --    65 C    0.987
   141   1 H    0.998 --    65 C    0.985
   142   1 H    0.996 --    51 C    0.957
   143   1 H    0.991 --    51 C    0.950
   144   1 H    0.999 --    50 C    0.988
   145   1 H    0.999 --    50 C    0.987
   146   1 H    0.998 --    50 C    0.983
   147   1 H    0.998 --    48 C    0.971
   148   1 H    0.987 --    48 C    0.945
   149   1 H    0.998 --    47 C    0.983
   150   1 H    0.999 --    47 C    0.987
   151   1 H    0.999 --    47 C    0.986
 ---------------------------------------------------------------------------

Topologies differ in bond orders
Writing corrected topology to xtbtopo.mol

molecular dipole:
                 x           y           z       tot (Debye)
 q only:        0.133       0.024      -0.750
   full:        0.061      -0.207      -0.581       1.574
molecular quadrupole (traceless):
                xx          xy          yy          xz          yz          zz
 q only:      -37.336      33.763       6.629     -17.589      12.246      30.707
  q+dip:      -38.919      37.266      11.147     -22.961      10.597      27.772
   full:      -43.790      36.385       4.274     -23.241      11.913      39.516

           -------------------------------------------------
          |                Geometry Summary                 |
           -------------------------------------------------

      molecular mass/u    :      996.1621235
   center of mass at/Å    :       -0.0162279      -0.1232071       0.0328629
  moments of inertia/u·Å² :        0.1306739E+05   0.2356721E+05   0.3194872E+05
rotational constants/cm⁻¹ :        0.1290053E-02   0.7153003E-03   0.5276466E-03

 * 150 selected distances

     #   Z          #   Z                                           value/Å
     1   6 C        2   6 C                                       1.3868667
     2   6 C        3   6 C                                       1.4190607
     3   6 C        4   6 C                                       1.4337631
     4   6 C        5   6 C                                       1.4141717
     1   6 C        6   6 C                                       1.3977054
     5   6 C        6   6 C                                       1.3720525
     7   6 C        8   6 C                                       1.4129739
     8   6 C        9   6 C                                       1.4233062
     4   6 C       10   7 N                                       1.3384760
     9   6 C       10   7 N                                       1.3299672
    12   6 C       13   7 N                                       1.3344447
     8   6 C       14   6 C                                       1.4215840
    13   7 N       14   6 C                                       1.3324947
    14   6 C       15   6 C                                       1.4049263
    15   6 C       16   6 C                                       1.3899447
     9   6 C       17   6 C                                       1.4120777
    16   6 C       17   6 C                                       1.3834627
    11   6 C       18   6 C                                       1.4254640
    18   6 C       19   6 C                                       1.3951520
    19   6 C       20   6 C                                       1.3940909
    12   6 C       21   6 C                                       1.4115130
    20   6 C       21   6 C                                       1.3727958
     2   6 C       22   8 O                                       1.3293304
    23   6 C       24   6 C                                       1.3938852
    24   6 C       25   6 C                                       1.4122190
    25   6 C       26   6 C                                       1.4344616
    26   6 C       27   6 C                                       1.4110083
    23   6 C       28   6 C                                       1.3953437
    27   6 C       28   6 C                                       1.3723315
    29   6 C       30   6 C                                       1.4167106
    30   6 C       31   6 C                                       1.4226708
    26   6 C       32   7 N                                       1.3363789
    31   6 C       32   7 N                                       1.3323753
    34   6 C       35   7 N                                       1.3379018
    30   6 C       36   6 C                                       1.4202027
    35   7 N       36   6 C                                       1.3276460
    36   6 C       37   6 C                                       1.4076381
    37   6 C       38   6 C                                       1.3865973
    31   6 C       39   6 C                                       1.4095249
    38   6 C       39   6 C                                       1.3845715
    33   6 C       40   6 C                                       1.4343911
    40   6 C       41   6 C                                       1.4029923
    41   6 C       42   6 C                                       1.3924816
    34   6 C       43   6 C                                       1.4110881
    42   6 C       43   6 C                                       1.3699068
    24   6 C       44   8 O                                       1.3334082
    22   8 O       45   5 B                                       1.4587458
    44   8 O       45   5 B                                       1.4549954
    18   6 C       46   7 N                                       1.3899287
    45   5 B       46   7 N                                       1.5375866
    46   7 N       48   6 C                                       1.4477044
    47   6 C       48   6 C                                       1.5324110
    40   6 C       49   7 N                                       1.3843573
    45   5 B       49   7 N                                       1.5591439 (max)
    49   7 N       51   6 C                                       1.4542631
    50   6 C       51   6 C                                       1.5274187
    52   6 C       53   6 C                                       1.5308735
    52   6 C       54   6 C                                       1.5349936
    52   6 C       55   6 C                                       1.5345168
    56   6 C       57   6 C                                       1.5389458
    56   6 C       58   6 C                                       1.5328202
    56   6 C       59   6 C                                       1.5311061
    60   6 C       61   6 C                                       1.5351597
    60   6 C       62   6 C                                       1.5298436
    60   6 C       63   6 C                                       1.5344975
    64   6 C       65   6 C                                       1.5347767
    64   6 C       66   6 C                                       1.5347792
    64   6 C       67   6 C                                       1.5305033
    68   6 C       69   6 C                                       1.5309847
    68   6 C       70   6 C                                       1.5349297
    68   6 C       71   6 C                                       1.5347156
    72   6 C       73   6 C                                       1.5370845
    73   6 C       74   1 H                                       1.0891436
    73   6 C       75   1 H                                       1.0883733
    73   6 C       76   1 H                                       1.0872658
    72   6 C       77   6 C                                       1.5318003
    77   6 C       78   1 H                                       1.0871930
    77   6 C       79   1 H                                       1.0893387
    77   6 C       80   1 H                                       1.0864273
    72   6 C       81   6 C                                       1.5354547
    81   6 C       82   1 H                                       1.0863073
    81   6 C       83   1 H                                       1.0868522
    81   6 C       84   1 H                                       1.0891795
    69   6 C       85   1 H                                       1.0872022
    69   6 C       86   1 H                                       1.0873736
    69   6 C       87   1 H                                       1.0893239
    70   6 C       88   1 H                                       1.0881268
    70   6 C       89   1 H                                       1.0891825
    70   6 C       90   1 H                                       1.0863672
    59   6 C       91   1 H                                       1.0873555
    59   6 C       92   1 H                                       1.0865933
    59   6 C       93   1 H                                       1.0891932
    58   6 C       94   1 H                                       1.0862370
    58   6 C       95   1 H                                       1.0893309
    58   6 C       96   1 H                                       1.0855253
    57   6 C       97   1 H                                       1.0878304
    57   6 C       98   1 H                                       1.0882839
    57   6 C       99   1 H                                       1.0890610
    55   6 C      100   1 H                                       1.0881357
    55   6 C      101   1 H                                       1.0862390
    55   6 C      102   1 H                                       1.0891579
    54   6 C      103   1 H                                       1.0881312
    54   6 C      104   1 H                                       1.0891542
    54   6 C      105   1 H                                       1.0862421
    53   6 C      106   1 H                                       1.0873305
    53   6 C      107   1 H                                       1.0873357
    53   6 C      108   1 H                                       1.0893344
    62   6 C      109   1 H                                       1.0878968
    62   6 C      110   1 H                                       1.0895285
    62   6 C      111   1 H                                       1.0871741
    63   6 C      112   1 H                                       1.0863073
    63   6 C      113   1 H                                       1.0879595
    63   6 C      114   1 H                                       1.0892398
    61   6 C      115   1 H                                       1.0882248
    61   6 C      116   1 H                                       1.0859847
    61   6 C      117   1 H                                       1.0892108
    71   6 C      118   1 H                                       1.0881132
    71   6 C      119   1 H                                       1.0861804
    71   6 C      120   1 H                                       1.0891766
    17   6 C      121   1 H                                       1.0767339
    15   6 C      122   1 H                                       1.0785720
     5   6 C      123   1 H                                       1.0778539
    21   6 C      124   1 H                                       1.0783825
     1   6 C      125   1 H                                       1.0777321
    19   6 C      126   1 H                                       1.0765055
    23   6 C      127   1 H                                       1.0775009
    41   6 C      128   1 H                                       1.0738595 (min)
    27   6 C      129   1 H                                       1.0785406
    43   6 C      130   1 H                                       1.0777488
    39   6 C      131   1 H                                       1.0767737
    37   6 C      132   1 H                                       1.0785543
    66   6 C      133   1 H                                       1.0861019
    66   6 C      134   1 H                                       1.0892479
    66   6 C      135   1 H                                       1.0878690
    67   6 C      136   1 H                                       1.0864593
    67   6 C      137   1 H                                       1.0874604
    67   6 C      138   1 H                                       1.0893101
    65   6 C      139   1 H                                       1.0867246
    65   6 C      140   1 H                                       1.0883422
    65   6 C      141   1 H                                       1.0890814
    51   6 C      142   1 H                                       1.0866147
    51   6 C      143   1 H                                       1.0994641
    50   6 C      144   1 H                                       1.0879319
    50   6 C      145   1 H                                       1.0883613
    50   6 C      146   1 H                                       1.0880744
    48   6 C      147   1 H                                       1.0924009
    48   6 C      148   1 H                                       1.0973727
    47   6 C      149   1 H                                       1.0877269
    47   6 C      150   1 H                                       1.0884191
    47   6 C      151   1 H                                       1.0881404

 * 6 distinct bonds (by element types)

   Z      Z             #   av. dist./Å        max./Å        min./Å
   1 H    6 C          76     1.0865393     1.0994641     1.0738595
   6 C    6 C          56     1.4502956     1.5389458     1.3699068
   5 B    7 N           2     1.5483653     1.5591439     1.5375866
   6 C    7 N          12     1.3621615     1.4542631     1.3276460
   5 B    8 O           2     1.4568706     1.4587458     1.4549954
   6 C    8 O           2     1.3313693     1.3334082     1.3293304


optimized geometry written to: xtbopt.mol


           -------------------------------------------------
          | TOTAL ENERGY             -207.501847708347 Eh   |
          | GRADIENT NORM               0.000168415917 Eh/α |
          | HOMO-LUMO GAP               0.035657692125 eV   |
           -------------------------------------------------
########################################################################
[WARNING] Runtime exception occurred
-2- restart_readRestart: Multiplicity missmatch in restart file.
Note: The following floating-point exceptions are signalling: IEEE_UNDERFLOW_FLAG
normal termination of xtb
-1- restart_readRestart: Number of electron missmatch in restart file.
########################################################################

------------------------------------------------------------------------
 * finished run on 2024/11/07 at 15:48:47.914     
------------------------------------------------------------------------
 total:
 * wall-time:     0 d,  0 h,  2 min, 14.726 sec
 *  cpu-time:     0 d,  0 h,  7 min, 34.262 sec
 * ratio c/w:     3.372 speedup
 SCF:
 * wall-time:     0 d,  0 h,  0 min,  2.803 sec
 *  cpu-time:     0 d,  0 h,  0 min, 11.172 sec
 * ratio c/w:     3.986 speedup
 ANC optimizer:
 * wall-time:     0 d,  0 h,  2 min, 11.898 sec
 *  cpu-time:     0 d,  0 h,  7 min, 23.045 sec
 * ratio c/w:     3.359 speedup

