      -----------------------------------------------------------      
     |                   =====================                   |     
     |                           x T B                           |     
     |                   =====================                   |     
     |                         S. Grimme                         |     
     |          Mulliken Center for Theoretical Chemistry        |     
     |                    University of Bonn                     |     
      -----------------------------------------------------------      

   * xtb version 6.6.1 (8d0f1dd) compiled by 'runner@Mac-1690902418499.local' on 2023-08-01

   xtb is free software: you can redistribute it and/or modify it under
   the terms of the GNU Lesser General Public License as published by
   the Free Software Foundation, either version 3 of the License, or
   (at your option) any later version.
   
   xtb is distributed in the hope that it will be useful,
   but WITHOUT ANY WARRANTY; without even the implied warranty of
   MERCHANTABILITY or FITNESS FOR A PARTICULAR PURPOSE.  See the
   GNU Lesser General Public License for more details.
   
   Cite this work as:
   * C. Bannwarth, E. Caldeweyher, S. Ehlert, A. Hansen, P. Pracht,
     J. Seibert, S. Spicher, S. Grimme, WIREs Comput. Mol. Sci., 2020, 11,
     e01493. DOI: 10.1002/wcms.1493
   
   for GFN2-xTB:
   * C. Bannwarth, S. Ehlert and S. Grimme., J. Chem. Theory Comput., 2019,
     15, 1652-1671. DOI: 10.1021/acs.jctc.8b01176
   for GFN1-xTB:
   * S. Grimme, C. Bannwarth, P. Shushkov, J. Chem. Theory Comput., 2017,
     13, 1989-2009. DOI: 10.1021/acs.jctc.7b00118
   for GFN0-xTB:
   * P. Pracht, E. Caldeweyher, S. Ehlert, S. Grimme, ChemRxiv, 2019, preprint.
     DOI: 10.26434/chemrxiv.8326202.v1
   for GFN-FF:
   * S. Spicher and S. Grimme, Angew. Chem. Int. Ed., 2020, 59, 15665-15673.
     DOI: 10.1002/anie.202004239
   
   for ALPB and GBSA implicit solvation:
   * S. Ehlert, M. Stahn, S. Spicher, S. Grimme, J. Chem. Theory Comput.,
     2021, 17, 4250-4261. DOI: 10.1021/acs.jctc.1c00471
   
   for DFT-D4:
   * E. Caldeweyher, C. Bannwarth and S. Grimme, J. Chem. Phys., 2017,
     147, 034112. DOI: 10.1063/1.4993215
   * E. Caldeweyher, S. Ehlert, A. Hansen, H. Neugebauer, S. Spicher,
     C. Bannwarth and S. Grimme, J. Chem. Phys., 2019, 150, 154122.
     DOI: 10.1063/1.5090222
   * E. Caldeweyher, J.-M. Mewes, S. Ehlert and S. Grimme, Phys. Chem. Chem. Phys.
     2020, 22, 8499-8512. DOI: 10.1039/D0CP00502A
   
   for sTDA-xTB:
   * S. Grimme and C. Bannwarth, J. Chem. Phys., 2016, 145, 054103.
     DOI: 10.1063/1.4959605
   
   in the mass-spec context:
   * V. Asgeirsson, C. Bauer and S. Grimme, Chem. Sci., 2017, 8, 4879.
     DOI: 10.1039/c7sc00601b
   * J. Koopman and S. Grimme, ACS Omega 2019, 4, 12, 15120-15133.
     DOI: 10.1021/acsomega.9b02011
   
   for metadynamics refer to:
   * S. Grimme, J. Chem. Theory Comput., 2019, 155, 2847-2862
     DOI: 10.1021/acs.jctc.9b00143
   
   for SPH calculations refer to:
   * S. Spicher and S. Grimme, J. Chem. Theory Comput., 2021, 17, 1701-1714
     DOI: 10.1021/acs.jctc.0c01306
   
   with help from (in alphabetical order)
   P. Atkinson, C. Bannwarth, F. Bohle, G. Brandenburg, E. Caldeweyher
   M. Checinski, S. Dohm, S. Ehlert, S. Ehrlich, I. Gerasimov, C. Hölzer
   A. Katbashev, J. Koopman, C. Lavigne, S. Lehtola, F. März, M. Müller,
   F. Musil, H. Neugebauer, J. Pisarek, C. Plett, P. Pracht, F. Pultar,
   J. Seibert, P. Shushkov, S. Spicher, M. Stahn, M. Steiner, T. Strunk,
   J. Stückrath, T. Rose, and J. Unsleber
   
 * started run on 2024/11/07 at 16:09:42.001     

           -------------------------------------------------
          |                Calculation Setup                |
           -------------------------------------------------

          program call               : xtb stacked_dimer_Base2tBu.mol --opt --gfn2 --chrg 1 --uhf 0 --tight
          coordinate file            : stacked_dimer_Base2tBu.mol
          omp threads                :                     8

   ID    Z sym.   atoms
    1    6 C      1-9, 11, 12, 14-21, 23-31, 33, 34, 36-43, 47, 48, 50-73,
                  77, 81, 152-160, 162, 163, 165-172, 174-182, 184, 185,
                  187-194, 198, 199, 201-224, 228, 232
    2    7 N      10, 13, 32, 35, 46, 49, 161, 164, 183, 186, 197, 200
    3    8 O      22, 44, 173, 195
    4    5 B      45, 196
    5    1 H      74-76, 78-80, 82-151, 225-227, 229-231, 233-302

molecular fragmentation (1/2 indicates fragments):
111111111111111111111111111111111111111111111111111111111111111111111111
111111111111111111111111111111111111111111111111111111111111111111111111
111111122222222222222222222222222222222222222222222222222222222222222222
222222222222222222222222222222222222222222222222222222222222222222222222
22222222222222
# atoms in fragment 1/2:   151   151
 fragment masses (1/2) :      996.16      996.16
CMA distance (Bohr)    :  18.719
constraining FC (au)   :  0.0500
########################################################################
[WARNING] Please study the warnings concerning your input carefully
-2- prog_main: Charge in sdf/mol input was overwritten
-1- prog_main_parseArguments: Unknown option '--tight' provided
########################################################################

           -------------------------------------------------
          |                 G F N 2 - x T B                 |
           -------------------------------------------------

        Reference                      10.1021/acs.jctc.8b01176
      * Hamiltonian:
        H0-scaling (s, p, d)           1.850000    2.230000    2.230000
        zeta-weighting                 0.500000
      * Dispersion:
        s8                             2.700000
        a1                             0.520000
        a2                             5.000000
        s9                             5.000000
      * Repulsion:
        kExp                           1.500000    1.000000
        rExp                           1.000000
      * Coulomb:
        alpha                          2.000000
        third order                    shell-resolved
        anisotropic                    true
        a3                             3.000000
        a5                             4.000000
        cn-shift                       1.200000
        cn-exp                         4.000000
        max-rad                        5.000000

q/qsh data taken from xtbrestart
CAMM data taken from xtbrestart

          ...................................................
          :                      SETUP                      :
          :.................................................:
          :  # basis functions                 752          :
          :  # atomic orbitals                 752          :
          :  # shells                          452          :
          :  # electrons                       769          :
          :  max. iterations                   250          :
          :  Hamiltonian                  GFN2-xTB          :
          :  restarted?                       true          :
          :  GBSA solvation                  false          :
          :  PC potential                    false          :
          :  electronic temp.          300.0000000     K    :
          :  accuracy                    1.0000000          :
          :  -> integral cutoff          0.2500000E+02      :
          :  -> integral neglect         0.1000000E-07      :
          :  -> SCF convergence          0.1000000E-05 Eh   :
          :  -> wf. convergence          0.1000000E-03 e    :
          :  Broyden damping             0.4000000          :
          ...................................................

 iter      E             dE          RMSdq      gap      omega  full diag
   1   -420.4703885 -0.420470E+03  0.114E+00    0.03       0.0  T
   2   -418.7690281  0.170136E+01  0.142E+00    0.03       1.0  T
   3   -420.0561932 -0.128717E+01  0.989E-01    0.27       1.0  T
   4   -418.9494875  0.110671E+01  0.127E+00    0.04       1.0  T
   5   -420.3031523 -0.135366E+01  0.746E-01    0.14       1.0  T
   6   -420.1744663  0.128686E+00  0.724E-01    0.18       1.0  T
   7   -420.4362420 -0.261776E+00  0.552E-01    0.12       1.0  T
   8   -420.4177287  0.185133E-01  0.485E-01    0.07       1.0  T
   9   -420.4955617 -0.778330E-01  0.454E-01    0.06       1.0  T
  10   -420.5156459 -0.200842E-01  0.386E-01    0.03       1.0  T
  11   -420.5271097 -0.114639E-01  0.336E-01    0.05       1.0  T
  12   -420.5640437 -0.369340E-01  0.267E-01    0.00       1.0  T
  13   -420.5593529  0.469082E-02  0.260E-01    0.04       1.0  T
  14   -420.4961870  0.631659E-01  0.340E-01    0.08       1.0  T
  15   -420.5814617 -0.852747E-01  0.159E-01    0.01       1.0  T
  16   -420.5298469  0.516148E-01  0.241E-01    0.04       1.0  T
  17   -420.5686835 -0.388365E-01  0.155E-01    0.03       1.0  T
  18   -420.5894020 -0.207185E-01  0.965E-02    0.00       1.0  T
  19   -420.5898939 -0.491957E-03  0.762E-02    0.01       1.0  T
  20   -420.5890178  0.876096E-03  0.761E-02    0.01       1.0  T
  21   -420.5934151 -0.439730E-02  0.405E-02    0.00       1.0  T
  22   -420.5931752  0.239888E-03  0.371E-02    0.00       1.0  T
  23   -420.5947749 -0.159969E-02  0.106E-02    0.00       1.0  T
  24   -420.5947035  0.714398E-04  0.121E-02    0.00       1.0  T
  25   -420.5948200 -0.116555E-03  0.671E-03    0.00       1.0  T
  26   -420.5948532 -0.331905E-04  0.328E-03    0.00       1.8  T
  27   -420.5948416  0.116000E-04  0.393E-03    0.00       1.5  T
  28   -420.5948604 -0.187267E-04  0.850E-04    0.00       6.8  T
  29   -420.5948607 -0.299123E-06  0.530E-04    0.00      10.9  T
  30   -420.5948606  0.684005E-07  0.449E-04    0.00      12.8  T

   *** convergence criteria satisfied after 30 iterations ***

         #    Occupation            Energy/Eh            Energy/eV
      -------------------------------------------------------------
         1        2.0000           -0.7462357             -20.3061
       ...           ...                  ...                  ...
       379        2.0000           -0.4213590             -11.4658
       380        2.0000           -0.4211688             -11.4606
       381        2.0000           -0.4174495             -11.3594
       382        2.0000           -0.4173702             -11.3572
       383        1.5473           -0.4076674             -11.0932
       384        1.5382           -0.4076420             -11.0925
       385        0.7933           -0.4060031             -11.0479 (HOMO)
       386        0.7502           -0.4059109             -11.0454 (LUMO)
       387        0.1933           -0.4042029             -10.9989
       388        0.1778           -0.4041139             -10.9965
       389                         -0.3418850              -9.3032
       390                         -0.3413901              -9.2897
       ...                                ...                  ...
       752                          0.6406983              17.4343
      -------------------------------------------------------------
                  HL-Gap            0.0000921 Eh            0.0025 eV
             Fermi-level           -0.4064288 Eh          -11.0595 eV

 SCC (total)                   0 d,  0 h,  0 min,  8.084 sec
 SCC setup                      ...        0 min,  0.002 sec (  0.021%)
 Dispersion                     ...        0 min,  0.008 sec (  0.098%)
 classical contributions        ...        0 min,  0.002 sec (  0.019%)
 integral evaluation            ...        0 min,  0.031 sec (  0.380%)
 iterations                     ...        0 min,  7.543 sec ( 93.309%)
 molecular gradient             ...        0 min,  0.464 sec (  5.746%)
 printout                       ...        0 min,  0.035 sec (  0.428%)

         :::::::::::::::::::::::::::::::::::::::::::::::::::::
         ::                     SUMMARY                     ::
         :::::::::::::::::::::::::::::::::::::::::::::::::::::
         :: total energy            -414.058970465944 Eh    ::
         :: gradient norm              0.013955262287 Eh/a0 ::
         :: HOMO-LUMO gap              0.002507440298 eV    ::
         ::.................................................::
         :: SCC energy              -420.594860595298 Eh    ::
         :: -> isotropic ES            0.308507288598 Eh    ::
         :: -> anisotropic ES          0.038222982714 Eh    ::
         :: -> anisotropic XC          0.239789463460 Eh    ::
         :: -> dispersion             -0.442549179977 Eh    ::
         :: repulsion energy           6.511803146130 Eh    ::
         :: add. restraining           0.000000000000 Eh    ::
         :: total charge               1.000000801703 e     ::
         :::::::::::::::::::::::::::::::::::::::::::::::::::::

      ----------------------------------------------------------- 
     |                   =====================                   |
     |                        A N C O P T                        |
     |                   =====================                   |
     |               Approximate Normal Coordinate               |
     |                Rational Function Optimizer                |
      ----------------------------------------------------------- 

          ...................................................
          :                      SETUP                      :
          :.................................................:
          :   optimization level            normal          :
          :   max. optcycles                   906          :
          :   ANC micro-cycles                  20          :
          :   degrees of freedom               900          :
          :.................................................:
          :   RF solver                   davidson          :
          :   write xtbopt.log                true          :
          :   linear?                        false          :
          :   energy convergence         0.5000000E-05 Eh   :
          :   grad. convergence          0.1000000E-02 Eh/α :
          :   maxmium RF displ.          1.0000000          :
          :   Hlow (freq-cutoff)         0.1000000E-01      :
          :   Hmax (freq-cutoff)         5.0000000          :
          :   S6 in model hess.         20.0000000          :
          ...................................................

generating ANC from model Hessian ...
Using Lindh-Hessian (1995)
 Shifting diagonal of input Hessian by    1.0322614327249735E-002
 Lowest  eigenvalues of input Hessian
    0.010000    0.010303    0.010313    0.010317    0.000000    0.000000
    0.000000    0.000000    0.000000    0.000000    0.010330    0.010347
    0.010371    0.010376    0.010379    0.010385    0.010414    0.010419
 Highest eigenvalues
    2.188927    2.188973    2.191655    2.191688    2.194563    2.194567


........................................................................
.............................. CYCLE    1 ..............................
........................................................................

 iter      E             dE          RMSdq      gap      omega  full diag
   1   -420.5948608 -0.420595E+03  0.125E-04    0.00       0.0  T
   2   -420.5948517  0.914666E-05  0.270E-03    0.00       2.1  T
   3   -420.5948602 -0.847673E-05  0.843E-04    0.00       6.8  T
   4   -420.5948608 -0.676148E-06  0.109E-04    0.00      52.6  T
   5   -420.5948608  0.352367E-08  0.117E-04    0.00      49.1  T
     SCC iter.                  ...        0 min,  1.187 sec
     gradient                   ...        0 min,  0.450 sec
 * total energy  :  -414.0589707 Eh     change       -0.2453166E-06 Eh
   gradient norm :     0.0139581 Eh/α   predicted     0.0000000E+00 (-100.00%)
   displ. norm   :     0.2158063 α      lambda       -0.1151559E-02
   maximum displ.:     0.1428160 α      in ANC's #1, #161, #25, ...

........................................................................
.............................. CYCLE    2 ..............................
........................................................................

 iter      E             dE          RMSdq      gap      omega  full diag
   1   -420.5969615 -0.420597E+03  0.355E-02    0.00       0.0  T
   2   -420.4624011  0.134560E+00  0.325E-01    0.03       1.0  T
   3   -420.5778910 -0.115490E+00  0.166E-01    0.03       1.0  T
   4   -420.5960978 -0.182068E-01  0.456E-02    0.00       1.0  T
   5   -420.5863313  0.976648E-02  0.112E-01    0.00       1.0  T
   6   -420.5957637 -0.943237E-02  0.536E-02    0.00       1.0  T
   7   -420.5961627 -0.398999E-03  0.451E-02    0.00       1.0  T
   8   -420.5953634  0.799306E-03  0.520E-02    0.00       1.0  T
   9   -420.5971162 -0.175286E-02  0.240E-02    0.00       1.0  T
  10   -420.5973438 -0.227588E-03  0.150E-02    0.00       1.0  T
  11   -420.5974737 -0.129867E-03  0.670E-03    0.00       1.0  T
  12   -420.5974968 -0.231250E-04  0.538E-03    0.00       1.1  T
  13   -420.5975025 -0.569872E-05  0.309E-03    0.00       1.9  T
  14   -420.5975113 -0.881594E-05  0.205E-03    0.00       2.8  T
  15   -420.5975143 -0.298128E-05  0.788E-04    0.00       7.3  T
  16   -420.5975145 -0.217127E-06  0.612E-04    0.00       9.4  T
  17   -420.5975147 -0.203053E-06  0.369E-04    0.00      15.6  T
     SCC iter.                  ...        0 min,  4.855 sec
     gradient                   ...        0 min,  0.480 sec
 * total energy  :  -414.0596445 Eh     change       -0.6737898E-03 Eh
   gradient norm :     0.0060558 Eh/α   predicted    -0.6025988E-03 ( -10.57%)
   displ. norm   :     0.1666273 α      lambda       -0.3189247E-03
   maximum displ.:     0.1164354 α      in ANC's #1, #8, #31, ...

........................................................................
.............................. CYCLE    3 ..............................
........................................................................

 iter      E             dE          RMSdq      gap      omega  full diag
   1   -420.5991872 -0.420599E+03  0.188E-02    0.00       0.0  T
   2   -420.5745457  0.246415E-01  0.154E-01    0.02       1.0  T
   3   -420.5865164 -0.119707E-01  0.106E-01    0.03       1.0  T
   4   -420.5976500 -0.111336E-01  0.402E-02    0.00       1.0  T
   5   -420.5964086  0.124139E-02  0.573E-02    0.00       1.0  T
   6   -420.5986553 -0.224670E-02  0.306E-02    0.00       1.0  T
   7   -420.5981460  0.509375E-03  0.389E-02    0.00       1.0  T
   8   -420.5990596 -0.913670E-03  0.187E-02    0.00       1.0  T
   9   -420.5992086 -0.148988E-03  0.120E-02    0.00       1.0  T
  10   -420.5992701 -0.615243E-04  0.781E-03    0.00       1.0  T
  11   -420.5993037 -0.335593E-04  0.228E-03    0.00       2.5  T
  12   -420.5993017  0.198796E-05  0.281E-03    0.00       2.0  T
  13   -420.5993072 -0.550829E-05  0.873E-04    0.00       6.6  T
  14   -420.5993073 -0.942437E-07  0.686E-04    0.00       8.4  T
  15   -420.5993078 -0.435258E-06  0.253E-04    0.00      22.7  T
     SCC iter.                  ...        0 min,  4.696 sec
     gradient                   ...        0 min,  0.495 sec
 * total energy  :  -414.0598953 Eh     change       -0.2507633E-03 Eh
   gradient norm :     0.0029907 Eh/α   predicted    -0.1638932E-03 ( -34.64%)
   displ. norm   :     0.2646114 α      lambda       -0.3379748E-03
   maximum displ.:     0.1724571 α      in ANC's #1, #8, #31, ...

........................................................................
.............................. CYCLE    4 ..............................
........................................................................

 iter      E             dE          RMSdq      gap      omega  full diag
   1   -420.5995423 -0.420600E+03  0.237E-02    0.00       0.0  T
   2   -420.5841238  0.154185E-01  0.144E-01    0.01       1.0  T
   3   -420.5893712 -0.524738E-02  0.980E-02    0.02       1.0  T
   4   -420.5926753 -0.330410E-02  0.762E-02    0.01       1.0  T
   5   -420.5925686  0.106653E-03  0.847E-02    0.01       1.0  T
   6   -420.5974484 -0.487979E-02  0.564E-02    0.00       1.0  T
   7   -420.5969067  0.541694E-03  0.547E-02    0.01       1.0  T
   8   -420.5991896 -0.228288E-02  0.278E-02    0.00       1.0  T
   9   -420.5995690 -0.379363E-03  0.127E-02    0.00       1.0  T
  10   -420.5996237 -0.547188E-04  0.104E-02    0.00       1.0  T
  11   -420.5996821 -0.584022E-04  0.269E-03    0.00       2.1  T
  12   -420.5996838 -0.173552E-05  0.175E-03    0.00       3.3  T
  13   -420.5996861 -0.221341E-05  0.127E-03    0.00       4.5  T
  14   -420.5996865 -0.465931E-06  0.110E-03    0.00       5.3  T
  15   -420.5996874 -0.854670E-06  0.300E-04    0.00      19.2  T
  16   -420.5996874 -0.379114E-07  0.153E-04    0.00      37.7  T
     SCC iter.                  ...        0 min,  3.515 sec
     gradient                   ...        0 min,  0.479 sec
 * total energy  :  -414.0601536 Eh     change       -0.2583095E-03 Eh
   gradient norm :     0.0040246 Eh/α   predicted    -0.1808603E-03 ( -29.98%)
   displ. norm   :     0.3017735 α      lambda       -0.2654337E-03
   maximum displ.:     0.1887072 α      in ANC's #1, #8, #31, ...

........................................................................
.............................. CYCLE    5 ..............................
........................................................................

 iter      E             dE          RMSdq      gap      omega  full diag
   1   -420.5981941 -0.420598E+03  0.219E-02    0.00       0.0  T
   2   -420.5893043  0.888989E-02  0.114E-01    0.00       1.0  T
   3   -420.5941059 -0.480160E-02  0.634E-02    0.00       1.0  T
   4   -420.5896477  0.445815E-02  0.839E-02    0.02       1.0  T
   5   -420.5921173 -0.246956E-02  0.804E-02    0.01       1.0  T
   6   -420.5950992 -0.298194E-02  0.616E-02    0.01       1.0  T
   7   -420.5972916 -0.219235E-02  0.330E-02    0.00       1.0  T
   8   -420.5981938 -0.902261E-03  0.122E-02    0.00       1.0  T
   9   -420.5981254  0.684161E-04  0.154E-02    0.00       1.0  T
  10   -420.5982418 -0.116435E-03  0.925E-03    0.00       1.0  T
  11   -420.5982995 -0.576865E-04  0.280E-03    0.00       2.1  T
  12   -420.5983013 -0.180585E-05  0.227E-03    0.00       2.5  T
  13   -420.5983034 -0.208685E-05  0.109E-03    0.00       5.3  T
  14   -420.5983043 -0.834762E-06  0.639E-04    0.00       9.0  T
  15   -420.5983047 -0.401761E-06  0.237E-04    0.00      24.3  T
     SCC iter.                  ...        0 min,  2.892 sec
     gradient                   ...        0 min,  0.453 sec
 * total energy  :  -414.0603632 Eh     change       -0.2095957E-03 Eh
   gradient norm :     0.0051342 Eh/α   predicted    -0.1448034E-03 ( -30.91%)
   displ. norm   :     0.3464094 α      lambda       -0.2521661E-03
   maximum displ.:     0.2081171 α      in ANC's #1, #8, #31, ...

........................................................................
.............................. CYCLE    6 ..............................
........................................................................

 iter      E             dE          RMSdq      gap      omega  full diag
   1   -420.5965356 -0.420597E+03  0.215E-02    0.00       0.0  T
   2   -420.5813555  0.151801E-01  0.121E-01    0.02       1.0  T
   3   -420.5716228  0.973265E-02  0.140E-01    0.03       1.0  T
   4   -420.5956532 -0.240304E-01  0.371E-02    0.01       1.0  T
   5   -420.5907568  0.489642E-02  0.846E-02    0.00       1.0  T
   6   -420.5950300 -0.427318E-02  0.462E-02    0.01       1.0  T
   7   -420.5940482  0.981788E-03  0.573E-02    0.00       1.0  T
   8   -420.5961919 -0.214366E-02  0.224E-02    0.00       1.0  T
   9   -420.5965585 -0.366676E-03  0.120E-02    0.00       1.0  T
  10   -420.5965803 -0.217952E-04  0.931E-03    0.00       1.0  T
  11   -420.5966378 -0.574472E-04  0.332E-03    0.00       1.7  T
  12   -420.5966354  0.241828E-05  0.387E-03    0.00       1.5  T
  13   -420.5966406 -0.520090E-05  0.179E-03    0.00       3.2  T
  14   -420.5966445 -0.388000E-05  0.614E-04    0.00       9.4  T
  15   -420.5966446 -0.127835E-06  0.417E-04    0.00      13.8  T
  16   -420.5966446 -0.475640E-07  0.295E-04    0.00      19.5  T
     SCC iter.                  ...        0 min,  3.610 sec
     gradient                   ...        0 min,  0.460 sec
 * total energy  :  -414.0605646 Eh     change       -0.2014108E-03 Eh
   gradient norm :     0.0044735 Eh/α   predicted    -0.1412160E-03 ( -29.89%)
   displ. norm   :     0.3938109 α      lambda       -0.2449642E-03
   maximum displ.:     0.2271499 α      in ANC's #1, #8, #7, ...

........................................................................
.............................. CYCLE    7 ..............................
........................................................................

 iter      E             dE          RMSdq      gap      omega  full diag
   1   -420.5954096 -0.420595E+03  0.217E-02    0.00       0.0  T
   2   -420.5694146  0.259949E-01  0.150E-01    0.02       1.0  T
   3   -420.5763990 -0.698437E-02  0.128E-01    0.03       1.0  T
   4   -420.5943165 -0.179175E-01  0.407E-02    0.00       1.0  T
   5   -420.5914956  0.282087E-02  0.740E-02    0.00       1.0  T
   6   -420.5925675 -0.107189E-02  0.542E-02    0.00       1.0  T
   7   -420.5927587 -0.191167E-03  0.619E-02    0.01       1.0  T
   8   -420.5953395 -0.258083E-02  0.144E-02    0.00       1.0  T
   9   -420.5954215 -0.820343E-04  0.117E-02    0.00       1.0  T
  10   -420.5954980 -0.764230E-04  0.594E-03    0.00       1.0  T
  11   -420.5955125 -0.145697E-04  0.341E-03    0.00       1.7  T
  12   -420.5955079  0.465105E-05  0.398E-03    0.00       1.4  T
  13   -420.5955168 -0.893455E-05  0.171E-03    0.00       3.4  T
  14   -420.5955198 -0.298689E-05  0.789E-04    0.00       7.3  T
  15   -420.5955201 -0.296408E-06  0.559E-04    0.00      10.3  T
  16   -420.5955204 -0.336923E-06  0.189E-04    0.00      30.5  T
     SCC iter.                  ...        0 min,  3.162 sec
     gradient                   ...        0 min,  0.448 sec
 * total energy  :  -414.0607565 Eh     change       -0.1918864E-03 Eh
   gradient norm :     0.0028867 Eh/α   predicted    -0.1414778E-03 ( -26.27%)
   displ. norm   :     0.4080082 α      lambda       -0.2064889E-03
   maximum displ.:     0.2231007 α      in ANC's #1, #8, #7, ...

........................................................................
.............................. CYCLE    8 ..............................
........................................................................

 iter      E             dE          RMSdq      gap      omega  full diag
   1   -420.5953266 -0.420595E+03  0.201E-02    0.00       0.0  T
   2   -420.5715620  0.237646E-01  0.147E-01    0.02       1.0  T
   3   -420.5816063 -0.100442E-01  0.109E-01    0.02       1.0  T
   4   -420.5935856 -0.119793E-01  0.473E-02    0.00       1.0  T
   5   -420.5923306  0.125498E-02  0.626E-02    0.00       1.0  T
   6   -420.5914840  0.846558E-03  0.647E-02    0.00       1.0  T
   7   -420.5939292 -0.244518E-02  0.463E-02    0.00       1.0  T
   8   -420.5952142 -0.128498E-02  0.166E-02    0.00       1.0  T
   9   -420.5953646 -0.150439E-03  0.859E-03    0.00       1.0  T
  10   -420.5953893 -0.246529E-04  0.621E-03    0.00       1.0  T
  11   -420.5954072 -0.178866E-04  0.318E-03    0.00       1.8  T
  12   -420.5954047  0.249744E-05  0.376E-03    0.00       1.5  T
  13   -420.5954132 -0.856435E-05  0.914E-04    0.00       6.3  T
  14   -420.5954127  0.494980E-06  0.103E-03    0.00       5.6  T
  15   -420.5954140 -0.129566E-05  0.239E-04    0.00      24.0  T
  16   -420.5954141 -0.291237E-07  0.129E-04    0.00      44.5  T
  17   -420.5954141 -0.118704E-07  0.473E-05    0.00     121.8  T
     SCC iter.                  ...        0 min,  3.017 sec
     gradient                   ...        0 min,  0.446 sec
 * total energy  :  -414.0609197 Eh     change       -0.1632190E-03 Eh
   gradient norm :     0.0026038 Eh/α   predicted    -0.1204390E-03 ( -26.21%)
   displ. norm   :     0.4281316 α      lambda       -0.1917896E-03
   maximum displ.:     0.2172639 α      in ANC's #1, #8, #7, ...

........................................................................
.............................. CYCLE    9 ..............................
........................................................................

 iter      E             dE          RMSdq      gap      omega  full diag
   1   -420.5961224 -0.420596E+03  0.189E-02    0.00       0.0  T
   2   -420.5854000  0.107224E-01  0.109E-01    0.01       1.0  T
   3   -420.5881694 -0.276936E-02  0.817E-02    0.02       1.0  T
   4   -420.5928310 -0.466164E-02  0.559E-02    0.01       1.0  T
   5   -420.5921751  0.655954E-03  0.675E-02    0.00       1.0  T
   6   -420.5930340 -0.858895E-03  0.623E-02    0.00       1.0  T
   7   -420.5953208 -0.228683E-02  0.358E-02    0.00       1.0  T
   8   -420.5960011 -0.680281E-03  0.154E-02    0.00       1.0  T
   9   -420.5961410 -0.139868E-03  0.804E-03    0.00       1.0  T
  10   -420.5961707 -0.297235E-04  0.398E-03    0.00       1.4  T
  11   -420.5961745 -0.384253E-05  0.292E-03    0.00       2.0  T
  12   -420.5961778 -0.330043E-05  0.197E-03    0.00       2.9  T
  13   -420.5961799 -0.208334E-05  0.101E-03    0.00       5.7  T
  14   -420.5961801 -0.199258E-06  0.608E-04    0.00       9.5  T
  15   -420.5961804 -0.277258E-06  0.339E-04    0.00      17.0  T
     SCC iter.                  ...        0 min,  2.622 sec
     gradient                   ...        0 min,  0.446 sec
 * total energy  :  -414.0610786 Eh     change       -0.1589300E-03 Eh
   gradient norm :     0.0035161 Eh/α   predicted    -0.1134738E-03 ( -28.60%)
   displ. norm   :     0.4872859 α      lambda       -0.2249743E-03
   maximum displ.:     0.2321768 α      in ANC's #8, #1, #7, ...

........................................................................
.............................. CYCLE   10 ..............................
........................................................................

 iter      E             dE          RMSdq      gap      omega  full diag
   1   -420.5975829 -0.420598E+03  0.203E-02    0.00       0.0  T
   2   -420.5893250  0.825787E-02  0.103E-01    0.00       1.0  T
   3   -420.5950420 -0.571695E-02  0.505E-02    0.01       1.0  T
   4   -420.5840074  0.110345E-01  0.104E-01    0.02       1.0  T
   5   -420.5899017 -0.589427E-02  0.890E-02    0.01       1.0  T
   6   -420.5933029 -0.340122E-02  0.800E-02    0.00       1.0  T
   7   -420.5968854 -0.358252E-02  0.339E-02    0.00       1.0  T
   8   -420.5974443 -0.558829E-03  0.150E-02    0.00       1.0  T
   9   -420.5975439 -0.996434E-04  0.101E-02    0.00       1.0  T
  10   -420.5976013 -0.573527E-04  0.688E-03    0.00       1.0  T
  11   -420.5976286 -0.273493E-04  0.326E-03    0.00       1.8  T
  12   -420.5976348 -0.623347E-05  0.100E-03    0.00       5.7  T
  13   -420.5976345  0.317810E-06  0.120E-03    0.00       4.8  T
  14   -420.5976349 -0.384592E-06  0.753E-04    0.00       7.6  T
  15   -420.5976354 -0.451160E-06  0.365E-04    0.00      15.8  T
     SCC iter.                  ...        0 min,  2.812 sec
     gradient                   ...        0 min,  0.442 sec
 * total energy  :  -414.0612730 Eh     change       -0.1943837E-03 Eh
   gradient norm :     0.0042582 Eh/α   predicted    -0.1391971E-03 ( -28.39%)
   displ. norm   :     0.5685380 α      lambda       -0.2862429E-03
   maximum displ.:     0.2739810 α      in ANC's #8, #1, #7, ...

........................................................................
.............................. CYCLE   11 ..............................
........................................................................

 iter      E             dE          RMSdq      gap      omega  full diag
   1   -420.5991867 -0.420599E+03  0.242E-02    0.00       0.0  T
   2   -420.5648289  0.343579E-01  0.179E-01    0.02       1.0  T
   3   -420.5915075 -0.266787E-01  0.857E-02    0.02       1.0  T
   4   -420.5924026 -0.895044E-03  0.795E-02    0.01       1.0  T
   5   -420.5923563  0.462881E-04  0.916E-02    0.00       1.0  T
   6   -420.5957895 -0.343323E-02  0.721E-02    0.01       1.0  T
   7   -420.5978174 -0.202785E-02  0.449E-02    0.00       1.0  T
   8   -420.5990797 -0.126228E-02  0.161E-02    0.00       1.0  T
   9   -420.5990662  0.134944E-04  0.129E-02    0.00       1.0  T
  10   -420.5992540 -0.187823E-03  0.545E-03    0.00       1.1  T
  11   -420.5992649 -0.109523E-04  0.365E-03    0.00       1.6  T
  12   -420.5992651 -0.136558E-06  0.366E-03    0.00       1.6  T
  13   -420.5992729 -0.786422E-05  0.899E-04    0.00       6.4  T
  14   -420.5992733 -0.370319E-06  0.578E-04    0.00      10.0  T
  15   -420.5992735 -0.156676E-06  0.395E-04    0.00      14.6  T
     SCC iter.                  ...        0 min,  2.638 sec
     gradient                   ...        0 min,  0.448 sec
 * total energy  :  -414.0615232 Eh     change       -0.2502504E-03 Eh
   gradient norm :     0.0043603 Eh/α   predicted    -0.1893843E-03 ( -24.32%)
   displ. norm   :     0.6299479 α      lambda       -0.3322949E-03
   maximum displ.:     0.3059983 α      in ANC's #8, #7, #1, ...

........................................................................
.............................. CYCLE   12 ..............................
........................................................................

 iter      E             dE          RMSdq      gap      omega  full diag
   1   -420.6001598 -0.420600E+03  0.275E-02    0.00       0.0  T
   2   -420.5452087  0.549511E-01  0.219E-01    0.03       1.0  T
   3   -420.5939693 -0.487605E-01  0.816E-02    0.02       1.0  T
   4   -420.5934580  0.511264E-03  0.819E-02    0.01       1.0  T
   5   -420.5876239  0.583407E-02  0.120E-01    0.00       1.0  T
   6   -420.5955694 -0.794545E-02  0.839E-02    0.01       1.0  T
   7   -420.5979908 -0.242141E-02  0.560E-02    0.01       1.0  T
   8   -420.6000370 -0.204620E-02  0.180E-02    0.00       1.0  T
   9   -420.6001379 -0.100882E-03  0.113E-02    0.00       1.0  T
  10   -420.6002453 -0.107444E-03  0.648E-03    0.00       1.0  T
  11   -420.6002510 -0.564855E-05  0.552E-03    0.00       1.0  T
  12   -420.6002676 -0.166319E-04  0.271E-03    0.00       2.1  T
  13   -420.6002705 -0.295867E-05  0.138E-03    0.00       4.2  T
  14   -420.6002718 -0.130462E-05  0.390E-04    0.00      14.8  T
  15   -420.6002718 -0.200657E-09  0.258E-04    0.00      22.3  T
  16   -420.6002719 -0.432944E-07  0.185E-04    0.00      31.1  T
     SCC iter.                  ...        0 min,  2.877 sec
     gradient                   ...        0 min,  0.459 sec
 * total energy  :  -414.0618125 Eh     change       -0.2892587E-03 Eh
   gradient norm :     0.0040071 Eh/α   predicted    -0.2320856E-03 ( -19.77%)
   displ. norm   :     0.6577581 α      lambda       -0.3415840E-03
   maximum displ.:     0.3236521 α      in ANC's #8, #7, #1, ...

........................................................................
.............................. CYCLE   13 ..............................
........................................................................

 iter      E             dE          RMSdq      gap      omega  full diag
   1   -420.6001266 -0.420600E+03  0.276E-02    0.00       0.0  T
   2   -420.5603750  0.397515E-01  0.188E-01    0.03       1.0  T
   3   -420.5930807 -0.327057E-01  0.826E-02    0.02       1.0  T
   4   -420.5925255  0.555194E-03  0.874E-02    0.01       1.0  T
   5   -420.5881085  0.441697E-02  0.118E-01    0.00       1.0  T
   6   -420.5954499 -0.734136E-02  0.837E-02    0.00       1.0  T
   7   -420.5976970 -0.224708E-02  0.598E-02    0.01       1.0  T
   8   -420.5998812 -0.218426E-02  0.213E-02    0.00       1.0  T
   9   -420.6001353 -0.254106E-03  0.956E-03    0.00       1.0  T
  10   -420.6001503 -0.149650E-04  0.969E-03    0.00       1.0  T
  11   -420.6001941 -0.438043E-04  0.535E-03    0.00       1.1  T
  12   -420.6002049 -0.107580E-04  0.350E-03    0.00       1.6  T
  13   -420.6002113 -0.639375E-05  0.150E-03    0.00       3.8  T
  14   -420.6002111  0.136804E-06  0.120E-03    0.00       4.8  T
  15   -420.6002122 -0.111008E-05  0.543E-04    0.00      10.6  T
  16   -420.6002126 -0.343467E-06  0.143E-04    0.00      40.2  T
  17   -420.6002126 -0.525176E-08  0.107E-04    0.00      53.9  T
     SCC iter.                  ...        0 min,  3.009 sec
     gradient                   ...        0 min,  0.450 sec
 * total energy  :  -414.0621098 Eh     change       -0.2972699E-03 Eh
   gradient norm :     0.0037286 Eh/α   predicted    -0.2446879E-03 ( -17.69%)
   displ. norm   :     0.6658103 α      lambda       -0.3363162E-03
   maximum displ.:     0.3337526 α      in ANC's #8, #7, #1, ...

........................................................................
.............................. CYCLE   14 ..............................
........................................................................

 iter      E             dE          RMSdq      gap      omega  full diag
   1   -420.5993668 -0.420599E+03  0.254E-02    0.00       0.0  T
   2   -420.5872381  0.121287E-01  0.110E-01    0.02       1.0  T
   3   -420.5905670 -0.332893E-02  0.860E-02    0.02       1.0  T
   4   -420.5858177  0.474930E-02  0.113E-01    0.02       1.0  T
   5   -420.5928142 -0.699648E-02  0.891E-02    0.00       1.0  T
   6   -420.5936358 -0.821663E-03  0.863E-02    0.01       1.0  T
   7   -420.5972097 -0.357389E-02  0.558E-02    0.00       1.0  T
   8   -420.5991691 -0.195940E-02  0.176E-02    0.00       1.0  T
   9   -420.5993647 -0.195516E-03  0.789E-03    0.00       1.0  T
  10   -420.5993947 -0.300233E-04  0.403E-03    0.00       1.4  T
  11   -420.5993748  0.199288E-04  0.675E-03    0.00       1.0  T
  12   -420.5994009 -0.261831E-04  0.217E-03    0.00       2.6  T
  13   -420.5994020 -0.110500E-05  0.214E-03    0.00       2.7  T
  14   -420.5994033 -0.126679E-05  0.131E-03    0.00       4.4  T
  15   -420.5994047 -0.143684E-05  0.444E-04    0.00      13.0  T
  16   -420.5994049 -0.192816E-06  0.132E-04    0.00      43.4  T
  17   -420.5994049 -0.436125E-08  0.109E-04    0.00      52.7  T
     SCC iter.                  ...        0 min,  3.386 sec
     gradient                   ...        0 min,  0.458 sec
 * total energy  :  -414.0624072 Eh     change       -0.2974363E-03 Eh
   gradient norm :     0.0037343 Eh/α   predicted    -0.2427062E-03 ( -18.40%)
   displ. norm   :     0.6796367 α      lambda       -0.3503999E-03
   maximum displ.:     0.3467071 α      in ANC's #8, #7, #1, ...

........................................................................
.............................. CYCLE   15 ..............................
........................................................................

 iter      E             dE          RMSdq      gap      omega  full diag
   1   -420.5984086 -0.420598E+03  0.240E-02    0.00       0.0  T
   2   -420.5958260  0.258268E-02  0.582E-02    0.00       1.0  T
   3   -420.5908786  0.494735E-02  0.821E-02    0.01       1.0  T
   4   -420.5493505  0.415281E-01  0.201E-01    0.04       1.0  T
   5   -420.5964763 -0.471257E-01  0.517E-02    0.00       1.0  T
   6   -420.5901466  0.632961E-02  0.104E-01    0.00       1.0  T
   7   -420.5981025 -0.795590E-02  0.193E-02    0.00       1.0  T
   8   -420.5983080 -0.205458E-03  0.135E-02    0.00       1.0  T
   9   -420.5983918 -0.837874E-04  0.716E-03    0.00       1.0  T
  10   -420.5984033 -0.115060E-04  0.603E-03    0.00       1.0  T
  11   -420.5984153 -0.120192E-04  0.432E-03    0.00       1.3  T
  12   -420.5984242 -0.884084E-05  0.194E-03    0.00       3.0  T
  13   -420.5984246 -0.419767E-06  0.143E-03    0.00       4.0  T
  14   -420.5984258 -0.123266E-05  0.109E-03    0.00       5.3  T
  15   -420.5984262 -0.413552E-06  0.555E-04    0.00      10.4  T
  16   -420.5984265 -0.318552E-06  0.115E-04    0.00      50.0  T
     SCC iter.                  ...        0 min,  3.142 sec
     gradient                   ...        0 min,  0.462 sec
 * total energy  :  -414.0627231 Eh     change       -0.3158694E-03 Eh
   gradient norm :     0.0038910 Eh/α   predicted    -0.2561266E-03 ( -18.91%)
   displ. norm   :     0.7044970 α      lambda       -0.3850149E-03
   maximum displ.:     0.3637019 α      in ANC's #8, #7, #1, ...

........................................................................
.............................. CYCLE   16 ..............................
........................................................................

 iter      E             dE          RMSdq      gap      omega  full diag
   1   -420.5977396 -0.420598E+03  0.251E-02    0.00       0.0  T
   2   -420.5777337  0.200059E-01  0.126E-01    0.02       1.0  T
   3   -420.5867016 -0.896787E-02  0.948E-02    0.02       1.0  T
   4   -420.5931580 -0.645641E-02  0.821E-02    0.01       1.0  T
   5   -420.5918221  0.133587E-02  0.927E-02    0.00       1.0  T
   6   -420.5949070 -0.308487E-02  0.553E-02    0.00       1.0  T
   7   -420.5956631 -0.756107E-03  0.487E-02    0.00       1.0  T
   8   -420.5976101 -0.194698E-02  0.163E-02    0.00       1.0  T
   9   -420.5977458 -0.135712E-03  0.741E-03    0.00       1.0  T
  10   -420.5977710 -0.251847E-04  0.401E-03    0.00       1.4  T
  11   -420.5977520  0.189233E-04  0.699E-03    0.00       1.0  T
  12   -420.5977798 -0.277955E-04  0.183E-03    0.00       3.1  T
  13   -420.5977793  0.513226E-06  0.195E-03    0.00       3.0  T
  14   -420.5977817 -0.240754E-05  0.582E-04    0.00       9.9  T
  15   -420.5977812  0.542170E-06  0.763E-04    0.00       7.5  T
  16   -420.5977819 -0.711093E-06  0.141E-04    0.00      40.7  T
     SCC iter.                  ...        0 min,  3.166 sec
     gradient                   ...        0 min,  0.448 sec
 * total energy  :  -414.0630718 Eh     change       -0.3487629E-03 Eh
   gradient norm :     0.0041035 Eh/α   predicted    -0.2880530E-03 ( -17.41%)
   displ. norm   :     0.7311044 α      lambda       -0.4117885E-03
   maximum displ.:     0.3804490 α      in ANC's #8, #7, #1, ...

........................................................................
.............................. CYCLE   17 ..............................
........................................................................

 iter      E             dE          RMSdq      gap      omega  full diag
   1   -420.5975904 -0.420598E+03  0.274E-02    0.00       0.0  T
   2   -420.5514488  0.461416E-01  0.190E-01    0.03       1.0  T
   3   -420.5894757 -0.380268E-01  0.873E-02    0.02       1.0  T
   4   -420.5941760 -0.470032E-02  0.716E-02    0.01       1.0  T
   5   -420.5880984  0.607759E-02  0.118E-01    0.00       1.0  T
   6   -420.5947531 -0.665472E-02  0.513E-02    0.00       1.0  T
   7   -420.5972061 -0.245296E-02  0.251E-02    0.00       1.0  T
   8   -420.5971110  0.950626E-04  0.258E-02    0.00       1.0  T
   9   -420.5976265 -0.515431E-03  0.881E-03    0.00       1.0  T
  10   -420.5976189  0.758592E-05  0.900E-03    0.00       1.0  T
  11   -420.5976500 -0.310966E-04  0.650E-03    0.00       1.0  T
  12   -420.5976737 -0.236879E-04  0.203E-03    0.00       2.8  T
  13   -420.5976739 -0.286801E-06  0.181E-03    0.00       3.2  T
  14   -420.5976753 -0.140200E-05  0.907E-04    0.00       6.3  T
  15   -420.5976764 -0.106499E-05  0.242E-04    0.00      23.8  T
  16   -420.5976764  0.590933E-08  0.201E-04    0.00      28.6  T
  17   -420.5976764 -0.294984E-07  0.118E-04    0.00      48.7  T
     SCC iter.                  ...        0 min,  3.378 sec
     gradient                   ...        0 min,  0.472 sec
 * total energy  :  -414.0634422 Eh     change       -0.3703511E-03 Eh
   gradient norm :     0.0042180 Eh/α   predicted    -0.3159548E-03 ( -14.69%)
   displ. norm   :     0.7458824 α      lambda       -0.4082607E-03
   maximum displ.:     0.3918030 α      in ANC's #8, #7, #1, ...

........................................................................
.............................. CYCLE   18 ..............................
........................................................................

 iter      E             dE          RMSdq      gap      omega  full diag
   1   -420.5981233 -0.420598E+03  0.282E-02    0.00       0.0  T
   2   -420.5463017  0.518216E-01  0.203E-01    0.03       1.0  T
   3   -420.5899907 -0.436890E-01  0.887E-02    0.02       1.0  T
   4   -420.5942702 -0.427955E-02  0.740E-02    0.00       1.0  T
   5   -420.5888561  0.541415E-02  0.115E-01    0.00       1.0  T
   6   -420.5938416 -0.498552E-02  0.688E-02    0.00       1.0  T
   7   -420.5976490 -0.380746E-02  0.262E-02    0.00       1.0  T
   8   -420.5979699 -0.320852E-03  0.173E-02    0.00       1.0  T
   9   -420.5981213 -0.151390E-03  0.111E-02    0.00       1.0  T
  10   -420.5981538 -0.324630E-04  0.870E-03    0.00       1.0  T
  11   -420.5982037 -0.499181E-04  0.515E-03    0.00       1.1  T
  12   -420.5982191 -0.154472E-04  0.178E-03    0.00       3.2  T
  13   -420.5982185  0.571187E-06  0.179E-03    0.00       3.2  T
  14   -420.5982203 -0.174788E-05  0.767E-04    0.00       7.5  T
  15   -420.5982210 -0.730862E-06  0.181E-04    0.00      31.7  T
  16   -420.5982210 -0.867067E-08  0.128E-04    0.00      45.1  T
     SCC iter.                  ...        0 min,  3.317 sec
     gradient                   ...        0 min,  0.465 sec
 * total energy  :  -414.0638075 Eh     change       -0.3653010E-03 Eh
   gradient norm :     0.0040277 Eh/α   predicted    -0.3176973E-03 ( -13.03%)
   displ. norm   :     0.7457086 α      lambda       -0.3842380E-03
   maximum displ.:     0.3960615 α      in ANC's #8, #7, #1, ...

........................................................................
.............................. CYCLE   19 ..............................
........................................................................

 iter      E             dE          RMSdq      gap      omega  full diag
   1   -420.5993750 -0.420599E+03  0.268E-02    0.00       0.0  T
   2   -420.5654281  0.339469E-01  0.167E-01    0.03       1.0  T
   3   -420.5895828 -0.241547E-01  0.935E-02    0.02       1.0  T
   4   -420.5952310 -0.564820E-02  0.736E-02    0.01       1.0  T
   5   -420.5923726  0.285839E-02  0.102E-01    0.00       1.0  T
   6   -420.5961497 -0.377704E-02  0.662E-02    0.00       1.0  T
   7   -420.5990164 -0.286677E-02  0.241E-02    0.00       1.0  T
   8   -420.5992174 -0.201002E-03  0.172E-02    0.00       1.0  T
   9   -420.5994047 -0.187256E-03  0.824E-03    0.00       1.0  T
  10   -420.5994272 -0.224764E-04  0.562E-03    0.00       1.0  T
  11   -420.5994253  0.190574E-05  0.517E-03    0.00       1.1  T
  12   -420.5994425 -0.172390E-04  0.305E-03    0.00       1.9  T
  13   -420.5994475 -0.494982E-05  0.108E-03    0.00       5.3  T
  14   -420.5994480 -0.501025E-06  0.501E-04    0.00      11.5  T
  15   -420.5994480 -0.832927E-07  0.429E-04    0.00      13.4  T
     SCC iter.                  ...        0 min,  3.196 sec
     gradient                   ...        0 min,  0.450 sec
 * total energy  :  -414.0641514 Eh     change       -0.3439010E-03 Eh
   gradient norm :     0.0035664 Eh/α   predicted    -0.2989567E-03 ( -13.07%)
   displ. norm   :     0.7351596 α      lambda       -0.3574965E-03
   maximum displ.:     0.3941169 α      in ANC's #8, #7, #12, ...

........................................................................
.............................. CYCLE   20 ..............................
........................................................................

 iter      E             dE          RMSdq      gap      omega  full diag
   1   -420.6011747 -0.420601E+03  0.252E-02    0.00       0.0  T
   2   -420.5847824  0.163923E-01  0.124E-01    0.01       1.0  T
   3   -420.5913190 -0.653660E-02  0.892E-02    0.02       1.0  T
   4   -420.5949231 -0.360411E-02  0.803E-02    0.01       1.0  T
   5   -420.5967276 -0.180449E-02  0.828E-02    0.00       1.0  T
   6   -420.6006927 -0.396516E-02  0.300E-02    0.00       1.0  T
   7   -420.6011215 -0.428761E-03  0.124E-02    0.00       1.0  T
   8   -420.6011109  0.105637E-04  0.119E-02    0.00       1.0  T
   9   -420.6010963  0.145943E-04  0.130E-02    0.00       1.0  T
  10   -420.6011987 -0.102403E-03  0.652E-03    0.00       1.0  T
  11   -420.6012031 -0.440057E-05  0.522E-03    0.00       1.1  T
  12   -420.6012219 -0.187649E-04  0.309E-03    0.00       1.9  T
  13   -420.6012271 -0.524274E-05  0.936E-04    0.00       6.2  T
  14   -420.6012275 -0.398589E-06  0.496E-04    0.00      11.6  T
  15   -420.6012275  0.355516E-07  0.435E-04    0.00      13.2  T
     SCC iter.                  ...        0 min,  8.417 sec
     gradient                   ...        0 min,  0.480 sec
 * total energy  :  -414.0644714 Eh     change       -0.3200146E-03 Eh
   gradient norm :     0.0031161 Eh/α   predicted    -0.2753569E-03 ( -13.95%)
   displ. norm   :     0.7191863 α      lambda       -0.3317436E-03
   maximum displ.:     0.3881116 α      in ANC's #8, #7, #6, ...
 * RMSD in coord.:     0.5507249 α      energy gain  -0.5500949E-02 Eh

generating ANC from model Hessian ...
Using Lindh-Hessian (1995)
 Shifting diagonal of input Hessian by    1.0018737389926579E-002
 Lowest  eigenvalues of input Hessian
    0.010000    0.010009    0.010012    0.000000    0.000000    0.000000
    0.000000    0.000000    0.000000    0.010030    0.010042    0.010052
    0.010079    0.010081    0.010100    0.010104    0.010127    0.010153
 Highest eigenvalues
    2.189733    2.192995    2.194037    2.195346    2.195811    2.197252


........................................................................
.............................. CYCLE   21 ..............................
........................................................................

 iter      E             dE          RMSdq      gap      omega  full diag
   1   -420.6029952 -0.420603E+03  0.242E-02    0.00       0.0  T
   2   -420.5953481  0.764704E-02  0.997E-02    0.00       1.0  T
   3   -420.6018510 -0.650289E-02  0.385E-02    0.00       1.0  T
   4   -420.5515533  0.502977E-01  0.204E-01    0.03       1.0  T
   5   -420.5901555 -0.386022E-01  0.117E-01    0.02       1.0  T
   6   -420.6018315 -0.116760E-01  0.441E-02    0.01       1.0  T
   7   -420.6028762 -0.104471E-02  0.138E-02    0.00       1.0  T
   8   -420.6026977  0.178500E-03  0.207E-02    0.00       1.0  T
   9   -420.6028591 -0.161396E-03  0.152E-02    0.00       1.0  T
  10   -420.6029452 -0.861031E-04  0.104E-02    0.00       1.0  T
  11   -420.6030159 -0.706710E-04  0.492E-03    0.00       1.2  T
  12   -420.6030334 -0.174828E-04  0.292E-03    0.00       2.0  T
  13   -420.6030382 -0.481835E-05  0.895E-04    0.00       6.4  T
  14   -420.6030379  0.349623E-06  0.797E-04    0.00       7.2  T
  15   -420.6030386 -0.701247E-06  0.345E-04    0.00      16.7  T
     SCC iter.                  ...        0 min,  5.364 sec
     gradient                   ...        0 min,  0.455 sec
 * total energy  :  -414.0647669 Eh     change       -0.2954580E-03 Eh
   gradient norm :     0.0029535 Eh/α   predicted     0.0000000E+00 (-100.00%)
   displ. norm   :     0.0647311 α      lambda       -0.6070915E-04
   maximum displ.:     0.0297237 α      in ANC's #12, #9, #10, ...

........................................................................
.............................. CYCLE   22 ..............................
........................................................................

 iter      E             dE          RMSdq      gap      omega  full diag
   1   -420.6032601 -0.420603E+03  0.540E-03    0.00       0.0  T
   2   -420.6023344  0.925711E-03  0.286E-02    0.01       1.0  T
   3   -420.6024846 -0.150165E-03  0.251E-02    0.01       1.0  T
   4   -420.6031333 -0.648686E-03  0.138E-02    0.00       1.0  T
   5   -420.6028032  0.330093E-03  0.230E-02    0.00       1.0  T
   6   -420.6031158 -0.312594E-03  0.141E-02    0.00       1.0  T
   7   -420.6032167 -0.100940E-03  0.775E-03    0.00       1.0  T
   8   -420.6032239 -0.721564E-05  0.712E-03    0.00       1.0  T
   9   -420.6032608 -0.368979E-04  0.176E-03    0.00       3.3  T
  10   -420.6032623 -0.143855E-05  0.583E-04    0.00       9.9  T
  11   -420.6032619  0.371668E-06  0.102E-03    0.00       5.6  T
  12   -420.6032623 -0.462493E-06  0.387E-04    0.00      14.9  T
  13   -420.6032624 -0.573792E-07  0.344E-04    0.00      16.7  T
     SCC iter.                  ...        0 min,  2.793 sec
     gradient                   ...        0 min,  0.478 sec
 * total energy  :  -414.0648246 Eh     change       -0.5768403E-04 Eh
   gradient norm :     0.0018268 Eh/α   predicted    -0.3181005E-04 ( -44.85%)
   displ. norm   :     0.4861715 α      lambda       -0.2534160E-03
   maximum displ.:     0.2178283 α      in ANC's #12, #9, #34, ...

........................................................................
.............................. CYCLE   23 ..............................
........................................................................

 iter      E             dE          RMSdq      gap      omega  full diag
   1   -420.6019149 -0.420602E+03  0.369E-02    0.00       0.0  T
   2   -420.5430926  0.588223E-01  0.223E-01    0.05       1.0  T
   3   -420.5789333 -0.358407E-01  0.142E-01    0.03       1.0  T
   4   -420.5947977 -0.158644E-01  0.101E-01    0.01       1.0  T
   5   -420.5817875  0.130102E-01  0.152E-01    0.01       1.0  T
   6   -420.5974384 -0.156509E-01  0.868E-02    0.00       1.0  T
   7   -420.6003108 -0.287237E-02  0.503E-02    0.00       1.0  T
   8   -420.6002084  0.102370E-03  0.472E-02    0.00       1.0  T
   9   -420.6017673 -0.155894E-02  0.224E-02    0.00       1.0  T
  10   -420.6018896 -0.122233E-03  0.170E-02    0.00       1.0  T
  11   -420.6019442 -0.546334E-04  0.132E-02    0.00       1.0  T
  12   -420.6020570 -0.112784E-03  0.462E-03    0.00       1.2  T
  13   -420.6020604 -0.344962E-05  0.372E-03    0.00       1.5  T
  14   -420.6020672 -0.676440E-05  0.207E-03    0.00       2.8  T
  15   -420.6020623  0.488686E-05  0.228E-03    0.00       2.5  T
  16   -420.6020692 -0.690230E-05  0.645E-04    0.00       8.9  T
  17   -420.6020694 -0.136353E-06  0.471E-04    0.00      12.2  T
  18   -420.6020695 -0.151891E-06  0.907E-05    0.00      63.5  T
     SCC iter.                  ...        0 min,  4.790 sec
     gradient                   ...        0 min,  0.516 sec
 * total energy  :  -414.0650302 Eh     change       -0.2056212E-03 Eh
   gradient norm :     0.0049075 Eh/α   predicted    -0.1400206E-03 ( -31.90%)
   displ. norm   :     0.1353430 α      lambda       -0.7376446E-04
   maximum displ.:     0.0680404 α      in ANC's #12, #9, #10, ...

........................................................................
.............................. CYCLE   24 ..............................
........................................................................

 iter      E             dE          RMSdq      gap      omega  full diag
   1   -420.6022244 -0.420602E+03  0.815E-03    0.00       0.0  T
   2   -420.5907919  0.114325E-01  0.935E-02    0.01       1.0  T
   3   -420.6013745 -0.105826E-01  0.311E-02    0.01       1.0  T
   4   -420.6020501 -0.675567E-03  0.166E-02    0.00       1.0  T
   5   -420.6014519  0.598184E-03  0.326E-02    0.00       1.0  T
   6   -420.6021884 -0.736532E-03  0.969E-03    0.00       1.0  T
   7   -420.6022216 -0.331645E-04  0.566E-03    0.00       1.0  T
   8   -420.6021851  0.364996E-04  0.788E-03    0.00       1.0  T
   9   -420.6022325 -0.474646E-04  0.414E-03    0.00       1.4  T
  10   -420.6022405 -0.798142E-05  0.251E-03    0.00       2.3  T
  11   -420.6022437 -0.319571E-05  0.988E-04    0.00       5.8  T
  12   -420.6022442 -0.516900E-06  0.648E-04    0.00       8.9  T
  13   -420.6022445 -0.230949E-06  0.203E-04    0.00      28.3  T
     SCC iter.                  ...        0 min,  4.729 sec
     gradient                   ...        0 min,  0.493 sec
 * total energy  :  -414.0650994 Eh     change       -0.6922147E-04 Eh
   gradient norm :     0.0043156 Eh/α   predicted    -0.3755872E-04 ( -45.74%)
   displ. norm   :     0.4329638 α      lambda       -0.2630575E-03
   maximum displ.:     0.2129705 α      in ANC's #12, #9, #10, ...

........................................................................
.............................. CYCLE   25 ..............................
........................................................................

 iter      E             dE          RMSdq      gap      omega  full diag
   1   -420.6024807 -0.420602E+03  0.242E-02    0.00       0.0  T
   2   -420.5320071  0.704736E-01  0.237E-01    0.03       1.0  T
   3   -420.5951382 -0.631312E-01  0.942E-02    0.02       1.0  T
   4   -420.5998800 -0.474177E-02  0.615E-02    0.01       1.0  T
   5   -420.5966596  0.322043E-02  0.829E-02    0.01       1.0  T
   6   -420.5987941 -0.213455E-02  0.670E-02    0.01       1.0  T
   7   -420.6022154 -0.342130E-02  0.247E-02    0.00       1.0  T
   8   -420.6023465 -0.131097E-03  0.197E-02    0.00       1.0  T
   9   -420.6024116 -0.650564E-04  0.139E-02    0.00       1.0  T
  10   -420.6026253 -0.213712E-03  0.383E-03    0.00       1.5  T
  11   -420.6026186  0.668869E-05  0.477E-03    0.00       1.2  T
  12   -420.6026322 -0.135938E-04  0.134E-03    0.00       4.3  T
  13   -420.6026327 -0.472125E-06  0.107E-03    0.00       5.4  T
  14   -420.6026324  0.300046E-06  0.118E-03    0.00       4.9  T
  15   -420.6026332 -0.863225E-06  0.503E-04    0.00      11.4  T
  16   -420.6026333 -0.122912E-06  0.184E-04    0.00      31.2  T
     SCC iter.                  ...        0 min,  4.416 sec
     gradient                   ...        0 min,  0.526 sec
 * total energy  :  -414.0653119 Eh     change       -0.2124778E-03 Eh
   gradient norm :     0.0020720 Eh/α   predicted    -0.1562243E-03 ( -26.47%)
   displ. norm   :     0.5356755 α      lambda       -0.2228296E-03
   maximum displ.:     0.2669490 α      in ANC's #12, #9, #10, ...

........................................................................
.............................. CYCLE   26 ..............................
........................................................................

 iter      E             dE          RMSdq      gap      omega  full diag
   1   -420.6022066 -0.420602E+03  0.264E-02    0.00       0.0  T
   2   -420.5468266  0.553800E-01  0.214E-01    0.03       1.0  T
   3   -420.5913725 -0.445459E-01  0.103E-01    0.02       1.0  T
   4   -420.5972824 -0.590990E-02  0.813E-02    0.01       1.0  T
   5   -420.5933858  0.389658E-02  0.102E-01    0.01       1.0  T
   6   -420.5969283 -0.354246E-02  0.798E-02    0.00       1.0  T
   7   -420.6017534 -0.482517E-02  0.298E-02    0.00       1.0  T
   8   -420.6021792 -0.425710E-03  0.156E-02    0.00       1.0  T
   9   -420.6021492  0.299341E-04  0.137E-02    0.00       1.0  T
  10   -420.6022827 -0.133454E-03  0.876E-03    0.00       1.0  T
  11   -420.6023167 -0.340076E-04  0.528E-03    0.00       1.1  T
  12   -420.6023285 -0.117818E-04  0.293E-03    0.00       2.0  T
  13   -420.6023319 -0.341020E-05  0.144E-03    0.00       4.0  T
  14   -420.6023331 -0.123099E-05  0.911E-04    0.00       6.3  T
  15   -420.6023332 -0.675295E-07  0.688E-04    0.00       8.4  T
  16   -420.6023335 -0.336944E-06  0.227E-04    0.00      25.3  T
     SCC iter.                  ...        0 min,  5.944 sec
     gradient                   ...        0 min,  0.477 sec
 * total energy  :  -414.0654908 Eh     change       -0.1789218E-03 Eh
   gradient norm :     0.0032894 Eh/α   predicted    -0.1433928E-03 ( -19.86%)
   displ. norm   :     0.5133750 α      lambda       -0.1774471E-03
   maximum displ.:     0.2589091 α      in ANC's #12, #9, #10, ...

........................................................................
.............................. CYCLE   27 ..............................
........................................................................

 iter      E             dE          RMSdq      gap      omega  full diag
   1   -420.6023777 -0.420602E+03  0.225E-02    0.00       0.0  T
   2   -420.5770092  0.253684E-01  0.147E-01    0.02       1.0  T
   3   -420.5918970 -0.148877E-01  0.936E-02    0.02       1.0  T
   4   -420.5967586 -0.486161E-02  0.833E-02    0.01       1.0  T
   5   -420.5967204  0.382215E-04  0.877E-02    0.00       1.0  T
   6   -420.5999348 -0.321441E-02  0.574E-02    0.00       1.0  T
   7   -420.6020396 -0.210487E-02  0.234E-02    0.00       1.0  T
   8   -420.6023686 -0.328970E-03  0.108E-02    0.00       1.0  T
   9   -420.6023727 -0.406063E-05  0.926E-03    0.00       1.0  T
  10   -420.6024100 -0.373619E-04  0.687E-03    0.00       1.0  T
  11   -420.6024296 -0.195974E-04  0.448E-03    0.00       1.3  T
  12   -420.6024364 -0.680541E-05  0.277E-03    0.00       2.1  T
  13   -420.6024410 -0.455020E-05  0.818E-04    0.00       7.0  T
  14   -420.6024412 -0.213181E-06  0.497E-04    0.00      11.6  T
  15   -420.6024413 -0.124087E-06  0.248E-04    0.00      23.2  T
     SCC iter.                  ...        0 min,  3.727 sec
     gradient                   ...        0 min,  0.448 sec
 * total energy  :  -414.0656457 Eh     change       -0.1549043E-03 Eh
   gradient norm :     0.0040559 Eh/α   predicted    -0.1121120E-03 ( -27.63%)
   displ. norm   :     0.5463051 α      lambda       -0.2091674E-03
   maximum displ.:     0.2783132 α      in ANC's #12, #9, #10, ...

........................................................................
.............................. CYCLE   28 ..............................
........................................................................

 iter      E             dE          RMSdq      gap      omega  full diag
   1   -420.6034236 -0.420603E+03  0.218E-02    0.00       0.0  T
   2   -420.5940359  0.938765E-02  0.963E-02    0.01       1.0  T
   3   -420.5908722  0.316372E-02  0.996E-02    0.02       1.0  T
   4   -420.5936538 -0.278154E-02  0.993E-02    0.01       1.0  T
   5   -420.5988756 -0.522182E-02  0.829E-02    0.01       1.0  T
   6   -420.6021683 -0.329272E-02  0.453E-02    0.00       1.0  T
   7   -420.6033350 -0.116674E-02  0.117E-02    0.00       1.0  T
   8   -420.6032011  0.133907E-03  0.186E-02    0.00       1.0  T
   9   -420.6033994 -0.198219E-03  0.939E-03    0.00       1.0  T
  10   -420.6034212 -0.218400E-04  0.744E-03    0.00       1.0  T
  11   -420.6034462 -0.250460E-04  0.477E-03    0.00       1.2  T
  12   -420.6034568 -0.105301E-04  0.238E-03    0.00       2.4  T
  13   -420.6034598 -0.306340E-05  0.109E-03    0.00       5.3  T
  14   -420.6034604 -0.613340E-06  0.481E-04    0.00      12.0  T
  15   -420.6034602  0.262237E-06  0.600E-04    0.00       9.6  T
     SCC iter.                  ...        0 min,  7.284 sec
     gradient                   ...        0 min,  0.504 sec
 * total energy  :  -414.0658331 Eh     change       -0.1873644E-03 Eh
   gradient norm :     0.0036760 Eh/α   predicted    -0.1357972E-03 ( -27.52%)
   displ. norm   :     0.6138720 α      lambda       -0.2573911E-03
   maximum displ.:     0.3157720 α      in ANC's #12, #9, #10, ...

........................................................................
.............................. CYCLE   29 ..............................
........................................................................

 iter      E             dE          RMSdq      gap      omega  full diag
   1   -420.6048042 -0.420605E+03  0.237E-02    0.00       0.0  T
   2   -420.5983504  0.645388E-02  0.843E-02    0.01       1.0  T
   3   -420.5885888  0.976152E-02  0.114E-01    0.02       1.0  T
   4   -420.5935592 -0.497035E-02  0.104E-01    0.01       1.0  T
   5   -420.5976730 -0.411382E-02  0.102E-01    0.00       1.0  T
   6   -420.6023034 -0.463036E-02  0.609E-02    0.00       1.0  T
   7   -420.6043224 -0.201905E-02  0.257E-02    0.00       1.0  T
   8   -420.6043898 -0.673329E-04  0.218E-02    0.00       1.0  T
   9   -420.6047808 -0.391037E-03  0.945E-03    0.00       1.0  T
  10   -420.6047763  0.446271E-05  0.910E-03    0.00       1.0  T
  11   -420.6048194 -0.430570E-04  0.539E-03    0.00       1.1  T
  12   -420.6048348 -0.154157E-04  0.225E-03    0.00       2.6  T
  13   -420.6048362 -0.137537E-05  0.174E-03    0.00       3.3  T
  14   -420.6048379 -0.168515E-05  0.630E-04    0.00       9.1  T
  15   -420.6048370  0.821250E-06  0.900E-04    0.00       6.4  T
  16   -420.6048381 -0.103056E-05  0.163E-04    0.00      35.3  T
  17   -420.6048381 -0.138390E-07  0.120E-04    0.00      47.9  T
     SCC iter.                  ...        0 min, 10.475 sec
     gradient                   ...        0 min,  0.501 sec
 * total energy  :  -414.0660556 Eh     change       -0.2225728E-03 Eh
   gradient norm :     0.0026943 Eh/α   predicted    -0.1772030E-03 ( -20.38%)
   displ. norm   :     0.6339176 α      lambda       -0.2357237E-03
   maximum displ.:     0.3290307 α      in ANC's #12, #9, #10, ...

........................................................................
.............................. CYCLE   30 ..............................
........................................................................

 iter      E             dE          RMSdq      gap      omega  full diag
   1   -420.6052342 -0.420605E+03  0.239E-02    0.00       0.0  T
   2   -420.5985078  0.672645E-02  0.875E-02    0.02       1.0  T
   3   -420.5901857  0.832210E-02  0.111E-01    0.02       1.0  T
   4   -420.5931936 -0.300793E-02  0.107E-01    0.01       1.0  T
   5   -420.5971519 -0.395824E-02  0.108E-01    0.00       1.0  T
   6   -420.6038677 -0.671587E-02  0.459E-02    0.00       1.0  T
   7   -420.6050307 -0.116301E-02  0.174E-02    0.00       1.0  T
   8   -420.6048850  0.145765E-03  0.208E-02    0.00       1.0  T
   9   -420.6051616 -0.276585E-03  0.117E-02    0.00       1.0  T
  10   -420.6052202 -0.586735E-04  0.784E-03    0.00       1.0  T
  11   -420.6052438 -0.235417E-04  0.593E-03    0.00       1.0  T
  12   -420.6052622 -0.184662E-04  0.221E-03    0.00       2.6  T
  13   -420.6052631 -0.878343E-06  0.187E-03    0.00       3.1  T
  14   -420.6052651 -0.196251E-05  0.662E-04    0.00       8.7  T
  15   -420.6052641  0.990698E-06  0.962E-04    0.00       6.0  T
  16   -420.6052653 -0.122108E-05  0.145E-04    0.00      39.7  T
  17   -420.6052653 -0.115550E-07  0.108E-04    0.00      53.1  T
     SCC iter.                  ...        0 min,  9.843 sec
     gradient                   ...        0 min,  0.510 sec
 * total energy  :  -414.0662500 Eh     change       -0.1943731E-03 Eh
   gradient norm :     0.0024678 Eh/α   predicted    -0.1652294E-03 ( -14.99%)
   displ. norm   :     0.5832747 α      lambda       -0.1708646E-03
   maximum displ.:     0.3058493 α      in ANC's #12, #9, #10, ...

........................................................................
.............................. CYCLE   31 ..............................
........................................................................

 iter      E             dE          RMSdq      gap      omega  full diag
   1   -420.6049646 -0.420605E+03  0.210E-02    0.00       0.0  T
   2   -420.5908340  0.141305E-01  0.114E-01    0.02       1.0  T
   3   -420.5964483 -0.561428E-02  0.834E-02    0.02       1.0  T
   4   -420.6002127 -0.376440E-02  0.745E-02    0.01       1.0  T
   5   -420.5953252  0.488752E-02  0.111E-01    0.00       1.0  T
   6   -420.6044813 -0.915610E-02  0.290E-02    0.00       1.0  T
   7   -420.6048718 -0.390495E-03  0.135E-02    0.00       1.0  T
   8   -420.6047664  0.105368E-03  0.168E-02    0.00       1.0  T
   9   -420.6049245 -0.158057E-03  0.102E-02    0.00       1.0  T
  10   -420.6049841 -0.596646E-04  0.470E-03    0.00       1.2  T
  11   -420.6049796  0.451288E-05  0.526E-03    0.00       1.1  T
  12   -420.6049974 -0.177420E-04  0.144E-03    0.00       4.0  T
  13   -420.6049974 -0.225781E-07  0.127E-03    0.00       4.5  T
  14   -420.6049982 -0.813477E-06  0.773E-04    0.00       7.4  T
  15   -420.6049980  0.236892E-06  0.671E-04    0.00       8.6  T
     SCC iter.                  ...        0 min,  5.131 sec
     gradient                   ...        0 min,  0.446 sec
 * total energy  :  -414.0663906 Eh     change       -0.1406295E-03 Eh
   gradient norm :     0.0026006 Eh/α   predicted    -0.1145033E-03 ( -18.58%)
   displ. norm   :     0.5124161 α      lambda       -0.1331572E-03
   maximum displ.:     0.2711936 α      in ANC's #12, #9, #10, ...

........................................................................
.............................. CYCLE   32 ..............................
........................................................................

 iter      E             dE          RMSdq      gap      omega  full diag
   1   -420.6049764 -0.420605E+03  0.178E-02    0.00       0.0  T
   2   -420.5811393  0.238371E-01  0.140E-01    0.03       1.0  T
   3   -420.6016933 -0.205540E-01  0.559E-02    0.01       1.0  T
   4   -420.6035386 -0.184533E-02  0.463E-02    0.00       1.0  T
   5   -420.5967758  0.676276E-02  0.943E-02    0.00       1.0  T
   6   -420.6042714 -0.749560E-02  0.324E-02    0.00       1.0  T
   7   -420.6048249 -0.553446E-03  0.162E-02    0.00       1.0  T
   8   -420.6048996 -0.746664E-04  0.121E-02    0.00       1.0  T
   9   -420.6049706 -0.710084E-04  0.840E-03    0.00       1.0  T
  10   -420.6049854 -0.147981E-04  0.668E-03    0.00       1.0  T
  11   -420.6050115 -0.261497E-04  0.306E-03    0.00       1.9  T
  12   -420.6050175 -0.596059E-05  0.976E-04    0.00       5.9  T
  13   -420.6050175  0.574687E-08  0.860E-04    0.00       6.7  T
  14   -420.6050177 -0.222477E-06  0.696E-04    0.00       8.3  T
     SCC iter.                  ...        0 min,  2.806 sec
     gradient                   ...        0 min,  0.450 sec
 * total energy  :  -414.0665045 Eh     change       -0.1138330E-03 Eh
   gradient norm :     0.0023335 Eh/α   predicted    -0.8406040E-04 ( -26.15%)
   displ. norm   :     0.5025846 α      lambda       -0.1323444E-03
   maximum displ.:     0.2670708 α      in ANC's #12, #9, #10, ...

........................................................................
.............................. CYCLE   33 ..............................
........................................................................

 iter      E             dE          RMSdq      gap      omega  full diag
   1   -420.6053536 -0.420605E+03  0.171E-02    0.00       0.0  T
   2   -420.5829465  0.224071E-01  0.138E-01    0.02       1.0  T
   3   -420.6020181 -0.190716E-01  0.551E-02    0.01       1.0  T
   4   -420.6034807 -0.146258E-02  0.489E-02    0.00       1.0  T
   5   -420.6015736  0.190713E-02  0.670E-02    0.00       1.0  T
   6   -420.6039934 -0.241978E-02  0.427E-02    0.00       1.0  T
   7   -420.6045540 -0.560671E-03  0.328E-02    0.00       1.0  T
   8   -420.6052597 -0.705648E-03  0.136E-02    0.00       1.0  T
   9   -420.6053759 -0.116239E-03  0.466E-03    0.00       1.2  T
  10   -420.6053851 -0.912669E-05  0.339E-03    0.00       1.7  T
  11   -420.6053848  0.214398E-06  0.332E-03    0.00       1.7  T
  12   -420.6053911 -0.630071E-05  0.147E-03    0.00       3.9  T
  13   -420.6053921 -0.927656E-06  0.811E-04    0.00       7.1  T
  14   -420.6053921  0.210526E-07  0.598E-04    0.00       9.6  T
     SCC iter.                  ...        0 min,  2.894 sec
     gradient                   ...        0 min,  0.524 sec
 * total energy  :  -414.0666182 Eh     change       -0.1137655E-03 Eh
   gradient norm :     0.0019704 Eh/α   predicted    -0.8288698E-04 ( -27.14%)
   displ. norm   :     0.8011896 α      lambda       -0.1424553E-03
   maximum displ.:     0.4236559 α      in ANC's #12, #9, #10, ...

........................................................................
.............................. CYCLE   34 ..............................
........................................................................

 iter      E             dE          RMSdq      gap      omega  full diag
   1   -420.6056685 -0.420606E+03  0.287E-02    0.00       0.0  T
   2   -420.5527167  0.529519E-01  0.220E-01    0.03       1.0  T
   3   -420.5908873 -0.381706E-01  0.112E-01    0.02       1.0  T
   4   -420.6002152 -0.932794E-02  0.779E-02    0.01       1.0  T
   5   -420.5993139  0.901339E-03  0.916E-02    0.00       1.0  T
   6   -420.5967983  0.251561E-02  0.106E-01    0.00       1.0  T
   7   -420.6026196 -0.582136E-02  0.629E-02    0.00       1.0  T
   8   -420.6052802 -0.266052E-02  0.297E-02    0.00       1.0  T
   9   -420.6057323 -0.452172E-03  0.783E-03    0.00       1.0  T
  10   -420.6056123  0.119996E-03  0.156E-02    0.00       1.0  T
  11   -420.6057684 -0.156053E-03  0.472E-03    0.00       1.2  T
  12   -420.6057707 -0.233411E-05  0.417E-03    0.00       1.4  T
  13   -420.6057793 -0.857038E-05  0.202E-03    0.00       2.9  T
  14   -420.6057803 -0.990847E-06  0.130E-03    0.00       4.4  T
  15   -420.6057818 -0.149377E-05  0.543E-04    0.00      10.6  T
  16   -420.6057821 -0.285478E-06  0.113E-04    0.00      51.1  T
  17   -420.6057821 -0.600556E-08  0.632E-05    0.00      91.1  T
     SCC iter.                  ...        0 min,  6.123 sec
     gradient                   ...        0 min,  0.454 sec
 * total energy  :  -414.0667803 Eh     change       -0.1620618E-03 Eh
   gradient norm :     0.0025791 Eh/α   predicted    -0.9154875E-04 ( -43.51%)
   displ. norm   :     0.4083311 α      lambda       -0.9229699E-04
   maximum displ.:     0.2133158 α      in ANC's #12, #9, #10, ...

........................................................................
.............................. CYCLE   35 ..............................
........................................................................

 iter      E             dE          RMSdq      gap      omega  full diag
   1   -420.6059311 -0.420606E+03  0.154E-02    0.00       0.0  T
   2   -420.5968470  0.908413E-02  0.100E-01    0.01       1.0  T
   3   -420.5996096 -0.276260E-02  0.713E-02    0.01       1.0  T
   4   -420.6043594 -0.474981E-02  0.390E-02    0.01       1.0  T
   5   -420.6036923  0.667077E-03  0.544E-02    0.00       1.0  T
   6   -420.6037852 -0.929054E-04  0.530E-02    0.00       1.0  T
   7   -420.6052123 -0.142716E-02  0.310E-02    0.00       1.0  T
   8   -420.6057762 -0.563810E-03  0.173E-02    0.00       1.0  T
   9   -420.6059566 -0.180453E-03  0.335E-03    0.00       1.7  T
  10   -420.6059565  0.729952E-07  0.416E-03    0.00       1.4  T
  11   -420.6059629 -0.634741E-05  0.244E-03    0.00       2.4  T
  12   -420.6059658 -0.293938E-05  0.110E-03    0.00       5.2  T
  13   -420.6059668 -0.934383E-06  0.522E-04    0.00      11.0  T
  14   -420.6059667  0.187093E-07  0.662E-04    0.00       8.7  T
     SCC iter.                  ...        0 min,  3.482 sec
     gradient                   ...        0 min,  0.495 sec
 * total energy  :  -414.0668586 Eh     change       -0.7831115E-04 Eh
   gradient norm :     0.0024115 Eh/α   predicted    -0.5384726E-04 ( -31.24%)
   displ. norm   :     0.4765654 α      lambda       -0.1101945E-03
   maximum displ.:     0.2413814 α      in ANC's #12, #9, #10, ...

........................................................................
.............................. CYCLE   36 ..............................
........................................................................

 iter      E             dE          RMSdq      gap      omega  full diag
   1   -420.6065986 -0.420607E+03  0.198E-02    0.00       0.0  T
   2   -420.5968597  0.973888E-02  0.119E-01    0.01       1.0  T
   3   -420.6034140 -0.655428E-02  0.536E-02    0.01       1.0  T
   4   -420.5989323  0.448167E-02  0.776E-02    0.01       1.0  T
   5   -420.6006212 -0.168889E-02  0.829E-02    0.01       1.0  T
   6   -420.6030182 -0.239701E-02  0.675E-02    0.00       1.0  T
   7   -420.6054394 -0.242123E-02  0.399E-02    0.00       1.0  T
   8   -420.6063944 -0.954944E-03  0.205E-02    0.00       1.0  T
   9   -420.6066491 -0.254797E-03  0.447E-03    0.00       1.3  T
  10   -420.6066266  0.225396E-04  0.786E-03    0.00       1.0  T
  11   -420.6066583 -0.316441E-04  0.305E-03    0.00       1.9  T
  12   -420.6066619 -0.365883E-05  0.171E-03    0.00       3.4  T
  13   -420.6066645 -0.262830E-05  0.734E-04    0.00       7.8  T
  14   -420.6066644  0.132697E-06  0.884E-04    0.00       6.5  T
  15   -420.6066648 -0.420078E-06  0.275E-04    0.00      20.9  T
     SCC iter.                  ...        0 min,  3.458 sec
     gradient                   ...        0 min,  0.441 sec
 * total energy  :  -414.0669430 Eh     change       -0.8434907E-04 Eh
   gradient norm :     0.0019472 Eh/α   predicted    -0.6761490E-04 ( -19.84%)
   displ. norm   :     0.5867823 α      lambda       -0.6736987E-04
   maximum displ.:     0.2898111 α      in ANC's #12, #9, #10, ...

........................................................................
.............................. CYCLE   37 ..............................
........................................................................

 iter      E             dE          RMSdq      gap      omega  full diag
   1   -420.6068502 -0.420607E+03  0.238E-02    0.00       0.0  T
   2   -420.5949765  0.118737E-01  0.135E-01    0.00       1.0  T
   3   -420.6054311 -0.104546E-01  0.422E-02    0.00       1.0  T
   4   -420.5924477  0.129834E-01  0.109E-01    0.02       1.0  T
   5   -420.5804250  0.120227E-01  0.157E-01    0.03       1.0  T
   6   -420.6030155 -0.225905E-01  0.715E-02    0.00       1.0  T
   7   -420.6058208 -0.280527E-02  0.391E-02    0.00       1.0  T
   8   -420.6063441 -0.523328E-03  0.268E-02    0.00       1.0  T
   9   -420.6069018 -0.557668E-03  0.674E-03    0.00       1.0  T
  10   -420.6069009  0.836913E-06  0.732E-03    0.00       1.0  T
  11   -420.6069246 -0.236549E-04  0.417E-03    0.00       1.4  T
  12   -420.6069239  0.733823E-06  0.400E-03    0.00       1.4  T
  13   -420.6069346 -0.107760E-04  0.102E-03    0.00       5.6  T
  14   -420.6069344  0.259321E-06  0.954E-04    0.00       6.0  T
  15   -420.6069350 -0.646078E-06  0.458E-04    0.00      12.6  T
     SCC iter.                  ...        0 min,  2.782 sec
     gradient                   ...        0 min,  0.445 sec
 * total energy  :  -414.0670024 Eh     change       -0.5942528E-04 Eh
   gradient norm :     0.0017448 Eh/α   predicted    -0.3883985E-04 ( -34.64%)
   displ. norm   :     0.1727227 α      lambda       -0.2338004E-04
   maximum displ.:     0.0779148 α      in ANC's #9, #12, #10, ...

........................................................................
.............................. CYCLE   38 ..............................
........................................................................

 iter      E             dE          RMSdq      gap      omega  full diag
   1   -420.6075545 -0.420608E+03  0.642E-03    0.00       0.0  T
   2   -420.6065582  0.996254E-03  0.300E-02    0.00       1.0  T
   3   -420.6063178  0.240381E-03  0.312E-02    0.01       1.0  T
   4   -420.6072172 -0.899307E-03  0.194E-02    0.00       1.0  T
   5   -420.6068672  0.349975E-03  0.302E-02    0.00       1.0  T
   6   -420.6072207 -0.353539E-03  0.188E-02    0.00       1.0  T
   7   -420.6074910 -0.270253E-03  0.874E-03    0.00       1.0  T
   8   -420.6075539 -0.629634E-04  0.252E-03    0.00       2.3  T
   9   -420.6075492  0.472770E-05  0.358E-03    0.00       1.6  T
  10   -420.6075575 -0.825690E-05  0.967E-04    0.00       6.0  T
  11   -420.6075556  0.182539E-05  0.188E-03    0.00       3.1  T
  12   -420.6075578 -0.213778E-05  0.838E-04    0.00       6.9  T
  13   -420.6075582 -0.399491E-06  0.329E-04    0.00      17.5  T
[...]
    60   6 C       61   6 C                                       1.5350663
    60   6 C       62   6 C                                       1.5294601
    60   6 C       63   6 C                                       1.5345592
    64   6 C       65   6 C                                       1.5345162
    64   6 C       66   6 C                                       1.5352006
    64   6 C       67   6 C                                       1.5298232
    68   6 C       69   6 C                                       1.5304098
    68   6 C       70   6 C                                       1.5351396
    68   6 C       71   6 C                                       1.5348624
    72   6 C       73   6 C                                       1.5349491
    73   6 C       74   1 H                                       1.0863139
    73   6 C       75   1 H                                       1.0873609
    73   6 C       76   1 H                                       1.0876489
    72   6 C       77   6 C                                       1.5320267
    77   6 C       78   1 H                                       1.0866987
    77   6 C       79   1 H                                       1.0878933
    77   6 C       80   1 H                                       1.0857222
    72   6 C       81   6 C                                       1.5344262
    81   6 C       82   1 H                                       1.0870783
    81   6 C       83   1 H                                       1.0878551
    81   6 C       84   1 H                                       1.0877503
    69   6 C       85   1 H                                       1.0872876
    69   6 C       86   1 H                                       1.0873858
    69   6 C       87   1 H                                       1.0874406
    70   6 C       88   1 H                                       1.0880644
    70   6 C       89   1 H                                       1.0871845
    70   6 C       90   1 H                                       1.0864131
    59   6 C       91   1 H                                       1.0876470
    59   6 C       92   1 H                                       1.0866439
    59   6 C       93   1 H                                       1.0876799
    58   6 C       94   1 H                                       1.0859119
    58   6 C       95   1 H                                       1.0875716
    58   6 C       96   1 H                                       1.0858591
    57   6 C       97   1 H                                       1.0870737
    57   6 C       98   1 H                                       1.0882140
    57   6 C       99   1 H                                       1.0873572
    55   6 C      100   1 H                                       1.0879447
    55   6 C      101   1 H                                       1.0862523
    55   6 C      102   1 H                                       1.0871520
    54   6 C      103   1 H                                       1.0879945
    54   6 C      104   1 H                                       1.0871336
    54   6 C      105   1 H                                       1.0863968
    53   6 C      106   1 H                                       1.0873297
    53   6 C      107   1 H                                       1.0873905
    53   6 C      108   1 H                                       1.0874101
    62   6 C      109   1 H                                       1.0878919
    62   6 C      110   1 H                                       1.0876439
    62   6 C      111   1 H                                       1.0870493
    63   6 C      112   1 H                                       1.0862344
    63   6 C      113   1 H                                       1.0878321
    63   6 C      114   1 H                                       1.0874359
    61   6 C      115   1 H                                       1.0883374
    61   6 C      116   1 H                                       1.0853906
    61   6 C      117   1 H                                       1.0874560
    71   6 C      118   1 H                                       1.0879527
    71   6 C      119   1 H                                       1.0862905
    71   6 C      120   1 H                                       1.0871993
    17   6 C      121   1 H                                       1.0766892
    15   6 C      122   1 H                                       1.0778969
     5   6 C      123   1 H                                       1.0769836
    21   6 C      124   1 H                                       1.0773135
     1   6 C      125   1 H                                       1.0776456
    19   6 C      126   1 H                                       1.0769853
    23   6 C      127   1 H                                       1.0783136
    41   6 C      128   1 H                                       1.0754153
    27   6 C      129   1 H                                       1.0772215
    43   6 C      130   1 H                                       1.0771204
    39   6 C      131   1 H                                       1.0767399
    37   6 C      132   1 H                                       1.0781054
    66   6 C      133   1 H                                       1.0859688
    66   6 C      134   1 H                                       1.0874507
    66   6 C      135   1 H                                       1.0881663
    67   6 C      136   1 H                                       1.0864788
    67   6 C      137   1 H                                       1.0877140
    67   6 C      138   1 H                                       1.0876160
    65   6 C      139   1 H                                       1.0861510
    65   6 C      140   1 H                                       1.0880555
    65   6 C      141   1 H                                       1.0874163
    51   6 C      142   1 H                                       1.0887629
    51   6 C      143   1 H                                       1.0987705
    50   6 C      144   1 H                                       1.0876172
    50   6 C      145   1 H                                       1.0870371
    50   6 C      146   1 H                                       1.0877854
    48   6 C      147   1 H                                       1.0925308
    48   6 C      148   1 H                                       1.0989130
    47   6 C      149   1 H                                       1.0876989
    47   6 C      150   1 H                                       1.0869245
    47   6 C      151   1 H                                       1.0875215
   152   6 C      153   6 C                                       1.3907503
   153   6 C      154   6 C                                       1.4165466
   154   6 C      155   6 C                                       1.4379618
   155   6 C      156   6 C                                       1.4152932
   152   6 C      157   6 C                                       1.3987764
   156   6 C      157   6 C                                       1.3742925
   158   6 C      159   6 C                                       1.4125714
   159   6 C      160   6 C                                       1.4221519
   155   6 C      161   7 N                                       1.3330541
   160   6 C      161   7 N                                       1.3274947
   163   6 C      164   7 N                                       1.3283349
   159   6 C      165   6 C                                       1.4198672
   164   7 N      165   6 C                                       1.3295833
   165   6 C      166   6 C                                       1.4075615
   166   6 C      167   6 C                                       1.3914691
   160   6 C      168   6 C                                       1.4132692
   167   6 C      168   6 C                                       1.3864975
   162   6 C      169   6 C                                       1.4242665
   169   6 C      170   6 C                                       1.3976418
   170   6 C      171   6 C                                       1.3959510
   163   6 C      172   6 C                                       1.4138175
   171   6 C      172   6 C                                       1.3740726
   153   6 C      173   8 O                                       1.3265156
   174   6 C      175   6 C                                       1.3987205
   175   6 C      176   6 C                                       1.4106212
   176   6 C      177   6 C                                       1.4377576
   177   6 C      178   6 C                                       1.4140545
   174   6 C      179   6 C                                       1.3973507
   178   6 C      179   6 C                                       1.3734801
   180   6 C      181   6 C                                       1.4156314
   181   6 C      182   6 C                                       1.4212186
   177   6 C      183   7 N                                       1.3300961
   182   6 C      183   7 N                                       1.3302983
   185   6 C      186   7 N                                       1.3334027
   181   6 C      187   6 C                                       1.4187463
   186   7 N      187   6 C                                       1.3273142
   187   6 C      188   6 C                                       1.4094090
   188   6 C      189   6 C                                       1.3886459
   182   6 C      190   6 C                                       1.4107960
   189   6 C      190   6 C                                       1.3871157
   184   6 C      191   6 C                                       1.4300454
   191   6 C      192   6 C                                       1.4044037
   192   6 C      193   6 C                                       1.3946644
   185   6 C      194   6 C                                       1.4139246
   193   6 C      194   6 C                                       1.3716157
   175   6 C      195   8 O                                       1.3292300
   173   8 O      196   5 B                                       1.4490015
   195   8 O      196   5 B                                       1.4495125
   169   6 C      197   7 N                                       1.3841493
   196   5 B      197   7 N                                       1.5400879
   197   7 N      199   6 C                                       1.4466993
   198   6 C      199   6 C                                       1.5297255
   191   6 C      200   7 N                                       1.3814999
   196   5 B      200   7 N                                       1.5561163 (max)
   200   7 N      202   6 C                                       1.4545713
   201   6 C      202   6 C                                       1.5265695
   203   6 C      204   6 C                                       1.5303568
   203   6 C      205   6 C                                       1.5352318
   203   6 C      206   6 C                                       1.5348251
   207   6 C      208   6 C                                       1.5393131
   207   6 C      209   6 C                                       1.5322237
   207   6 C      210   6 C                                       1.5308597
   211   6 C      212   6 C                                       1.5352426
   211   6 C      213   6 C                                       1.5301853
   211   6 C      214   6 C                                       1.5344400
   215   6 C      216   6 C                                       1.5348838
   215   6 C      217   6 C                                       1.5348399
   215   6 C      218   6 C                                       1.5304000
   219   6 C      220   6 C                                       1.5304854
   219   6 C      221   6 C                                       1.5347610
   219   6 C      222   6 C                                       1.5352335
   223   6 C      224   6 C                                       1.5373172
   224   6 C      225   1 H                                       1.0873637
   224   6 C      226   1 H                                       1.0878586
   224   6 C      227   1 H                                       1.0874219
   223   6 C      228   6 C                                       1.5313647
   228   6 C      229   1 H                                       1.0867162
   228   6 C      230   1 H                                       1.0876358
   228   6 C      231   1 H                                       1.0866274
   223   6 C      232   6 C                                       1.5357585
   232   6 C      233   1 H                                       1.0863852
   232   6 C      234   1 H                                       1.0876348
   232   6 C      235   1 H                                       1.0874767
   220   6 C      236   1 H                                       1.0871257
   220   6 C      237   1 H                                       1.0875828
   220   6 C      238   1 H                                       1.0874691
   221   6 C      239   1 H                                       1.0878445
   221   6 C      240   1 H                                       1.0872208
   221   6 C      241   1 H                                       1.0863301
   210   6 C      242   1 H                                       1.0876506
   210   6 C      243   1 H                                       1.0867120
   210   6 C      244   1 H                                       1.0875719
   209   6 C      245   1 H                                       1.0859011
   209   6 C      246   1 H                                       1.0876658
   209   6 C      247   1 H                                       1.0856078
   208   6 C      248   1 H                                       1.0875368
   208   6 C      249   1 H                                       1.0886452
   208   6 C      250   1 H                                       1.0874349
   206   6 C      251   1 H                                       1.0880674
   206   6 C      252   1 H                                       1.0864355
   206   6 C      253   1 H                                       1.0872037
   205   6 C      254   1 H                                       1.0879289
   205   6 C      255   1 H                                       1.0872268
   205   6 C      256   1 H                                       1.0863150
   204   6 C      257   1 H                                       1.0872828
   204   6 C      258   1 H                                       1.0875626
   204   6 C      259   1 H                                       1.0875034
   213   6 C      260   1 H                                       1.0883652
   213   6 C      261   1 H                                       1.0877660
   213   6 C      262   1 H                                       1.0870172
   214   6 C      263   1 H                                       1.0862910
   214   6 C      264   1 H                                       1.0877022
   214   6 C      265   1 H                                       1.0874709
   212   6 C      266   1 H                                       1.0884965
   212   6 C      267   1 H                                       1.0856059
   212   6 C      268   1 H                                       1.0875130
   222   6 C      269   1 H                                       1.0881361
   222   6 C      270   1 H                                       1.0862276
   222   6 C      271   1 H                                       1.0872197
   168   6 C      272   1 H                                       1.0767851
   166   6 C      273   1 H                                       1.0779352
   156   6 C      274   1 H                                       1.0770763
   172   6 C      275   1 H                                       1.0772650
   152   6 C      276   1 H                                       1.0777180
   170   6 C      277   1 H                                       1.0768899
   174   6 C      278   1 H                                       1.0779729
   192   6 C      279   1 H                                       1.0748962 (min)
   178   6 C      280   1 H                                       1.0773599
   194   6 C      281   1 H                                       1.0768140
   190   6 C      282   1 H                                       1.0767452
   188   6 C      283   1 H                                       1.0782057
   217   6 C      284   1 H                                       1.0859994
   217   6 C      285   1 H                                       1.0873618
   217   6 C      286   1 H                                       1.0878477
   218   6 C      287   1 H                                       1.0871735
   218   6 C      288   1 H                                       1.0876520
   218   6 C      289   1 H                                       1.0874645
   216   6 C      290   1 H                                       1.0862455
   216   6 C      291   1 H                                       1.0883307
   216   6 C      292   1 H                                       1.0872717
   202   6 C      293   1 H                                       1.0879979
   202   6 C      294   1 H                                       1.0987892
   201   6 C      295   1 H                                       1.0876856
   201   6 C      296   1 H                                       1.0873933
   201   6 C      297   1 H                                       1.0870840
   199   6 C      298   1 H                                       1.0925831
   199   6 C      299   1 H                                       1.0984244
   198   6 C      300   1 H                                       1.0877740
   198   6 C      301   1 H                                       1.0870320
   198   6 C      302   1 H                                       1.0874337

 * 6 distinct bonds (by element types)

   Z      Z             #   av. dist./Å        max./Å        min./Å
   1 H    6 C         152     1.0860444     1.0989130     1.0748962
   6 C    6 C         111     1.4510282     1.5393131     1.3713212
   5 B    7 N           4     1.5461141     1.5561163     1.5370161
   6 C    7 N          24     1.3587977     1.4545713     1.3259956
   5 B    8 O           4     1.4512804     1.4535493     1.4490015
   6 C    8 O           4     1.3280749     1.3298768     1.3265156


optimized geometry written to: xtbopt.mol


           -------------------------------------------------
          | TOTAL ENERGY             -414.067626536589 Eh   |
          | GRADIENT NORM               0.000682375027 Eh/α |
          | HOMO-LUMO GAP               0.000814895105 eV   |
           -------------------------------------------------
########################################################################
[WARNING] Runtime exception occurred
-1- restart_readRestart: Number of electron missmatch in restart file.
########################################################################

------------------------------------------------------------------------
 * finished run on 2024/11/07 at 16:14:34.795     
------------------------------------------------------------------------
 total:
 * wall-time:     0 d,  0 h,  4 min, 52.793 sec
 *  cpu-time:     0 d,  0 h, 18 min, 28.661 sec
Note: The following floating-point exceptions are signalling: IEEE_UNDERFLOW_FLAG
normal termination of xtb
 * ratio c/w:     3.786 speedup
 SCF:
 * wall-time:     0 d,  0 h,  0 min,  8.086 sec
 *  cpu-time:     0 d,  0 h,  0 min, 31.913 sec
 * ratio c/w:     3.947 speedup
 ANC optimizer:
 * wall-time:     0 d,  0 h,  4 min, 44.603 sec
 *  cpu-time:     0 d,  0 h, 17 min, 56.607 sec
 * ratio c/w:     3.783 speedup

