      -----------------------------------------------------------      
     |                   =====================                   |     
     |                           x T B                           |     
     |                   =====================                   |     
     |                         S. Grimme                         |     
     |          Mulliken Center for Theoretical Chemistry        |     
     |                    University of Bonn                     |     
      -----------------------------------------------------------      

   * xtb version 6.6.1 (8d0f1dd) compiled by 'runner@Mac-1690902418499.local' on 2023-08-01

   xtb is free software: you can redistribute it and/or modify it under
   the terms of the GNU Lesser General Public License as published by
   the Free Software Foundation, either version 3 of the License, or
   (at your option) any later version.
   
   xtb is distributed in the hope that it will be useful,
   but WITHOUT ANY WARRANTY; without even the implied warranty of
   MERCHANTABILITY or FITNESS FOR A PARTICULAR PURPOSE.  See the
   GNU Lesser General Public License for more details.
   
   Cite this work as:
   * C. Bannwarth, E. Caldeweyher, S. Ehlert, A. Hansen, P. Pracht,
     J. Seibert, S. Spicher, S. Grimme, WIREs Comput. Mol. Sci., 2020, 11,
     e01493. DOI: 10.1002/wcms.1493
   
   for GFN2-xTB:
   * C. Bannwarth, S. Ehlert and S. Grimme., J. Chem. Theory Comput., 2019,
     15, 1652-1671. DOI: 10.1021/acs.jctc.8b01176
   for GFN1-xTB:
   * S. Grimme, C. Bannwarth, P. Shushkov, J. Chem. Theory Comput., 2017,
     13, 1989-2009. DOI: 10.1021/acs.jctc.7b00118
   for GFN0-xTB:
   * P. Pracht, E. Caldeweyher, S. Ehlert, S. Grimme, ChemRxiv, 2019, preprint.
     DOI: 10.26434/chemrxiv.8326202.v1
   for GFN-FF:
   * S. Spicher and S. Grimme, Angew. Chem. Int. Ed., 2020, 59, 15665-15673.
     DOI: 10.1002/anie.202004239
   
   for ALPB and GBSA implicit solvation:
   * S. Ehlert, M. Stahn, S. Spicher, S. Grimme, J. Chem. Theory Comput.,
     2021, 17, 4250-4261. DOI: 10.1021/acs.jctc.1c00471
   
   for DFT-D4:
   * E. Caldeweyher, C. Bannwarth and S. Grimme, J. Chem. Phys., 2017,
     147, 034112. DOI: 10.1063/1.4993215
   * E. Caldeweyher, S. Ehlert, A. Hansen, H. Neugebauer, S. Spicher,
     C. Bannwarth and S. Grimme, J. Chem. Phys., 2019, 150, 154122.
     DOI: 10.1063/1.5090222
   * E. Caldeweyher, J.-M. Mewes, S. Ehlert and S. Grimme, Phys. Chem. Chem. Phys.
     2020, 22, 8499-8512. DOI: 10.1039/D0CP00502A
   
   for sTDA-xTB:
   * S. Grimme and C. Bannwarth, J. Chem. Phys., 2016, 145, 054103.
     DOI: 10.1063/1.4959605
   
   in the mass-spec context:
   * V. Asgeirsson, C. Bauer and S. Grimme, Chem. Sci., 2017, 8, 4879.
     DOI: 10.1039/c7sc00601b
   * J. Koopman and S. Grimme, ACS Omega 2019, 4, 12, 15120-15133.
     DOI: 10.1021/acsomega.9b02011
   
   for metadynamics refer to:
   * S. Grimme, J. Chem. Theory Comput., 2019, 155, 2847-2862
     DOI: 10.1021/acs.jctc.9b00143
   
   for SPH calculations refer to:
   * S. Spicher and S. Grimme, J. Chem. Theory Comput., 2021, 17, 1701-1714
     DOI: 10.1021/acs.jctc.0c01306
   
   with help from (in alphabetical order)
   P. Atkinson, C. Bannwarth, F. Bohle, G. Brandenburg, E. Caldeweyher
   M. Checinski, S. Dohm, S. Ehlert, S. Ehrlich, I. Gerasimov, C. Hölzer
   A. Katbashev, J. Koopman, C. Lavigne, S. Lehtola, F. März, M. Müller,
   F. Musil, H. Neugebauer, J. Pisarek, C. Plett, P. Pracht, F. Pultar,
   J. Seibert, P. Shushkov, S. Spicher, M. Stahn, M. Steiner, T. Strunk,
   J. Stückrath, T. Rose, and J. Unsleber
   
 * started run on 2024/11/07 at 15:52:04.605     

           -------------------------------------------------
          |                Calculation Setup                |
           -------------------------------------------------

          program call               : xtb opt_cation_Base2tBu.mol --gfn2 --sp --chrg 1 --uhf 0
          coordinate file            : opt_cation_Base2tBu.mol
          omp threads                :                     8

   ID    Z sym.   atoms
    1    6 C      1-9, 11, 12, 14-21, 23-31, 33, 34, 36-43, 47, 48, 50-73,
                  77, 81
    2    7 N      10, 13, 32, 35, 46, 49
    3    8 O      22, 44
    4    5 B      45
    5    1 H      74-76, 78-80, 82-151
########################################################################
[WARNING] Please study the warnings concerning your input carefully
-1- prog_main: Charge in sdf/mol input was overwritten
########################################################################

           -------------------------------------------------
          |                 G F N 2 - x T B                 |
           -------------------------------------------------

        Reference                      10.1021/acs.jctc.8b01176
      * Hamiltonian:
        H0-scaling (s, p, d)           1.850000    2.230000    2.230000
        zeta-weighting                 0.500000
      * Dispersion:
        s8                             2.700000
        a1                             0.520000
        a2                             5.000000
        s9                             5.000000
      * Repulsion:
        kExp                           1.500000    1.000000
        rExp                           1.000000
      * Coulomb:
        alpha                          2.000000
        third order                    shell-resolved
        anisotropic                    true
        a3                             3.000000
        a5                             4.000000
        cn-shift                       1.200000
        cn-exp                         4.000000
        max-rad                        5.000000

q/qsh data taken from xtbrestart
CAMM data taken from xtbrestart

          ...................................................
          :                      SETUP                      :
          :.................................................:
          :  # basis functions                 376          :
          :  # atomic orbitals                 376          :
          :  # shells                          226          :
          :  # electrons                       384          :
          :  max. iterations                   250          :
          :  Hamiltonian                  GFN2-xTB          :
          :  restarted?                       true          :
          :  GBSA solvation                  false          :
          :  PC potential                    false          :
          :  electronic temp.          300.0000000     K    :
          :  accuracy                    1.0000000          :
          :  -> integral cutoff          0.2500000E+02      :
          :  -> integral neglect         0.1000000E-07      :
          :  -> SCF convergence          0.1000000E-05 Eh   :
          :  -> wf. convergence          0.1000000E-03 e    :
          :  Broyden damping             0.4000000          :
          ...................................................

 iter      E             dE          RMSdq      gap      omega  full diag
   1   -210.0465742 -0.210047E+03  0.695E-01    0.03       0.0  T
   2   -210.0230113  0.235629E-01  0.669E-01    0.27       1.0  T
   3   -209.6202164  0.402795E+00  0.124E+00    0.20       1.0  T
   4   -210.0382403 -0.418024E+00  0.544E-01    0.21       1.0  T
   5   -210.0137085  0.245318E-01  0.535E-01    0.24       1.0  T
   6   -210.0523237 -0.386152E-01  0.380E-01    0.20       1.0  T
   7   -210.0724174 -0.200937E-01  0.269E-01    0.09       1.0  T
   8   -210.0759109 -0.349347E-02  0.217E-01    0.03       1.0  T
   9   -210.0902711 -0.143602E-01  0.978E-02    0.07       1.0  T
  10   -210.0921035 -0.183244E-02  0.553E-02    0.05       1.0  T
  11   -210.0918562  0.247357E-03  0.573E-02    0.06       1.0  T
  12   -210.0926875 -0.831329E-03  0.184E-02    0.06       1.0  T
  13   -210.0927103 -0.228432E-04  0.167E-02    0.05       1.0  T
  14   -210.0927961 -0.858047E-04  0.303E-03    0.06       2.7  T
  15   -210.0927981 -0.201150E-05  0.154E-03    0.06       5.3  T
  16   -210.0927983 -0.113417E-06  0.128E-03    0.05       6.3  T
  17   -210.0927987 -0.431423E-06  0.357E-04    0.05      22.8  T
  18   -210.0927987  0.891447E-09  0.384E-04    0.06      21.2  T

   *** convergence criteria satisfied after 18 iterations ***

         #    Occupation            Energy/Eh            Energy/eV
      -------------------------------------------------------------
         1        2.0000           -0.7754641             -21.1015
       ...           ...                  ...                  ...
       186        2.0000           -0.4658322             -12.6759
       187        2.0000           -0.4655398             -12.6680
       188        2.0000           -0.4605231             -12.5315
       189        2.0000           -0.4494239             -12.2294
       190        2.0000           -0.4485920             -12.2068
       191        2.0000           -0.4460050             -12.1364
       192        1.4502           -0.4356303             -11.8541 (HOMO)
       193        0.4768           -0.4336053             -11.7990 (LUMO)
       194        0.0731           -0.4316000             -11.7444
       195                         -0.3688312             -10.0364
       196                         -0.3653830              -9.9426
       197                         -0.3291286              -8.9560
       ...                                ...                  ...
       376                          0.6141174              16.7110
      -------------------------------------------------------------
                  HL-Gap            0.0020250 Eh            0.0551 eV
             Fermi-level           -0.4347089 Eh          -11.8290 eV

 SCC (total)                   0 d,  0 h,  0 min,  1.823 sec
 SCC setup                      ...        0 min,  0.000 sec (  0.026%)
 Dispersion                     ...        0 min,  0.002 sec (  0.108%)
 classical contributions        ...        0 min,  0.000 sec (  0.023%)
 integral evaluation            ...        0 min,  0.008 sec (  0.439%)
 iterations                     ...        0 min,  1.730 sec ( 94.878%)
 molecular gradient             ...        0 min,  0.078 sec (  4.297%)
 printout                       ...        0 min,  0.004 sec (  0.228%)

         :::::::::::::::::::::::::::::::::::::::::::::::::::::
         ::                     SUMMARY                     ::
         :::::::::::::::::::::::::::::::::::::::::::::::::::::
         :: total energy            -206.829175517586 Eh    ::
         :: gradient norm              0.000537651826 Eh/a0 ::
         :: HOMO-LUMO gap              0.055102065579 eV    ::
         ::.................................................::
         :: SCC energy              -210.092798685929 Eh    ::
         :: -> isotropic ES            0.170185149495 Eh    ::
         :: -> anisotropic ES          0.010709180361 Eh    ::
         :: -> anisotropic XC          0.122602849302 Eh    ::
         :: -> dispersion             -0.217800372016 Eh    ::
         :: repulsion energy           3.256439728623 Eh    ::
         :: add. restraining           0.000000000000 Eh    ::
         :: total charge               1.000007345145 e     ::
         :::::::::::::::::::::::::::::::::::::::::::::::::::::

           -------------------------------------------------
          |                Property Printout                |
           -------------------------------------------------

    * Orbital Energies and Occupations

         #    Occupation            Energy/Eh            Energy/eV
      -------------------------------------------------------------
         1        2.0000           -0.7754641             -21.1015
       ...           ...                  ...                  ...
       180        2.0000           -0.4861564             -13.2290
       181        2.0000           -0.4855632             -13.2128
       182        2.0000           -0.4841384             -13.1741
       183        2.0000           -0.4828441             -13.1389
       184        2.0000           -0.4748668             -12.9218
       185        2.0000           -0.4666428             -12.6980
       186        2.0000           -0.4658322             -12.6759
       187        2.0000           -0.4655398             -12.6680
       188        2.0000           -0.4605231             -12.5315
       189        2.0000           -0.4494239             -12.2294
       190        2.0000           -0.4485920             -12.2068
       191        2.0000           -0.4460050             -12.1364
       192        1.4502           -0.4356303             -11.8541 (HOMO)
       193        0.4768           -0.4336053             -11.7990 (LUMO)
       194        0.0731           -0.4316000             -11.7444
       195                         -0.3688312             -10.0364
       196                         -0.3653830              -9.9426
       197                         -0.3291286              -8.9560
       198                         -0.3261549              -8.8751
       199                         -0.3243189              -8.8252
       200                         -0.3229535              -8.7880
       201                         -0.3123606              -8.4998
       202                         -0.3076708              -8.3721
       203                         -0.2946552              -8.0180
       ...                                ...                  ...
       376                          0.6141174              16.7110
      -------------------------------------------------------------
                  HL-Gap            0.0020250 Eh            0.0551 eV
             Fermi-level           -0.4347089 Eh          -11.8290 eV

     #   Z          covCN         q      C6AA      α(0)
     1   6 C        2.930    -0.054    29.339     8.883
     2   6 C        2.849     0.162    24.500     8.112
     3   6 C        2.975    -0.037    28.912     8.820
     4   6 C        2.968     0.091    25.973     8.360
     5   6 C        2.941    -0.052    29.287     8.876
     6   6 C        2.968     0.021    27.543     8.608
     7   6 C        2.970     0.033    27.252     8.563
     8   6 C        3.000    -0.027    28.674     8.784
     9   6 C        2.963     0.095    25.899     8.347
    10   7 N        1.862    -0.225    26.763     7.668
    11   6 C        2.972    -0.014    28.360     8.735
    12   6 C        2.969     0.097    25.851     8.340
    13   7 N        1.867    -0.217    26.573     7.641
    14   6 C        2.958     0.093    25.926     8.352
    15   6 C        2.931    -0.021    28.530     8.760
    16   6 C        2.966     0.026    27.415     8.588
    17   6 C        2.930    -0.026    28.661     8.780
    18   6 C        2.910     0.092    25.951     8.353
    19   6 C        2.941    -0.035    28.860     8.811
    20   6 C        2.966     0.022    27.516     8.604
    21   6 C        2.949    -0.041    29.008     8.834
    22   8 O        1.640    -0.373    20.332     6.087
    23   6 C        2.929    -0.052    29.283     8.874
    24   6 C        2.851     0.162    24.494     8.112
    25   6 C        2.978    -0.034    28.852     8.811
    26   6 C        2.976     0.095    25.889     8.346
    27   6 C        2.948    -0.042    29.043     8.839
    28   6 C        2.966     0.019    27.592     8.616
    29   6 C        2.968     0.041    27.078     8.536
    30   6 C        3.000    -0.024    28.599     8.772
    31   6 C        2.970     0.094    25.911     8.350
    32   7 N        1.868    -0.220    26.635     7.650
    33   6 C        2.967    -0.018    28.447     8.749
    34   6 C        2.970     0.096    25.867     8.342
    35   7 N        1.882    -0.220    26.646     7.652
    36   6 C        2.964     0.095    25.886     8.345
    37   6 C        2.933    -0.020    28.507     8.756
    38   6 C        2.966     0.027    27.408     8.587
    39   6 C        2.932    -0.024    28.598     8.770
    40   6 C        2.904     0.090    26.008     8.362
    41   6 C        2.941    -0.046    29.143     8.854
    42   6 C        2.968     0.018    27.598     8.617
    43   6 C        2.965    -0.038    28.951     8.826
    44   8 O        1.640    -0.368    20.239     6.073
    45   5 B        3.260     0.487    14.641     6.381
    46   7 N        2.662    -0.209    25.544     7.506
    47   6 C        3.751    -0.109    22.646     6.787
    48   6 C        3.747     0.016    20.376     6.439
    49   7 N        2.660    -0.220    25.802     7.544
    50   6 C        3.752    -0.108    22.622     6.783
    51   6 C        3.747     0.012    20.432     6.447
    52   6 C        3.903     0.027    20.063     6.367
    53   6 C        3.761    -0.117    22.784     6.805
    54   6 C        3.762    -0.113    22.698     6.791
    55   6 C        3.762    -0.113    22.699     6.792
    56   6 C        3.903     0.028    20.052     6.365
    57   6 C        3.767    -0.107    22.588     6.774
    58   6 C        3.760    -0.117    22.786     6.805
    59   6 C        3.760    -0.113    22.707     6.793
    60   6 C        3.903     0.027    20.058     6.366
    61   6 C        3.762    -0.113    22.702     6.792
    62   6 C        3.761    -0.106    22.575     6.773
    63   6 C        3.762    -0.113    22.704     6.792
    64   6 C        3.903     0.028    20.049     6.365
    65   6 C        3.762    -0.109    22.625     6.780
    66   6 C        3.761    -0.117    22.782     6.804
    67   6 C        3.762    -0.109    22.631     6.781
    68   6 C        3.903     0.027    20.065     6.367
    69   6 C        3.761    -0.117    22.780     6.804
    70   6 C        3.762    -0.112    22.694     6.791
    71   6 C        3.762    -0.112    22.697     6.791
    72   6 C        3.903     0.028    20.050     6.365
    73   6 C        3.766    -0.109    22.623     6.779
    74   1 H        0.925     0.053     2.278     2.360
    75   1 H        0.925     0.040     2.448     2.447
    76   1 H        0.925     0.040     2.451     2.448
    77   6 C        3.760    -0.116    22.772     6.803
    78   1 H        0.925     0.044     2.397     2.421
    79   1 H        0.925     0.048     2.346     2.395
    80   1 H        0.925     0.044     2.397     2.421
    81   6 C        3.759    -0.111    22.670     6.788
    82   1 H        0.925     0.041     2.433     2.439
    83   1 H        0.925     0.035     2.518     2.481
    84   1 H        0.925     0.048     2.339     2.392
    85   1 H        0.925     0.044     2.400     2.422
    86   1 H        0.925     0.042     2.423     2.434
    87   1 H        0.925     0.052     2.292     2.367
    88   1 H        0.925     0.040     2.442     2.444
    89   1 H        0.925     0.054     2.266     2.354
    90   1 H        0.925     0.043     2.404     2.425
    91   1 H        0.925     0.036     2.507     2.476
    92   1 H        0.925     0.041     2.434     2.440
    93   1 H        0.925     0.049     2.328     2.386
    94   1 H        0.925     0.044     2.392     2.419
    95   1 H        0.925     0.049     2.338     2.391
    96   1 H        0.925     0.047     2.356     2.401
    97   1 H        0.925     0.041     2.431     2.438
    98   1 H        0.925     0.033     2.548     2.496
    99   1 H        0.925     0.055     2.263     2.352
   100   1 H        0.925     0.040     2.447     2.446
   101   1 H        0.925     0.043     2.412     2.429
   102   1 H        0.925     0.054     2.267     2.354
   103   1 H        0.925     0.040     2.449     2.447
   104   1 H        0.925     0.054     2.266     2.354
   105   1 H        0.925     0.043     2.406     2.426
   106   1 H        0.925     0.043     2.410     2.428
   107   1 H        0.925     0.043     2.406     2.426
   108   1 H        0.925     0.053     2.288     2.366
   109   1 H        0.925     0.027     2.632     2.537
   110   1 H        0.925     0.050     2.320     2.382
   111   1 H        0.925     0.040     2.452     2.449
   112   1 H        0.925     0.046     2.376     2.411
   113   1 H        0.925     0.041     2.439     2.442
   114   1 H        0.925     0.052     2.292     2.368
   115   1 H        0.925     0.034     2.532     2.489
   116   1 H        0.925     0.046     2.366     2.405
   117   1 H        0.925     0.052     2.291     2.367
   118   1 H        0.925     0.039     2.463     2.454
   119   1 H        0.925     0.043     2.414     2.430
   120   1 H        0.925     0.054     2.273     2.358
   121   1 H        0.926     0.087     1.910     2.161
   122   1 H        0.926     0.080     1.977     2.199
   123   1 H        0.926     0.077     2.014     2.219
   124   1 H        0.926     0.083     1.950     2.184
   125   1 H        0.926     0.067     2.119     2.276
   126   1 H        0.926     0.058     2.225     2.333
   127   1 H        0.926     0.066     2.127     2.281
   128   1 H        0.926     0.059     2.208     2.323
   129   1 H        0.926     0.078     2.003     2.213
   130   1 H        0.926     0.078     2.001     2.212
   131   1 H        0.926     0.088     1.894     2.152
   132   1 H        0.926     0.082     1.962     2.190
   133   1 H        0.925     0.044     2.398     2.422
   134   1 H        0.925     0.051     2.312     2.378
   135   1 H        0.925     0.043     2.403     2.424
   136   1 H        0.925     0.037     2.494     2.470
   137   1 H        0.925     0.041     2.432     2.439
   138   1 H        0.925     0.051     2.311     2.378
   139   1 H        0.925     0.039     2.460     2.453
   140   1 H        0.925     0.035     2.512     2.479
   141   1 H        0.925     0.053     2.288     2.366
   142   1 H        0.925     0.056     2.242     2.342
   143   1 H        0.923     0.025     2.666     2.553
   144   1 H        0.925     0.045     2.384     2.415
   145   1 H        0.925     0.049     2.327     2.385
   146   1 H        0.925     0.043     2.413     2.429
   147   1 H        0.924     0.044     2.391     2.418
   148   1 H        0.923     0.045     2.387     2.416
   149   1 H        0.925     0.044     2.398     2.421
   150   1 H        0.925     0.053     2.285     2.364
   151   1 H        0.925     0.046     2.368     2.406

 Mol. C6AA /au·bohr⁶  :     239567.876631
 Mol. C8AA /au·bohr⁸  :    5696069.454923
 Mol. α(0) /au        :        759.582295


Wiberg/Mayer (AO) data.
largest (>0.10) Wiberg bond orders for each atom

 ---------------------------------------------------------------------------
     #   Z sym  total        # sym  WBO       # sym  WBO       # sym  WBO
 ---------------------------------------------------------------------------
     1   6 C    3.883 --     2 C    1.374     6 C    1.332   125 H    0.960
     2   6 C    3.928 --     1 C    1.374     3 C    1.250    22 O    1.118
     3   6 C    3.953 --     2 C    1.250     7 C    1.223     4 C    1.187
     4   6 C    3.972 --    10 N    1.360     5 C    1.240     3 C    1.187
     5   6 C    3.899 --     6 C    1.481     4 C    1.240   123 H    0.958
     6   6 C    3.968 --     5 C    1.481     1 C    1.332    72 C    0.987
     7   6 C    3.980 --     8 C    1.308     3 C    1.223    11 C    1.207
     8   6 C    3.969 --     7 C    1.308    14 C    1.194     9 C    1.193
     9   6 C    3.976 --    10 N    1.360    17 C    1.246     8 C    1.193
    10   7 N    2.949 --     9 C    1.360     4 C    1.360
    11   6 C    3.923 --    18 C    1.253     7 C    1.207    12 C    1.175
    12   6 C    3.969 --    13 N    1.384    21 C    1.221    11 C    1.175
    13   7 N    2.987 --    12 C    1.384    14 C    1.341
    14   6 C    3.976 --    13 N    1.341    15 C    1.263     8 C    1.194
    15   6 C    3.824 --    16 C    1.403    14 C    1.263   122 H    0.958
    16   6 C    3.970 --    17 C    1.423    15 C    1.403    68 C    0.985
    17   6 C    3.827 --    16 C    1.423     9 C    1.246   121 H    0.957
    18   6 C    3.951 --    19 C    1.373    11 C    1.253    46 N    1.142
    19   6 C    3.849 --    18 C    1.373    20 C    1.331   126 H    0.951
    20   6 C    3.970 --    21 C    1.488    19 C    1.331    64 C    0.984
    21   6 C    3.874 --    20 C    1.488    12 C    1.221   124 H    0.956
    22   8 O    2.176 --     2 C    1.118    45 B    0.824
    23   6 C    3.877 --    28 C    1.342    24 C    1.337   127 H    0.956
    24   6 C    3.929 --    23 C    1.337    25 C    1.283    44 O    1.117
    25   6 C    3.961 --    24 C    1.283    29 C    1.192    26 C    1.182
    26   6 C    3.971 --    32 N    1.378    27 C    1.227    25 C    1.182
    27   6 C    3.892 --    28 C    1.484    26 C    1.227   129 H    0.958
    28   6 C    3.972 --    27 C    1.484    23 C    1.342    60 C    0.983
    29   6 C    3.980 --    30 C    1.307    33 C    1.231    25 C    1.192
    30   6 C    3.970 --    29 C    1.307    31 C    1.199    36 C    1.196
    31   6 C    3.976 --    32 N    1.337    39 C    1.261    30 C    1.199
    32   7 N    2.947 --    26 C    1.378    31 C    1.337
    33   6 C    3.950 --    40 C    1.243    29 C    1.231    34 C    1.192
    34   6 C    3.972 --    35 N    1.362    43 C    1.234    33 C    1.192
    35   7 N    2.983 --    34 C    1.362    36 C    1.355
    36   6 C    3.978 --    35 N    1.355    37 C    1.251    30 C    1.196
    37   6 C    3.834 --    38 C    1.418    36 C    1.251   132 H    0.958
    38   6 C    3.970 --    37 C    1.418    39 C    1.410    52 C    0.984
    39   6 C    3.836 --    38 C    1.410    31 C    1.261   131 H    0.957
    40   6 C    3.947 --    41 C    1.337    33 C    1.243    49 N    1.187
    41   6 C    3.845 --    42 C    1.351    40 C    1.337   128 H    0.949
    42   6 C    3.968 --    43 C    1.465    41 C    1.351    56 C    0.983
    43   6 C    3.867 --    42 C    1.465    34 C    1.234   130 H    0.957
    44   8 O    2.182 --    24 C    1.117    45 B    0.819
    45   5 B    3.397 --    22 O    0.824    44 O    0.819    46 N    0.803
                            49 N    0.803
    46   7 N    3.198 --    18 C    1.142    48 C    1.008    45 B    0.803
    47   6 C    3.977 --    48 C    1.003   150 H    0.984   151 H    0.984
                           149 H    0.982
    48   6 C    3.962 --    46 N    1.008    47 C    1.003   147 H    0.968
                           148 H    0.924
    49   7 N    3.218 --    40 C    1.187    51 C    1.000    45 B    0.803
    50   6 C    3.985 --    51 C    1.010   144 H    0.986   145 H    0.984
                           146 H    0.981
    51   6 C    3.967 --    50 C    1.010    49 N    1.000   142 H    0.955
                           143 H    0.945
    52   6 C    3.988 --    53 C    1.000    38 C    0.984    55 C    0.983
                            54 C    0.983
    53   6 C    3.994 --    52 C    1.000   106 H    0.984   107 H    0.984
                           108 H    0.983
    54   6 C    3.991 --   103 H    0.986   105 H    0.983    52 C    0.983
                           104 H    0.982
    55   6 C    3.991 --   100 H    0.986    52 C    0.983   101 H    0.983
                           102 H    0.982
    56   6 C    3.986 --    59 C    0.997    58 C    0.995    42 C    0.983
                            57 C    0.973
    57   6 C    3.990 --    98 H    0.986    97 H    0.985    99 H    0.981
                            56 C    0.973
    58   6 C    3.992 --    56 C    0.995    95 H    0.983    94 H    0.981
                            96 H    0.979
    59   6 C    3.991 --    56 C    0.997    93 H    0.983    91 H    0.982
                            92 H    0.974
    60   6 C    3.989 --    62 C    1.000    61 C    0.985    28 C    0.983
                            63 C    0.983
    61   6 C    3.992 --   115 H    0.987    60 C    0.985   117 H    0.983
                           116 H    0.983
    62   6 C    3.995 --    60 C    1.000   110 H    0.983   111 H    0.983
                           109 H    0.980
    63   6 C    3.991 --   113 H    0.986    60 C    0.983   112 H    0.983
                           114 H    0.983
    64   6 C    3.988 --    66 C    0.999    67 C    0.986    20 C    0.984
                            65 C    0.981
    65   6 C    3.991 --   139 H    0.986   141 H    0.983    64 C    0.981
                           140 H    0.981
    66   6 C    3.993 --    64 C    0.999   135 H    0.985   134 H    0.983
                           133 H    0.983
    67   6 C    3.991 --    64 C    0.986   137 H    0.986   138 H    0.982
                           136 H    0.982
    68   6 C    3.988 --    69 C    1.000    16 C    0.985    71 C    0.984
                            70 C    0.982
    69   6 C    3.994 --    68 C    1.000    86 H    0.984    85 H    0.983
                            87 H    0.983
    70   6 C    3.991 --    88 H    0.986    90 H    0.983    89 H    0.982
                            68 C    0.982
    71   6 C    3.991 --   118 H    0.986    68 C    0.984   119 H    0.983
                           120 H    0.982
    72   6 C    3.988 --    77 C    0.999    81 C    0.991     6 C    0.987
                            73 C    0.975
    73   6 C    3.990 --    75 H    0.986    76 H    0.985    74 H    0.981
                            72 C    0.975
    74   1 H    0.996 --    73 C    0.981
    75   1 H    0.998 --    73 C    0.986
    76   1 H    0.998 --    73 C    0.985
    77   6 C    3.994 --    72 C    0.999    79 H    0.983    78 H    0.982
                            80 H    0.980
    78   1 H    0.998 --    77 C    0.982
    79   1 H    0.997 --    77 C    0.983
    80   1 H    0.998 --    77 C    0.980
    81   6 C    3.992 --    72 C    0.991    84 H    0.983    82 H    0.982
                            83 H    0.980
    82   1 H    0.998 --    81 C    0.982
    83   1 H    0.999 --    81 C    0.980
    84   1 H    0.997 --    81 C    0.983
    85   1 H    0.998 --    69 C    0.983
    86   1 H    0.998 --    69 C    0.984
    87   1 H    0.997 --    69 C    0.983
    88   1 H    0.998 --    70 C    0.986
    89   1 H    0.996 --    70 C    0.982
    90   1 H    0.998 --    70 C    0.983
    91   1 H    0.999 --    59 C    0.982
    92   1 H    0.998 --    59 C    0.974
    93   1 H    0.997 --    59 C    0.983
    94   1 H    0.998 --    58 C    0.981
    95   1 H    0.997 --    58 C    0.983
    96   1 H    0.998 --    58 C    0.979
    97   1 H    0.998 --    57 C    0.985
    98   1 H    0.999 --    57 C    0.986
    99   1 H    0.995 --    57 C    0.981
   100   1 H    0.998 --    55 C    0.986
   101   1 H    0.998 --    55 C    0.983
   102   1 H    0.996 --    55 C    0.982
   103   1 H    0.998 --    54 C    0.986
   104   1 H    0.996 --    54 C    0.982
   105   1 H    0.998 --    54 C    0.983
   106   1 H    0.998 --    53 C    0.984
   107   1 H    0.998 --    53 C    0.984
   108   1 H    0.997 --    53 C    0.983
   109   1 H    0.999 --    62 C    0.980
   110   1 H    0.997 --    62 C    0.983
   111   1 H    0.998 --    62 C    0.983
   112   1 H    0.998 --    63 C    0.983
   113   1 H    0.998 --    63 C    0.986
   114   1 H    0.996 --    63 C    0.983
   115   1 H    0.999 --    61 C    0.987
   116   1 H    0.998 --    61 C    0.983
   117   1 H    0.996 --    61 C    0.983
   118   1 H    0.998 --    71 C    0.986
   119   1 H    0.998 --    71 C    0.983
   120   1 H    0.996 --    71 C    0.982
   121   1 H    0.992 --    17 C    0.957
   122   1 H    0.993 --    15 C    0.958
   123   1 H    0.993 --     5 C    0.958
   124   1 H    0.992 --    21 C    0.956
   125   1 H    0.995 --     1 C    0.960
   126   1 H    0.996 --    19 C    0.951
   127   1 H    0.995 --    23 C    0.956
   128   1 H    0.995 --    41 C    0.949
   129   1 H    0.993 --    27 C    0.958
   130   1 H    0.993 --    43 C    0.957
   131   1 H    0.992 --    39 C    0.957
   132   1 H    0.993 --    37 C    0.958
   133   1 H    0.998 --    66 C    0.983
   134   1 H    0.997 --    66 C    0.983
   135   1 H    0.998 --    66 C    0.985
   136   1 H    0.999 --    67 C    0.982
   137   1 H    0.998 --    67 C    0.986
   138   1 H    0.996 --    67 C    0.982
   139   1 H    0.998 --    65 C    0.986
   140   1 H    0.999 --    65 C    0.981
   141   1 H    0.996 --    65 C    0.983
   142   1 H    0.995 --    51 C    0.955
   143   1 H    0.984 --    51 C    0.945
   144   1 H    0.998 --    50 C    0.986
   145   1 H    0.997 --    50 C    0.984
   146   1 H    0.997 --    50 C    0.981
   147   1 H    0.996 --    48 C    0.968
   148   1 H    0.975 --    48 C    0.924
   149   1 H    0.996 --    47 C    0.982
   150   1 H    0.997 --    47 C    0.984
   151   1 H    0.998 --    47 C    0.984
 ---------------------------------------------------------------------------

Topologies differ in bond orders
Writing corrected topology to xtbtopo.mol

Note: The following floating-point exceptions are signalling: IEEE_UNDERFLOW_FLAG
normal termination of xtb
molecular dipole:
                 x           y           z       tot (Debye)
 q only:        0.061      -0.446      -1.064
   full:       -0.030      -0.664      -0.876       2.795
molecular quadrupole (traceless):
                xx          xy          yy          xz          yz          zz
 q only:       63.793     -36.175      22.518      18.618     -16.162     -86.311
  q+dip:       60.468     -32.989      24.558      13.951     -17.102     -85.026
   full:       54.558     -34.012      16.977      13.494     -15.614     -71.536


           -------------------------------------------------
          | TOTAL ENERGY             -206.829175517586 Eh   |
          | GRADIENT NORM               0.000537651826 Eh/α |
          | HOMO-LUMO GAP               0.055102065579 eV   |
           -------------------------------------------------
########################################################################
[WARNING] Runtime exception occurred
-2- restart_readRestart: Multiplicity missmatch in restart file.
-1- restart_readRestart: Number of electron missmatch in restart file.
########################################################################

------------------------------------------------------------------------
 * finished run on 2024/11/07 at 15:52:06.449     
------------------------------------------------------------------------
 total:
 * wall-time:     0 d,  0 h,  0 min,  1.843 sec
 *  cpu-time:     0 d,  0 h,  0 min,  7.141 sec
 * ratio c/w:     3.874 speedup
 SCF:
 * wall-time:     0 d,  0 h,  0 min,  1.824 sec
 *  cpu-time:     0 d,  0 h,  0 min,  7.098 sec
 * ratio c/w:     3.892 speedup

