      -----------------------------------------------------------      
     |                   =====================                   |     
     |                           x T B                           |     
     |                   =====================                   |     
     |                         S. Grimme                         |     
     |          Mulliken Center for Theoretical Chemistry        |     
     |                    University of Bonn                     |     
      -----------------------------------------------------------      

   * xtb version 6.6.1 (8d0f1dd) compiled by 'runner@Mac-1690902418499.local' on 2023-08-01

   xtb is free software: you can redistribute it and/or modify it under
   the terms of the GNU Lesser General Public License as published by
   the Free Software Foundation, either version 3 of the License, or
   (at your option) any later version.
   
   xtb is distributed in the hope that it will be useful,
   but WITHOUT ANY WARRANTY; without even the implied warranty of
   MERCHANTABILITY or FITNESS FOR A PARTICULAR PURPOSE.  See the
   GNU Lesser General Public License for more details.
   
   Cite this work as:
   * C. Bannwarth, E. Caldeweyher, S. Ehlert, A. Hansen, P. Pracht,
     J. Seibert, S. Spicher, S. Grimme, WIREs Comput. Mol. Sci., 2020, 11,
     e01493. DOI: 10.1002/wcms.1493
   
   for GFN2-xTB:
   * C. Bannwarth, S. Ehlert and S. Grimme., J. Chem. Theory Comput., 2019,
     15, 1652-1671. DOI: 10.1021/acs.jctc.8b01176
   for GFN1-xTB:
   * S. Grimme, C. Bannwarth, P. Shushkov, J. Chem. Theory Comput., 2017,
     13, 1989-2009. DOI: 10.1021/acs.jctc.7b00118
   for GFN0-xTB:
   * P. Pracht, E. Caldeweyher, S. Ehlert, S. Grimme, ChemRxiv, 2019, preprint.
     DOI: 10.26434/chemrxiv.8326202.v1
   for GFN-FF:
   * S. Spicher and S. Grimme, Angew. Chem. Int. Ed., 2020, 59, 15665-15673.
     DOI: 10.1002/anie.202004239
   
   for ALPB and GBSA implicit solvation:
   * S. Ehlert, M. Stahn, S. Spicher, S. Grimme, J. Chem. Theory Comput.,
     2021, 17, 4250-4261. DOI: 10.1021/acs.jctc.1c00471
   
   for DFT-D4:
   * E. Caldeweyher, C. Bannwarth and S. Grimme, J. Chem. Phys., 2017,
     147, 034112. DOI: 10.1063/1.4993215
   * E. Caldeweyher, S. Ehlert, A. Hansen, H. Neugebauer, S. Spicher,
     C. Bannwarth and S. Grimme, J. Chem. Phys., 2019, 150, 154122.
     DOI: 10.1063/1.5090222
   * E. Caldeweyher, J.-M. Mewes, S. Ehlert and S. Grimme, Phys. Chem. Chem. Phys.
     2020, 22, 8499-8512. DOI: 10.1039/D0CP00502A
   
   for sTDA-xTB:
   * S. Grimme and C. Bannwarth, J. Chem. Phys., 2016, 145, 054103.
     DOI: 10.1063/1.4959605
   
   in the mass-spec context:
   * V. Asgeirsson, C. Bauer and S. Grimme, Chem. Sci., 2017, 8, 4879.
     DOI: 10.1039/c7sc00601b
   * J. Koopman and S. Grimme, ACS Omega 2019, 4, 12, 15120-15133.
     DOI: 10.1021/acsomega.9b02011
   
   for metadynamics refer to:
   * S. Grimme, J. Chem. Theory Comput., 2019, 155, 2847-2862
     DOI: 10.1021/acs.jctc.9b00143
   
   for SPH calculations refer to:
   * S. Spicher and S. Grimme, J. Chem. Theory Comput., 2021, 17, 1701-1714
     DOI: 10.1021/acs.jctc.0c01306
   
   with help from (in alphabetical order)
   P. Atkinson, C. Bannwarth, F. Bohle, G. Brandenburg, E. Caldeweyher
   M. Checinski, S. Dohm, S. Ehlert, S. Ehrlich, I. Gerasimov, C. Hölzer
   A. Katbashev, J. Koopman, C. Lavigne, S. Lehtola, F. März, M. Müller,
   F. Musil, H. Neugebauer, J. Pisarek, C. Plett, P. Pracht, F. Pultar,
   J. Seibert, P. Shushkov, S. Spicher, M. Stahn, M. Steiner, T. Strunk,
   J. Stückrath, T. Rose, and J. Unsleber
   
 * started run on 2024/11/07 at 15:52:06.474     

           -------------------------------------------------
          |                Calculation Setup                |
           -------------------------------------------------

          program call               : xtb opt_cation_Base2tBu.mol --gfn2 --sp --chrg 0 --uhf 0
          coordinate file            : opt_cation_Base2tBu.mol
          omp threads                :                     8

   ID    Z sym.   atoms
    1    6 C      1-9, 11, 12, 14-21, 23-31, 33, 34, 36-43, 47, 48, 50-73,
                  77, 81
    2    7 N      10, 13, 32, 35, 46, 49
    3    8 O      22, 44
    4    5 B      45
    5    1 H      74-76, 78-80, 82-151
########################################################################
[WARNING] Please study the warnings concerning your input carefully
-1- prog_main: Charge in sdf/mol input was overwritten
########################################################################

           -------------------------------------------------
          |                 G F N 2 - x T B                 |
           -------------------------------------------------

        Reference                      10.1021/acs.jctc.8b01176
      * Hamiltonian:
        H0-scaling (s, p, d)           1.850000    2.230000    2.230000
        zeta-weighting                 0.500000
      * Dispersion:
        s8                             2.700000
        a1                             0.520000
        a2                             5.000000
        s9                             5.000000
      * Repulsion:
        kExp                           1.500000    1.000000
        rExp                           1.000000
      * Coulomb:
        alpha                          2.000000
        third order                    shell-resolved
        anisotropic                    true
        a3                             3.000000
        a5                             4.000000
        cn-shift                       1.200000
        cn-exp                         4.000000
        max-rad                        5.000000

q/qsh data taken from xtbrestart
CAMM data taken from xtbrestart

          ...................................................
          :                      SETUP                      :
          :.................................................:
          :  # basis functions                 376          :
          :  # atomic orbitals                 376          :
          :  # shells                          226          :
          :  # electrons                       385          :
          :  max. iterations                   250          :
          :  Hamiltonian                  GFN2-xTB          :
          :  restarted?                       true          :
          :  GBSA solvation                  false          :
          :  PC potential                    false          :
          :  electronic temp.          300.0000000     K    :
          :  accuracy                    1.0000000          :
          :  -> integral cutoff          0.2500000E+02      :
          :  -> integral neglect         0.1000000E-07      :
          :  -> SCF convergence          0.1000000E-05 Eh   :
          :  -> wf. convergence          0.1000000E-03 e    :
          :  Broyden damping             0.4000000          :
          ...................................................

 iter      E             dE          RMSdq      gap      omega  full diag
   1   -210.4667527 -0.210467E+03  0.247E-01    0.05       0.0  T
   2   -210.3897155  0.770372E-01  0.508E-01    0.09       1.0  T
   3   -210.3944108 -0.469528E-02  0.495E-01    0.20       1.0  T
   4   -210.4430729 -0.486621E-01  0.335E-01    0.06       1.0  T
   5   -210.4311998  0.118731E-01  0.422E-01    0.04       1.0  T
   6   -210.4517841 -0.205843E-01  0.309E-01    0.06       1.0  T
   7   -210.4732807 -0.214966E-01  0.135E-01    0.05       1.0  T
   8   -210.4749553 -0.167461E-02  0.924E-02    0.04       1.0  T
   9   -210.4751600 -0.204732E-03  0.874E-02    0.05       1.0  T
  10   -210.4768239 -0.166381E-02  0.447E-02    0.05       1.0  T
  11   -210.4773131 -0.489223E-03  0.214E-02    0.05       1.0  T
  12   -210.4774136 -0.100527E-03  0.116E-02    0.05       1.0  T
  13   -210.4774481 -0.344704E-04  0.354E-03    0.05       2.3  T
  14   -210.4774497 -0.163602E-05  0.274E-03    0.05       3.0  T
  15   -210.4774515 -0.177696E-05  0.112E-03    0.05       7.3  T
  16   -210.4774519 -0.442458E-06  0.195E-04    0.05      41.7  T
  17   -210.4774519  0.156047E-08  0.172E-04    0.05      47.3  T

   *** convergence criteria satisfied after 17 iterations ***

         #    Occupation            Energy/Eh            Energy/eV
      -------------------------------------------------------------
         1        2.0000           -0.6777978             -18.4438
       ...           ...                  ...                  ...
       187        2.0000           -0.3685263             -10.0281
       188        2.0000           -0.3640674              -9.9068
       189        2.0000           -0.3518684              -9.5748
       190        2.0000           -0.3510969              -9.5538
       191        2.0000           -0.3473531              -9.4520
       192        1.6373           -0.3373534              -9.1799
       193        0.9979           -0.3355919              -9.1319 (HOMO)
       194        0.3648           -0.3338482              -9.0845 (LUMO)
       195                         -0.2719056              -7.3989
       196                         -0.2683608              -7.3025
       197                         -0.2328836              -6.3371
       198                         -0.2298801              -6.2554
       ...                                ...                  ...
       376                          0.7109881              19.3470
      -------------------------------------------------------------
                  HL-Gap            0.0017437 Eh            0.0474 eV
             Fermi-level           -0.3355971 Eh           -9.1321 eV

 SCC (total)                   0 d,  0 h,  0 min,  1.514 sec
 SCC setup                      ...        0 min,  0.000 sec (  0.032%)
 Dispersion                     ...        0 min,  0.002 sec (  0.131%)
 classical contributions        ...        0 min,  0.000 sec (  0.028%)
 integral evaluation            ...        0 min,  0.008 sec (  0.561%)
 iterations                     ...        0 min,  1.422 sec ( 93.915%)
 molecular gradient             ...        0 min,  0.074 sec (  4.888%)
 printout                       ...        0 min,  0.007 sec (  0.444%)

         :::::::::::::::::::::::::::::::::::::::::::::::::::::
         ::                     SUMMARY                     ::
         :::::::::::::::::::::::::::::::::::::::::::::::::::::
         :: total energy            -207.213828765468 Eh    ::
         :: gradient norm              0.017388619457 Eh/a0 ::
         :: HOMO-LUMO gap              0.047448944395 eV    ::
         ::.................................................::
         :: SCC energy              -210.477451933812 Eh    ::
         :: -> isotropic ES            0.148820979695 Eh    ::
         :: -> anisotropic ES          0.027844611215 Eh    ::
         :: -> anisotropic XC          0.116815254656 Eh    ::
         :: -> dispersion             -0.220740478424 Eh    ::
         :: repulsion energy           3.256439728623 Eh    ::
         :: add. restraining           0.000000000000 Eh    ::
         :: total charge              -0.000013517487 e     ::
         :::::::::::::::::::::::::::::::::::::::::::::::::::::

           -------------------------------------------------
          |                Property Printout                |
           -------------------------------------------------

    * Orbital Energies and Occupations

         #    Occupation            Energy/Eh            Energy/eV
      -------------------------------------------------------------
         1        2.0000           -0.6777978             -18.4438
       ...           ...                  ...                  ...
       181        2.0000           -0.3923406             -10.6761
       182        2.0000           -0.3910193             -10.6402
       183        2.0000           -0.3888264             -10.5805
       184        2.0000           -0.3780440             -10.2871
       185        2.0000           -0.3699496             -10.0668
       186        2.0000           -0.3687054             -10.0330
       187        2.0000           -0.3685263             -10.0281
       188        2.0000           -0.3640674              -9.9068
       189        2.0000           -0.3518684              -9.5748
       190        2.0000           -0.3510969              -9.5538
       191        2.0000           -0.3473531              -9.4520
       192        1.6373           -0.3373534              -9.1799
       193        0.9979           -0.3355919              -9.1319 (HOMO)
       194        0.3648           -0.3338482              -9.0845 (LUMO)
       195                         -0.2719056              -7.3989
       196                         -0.2683608              -7.3025
       197                         -0.2328836              -6.3371
       198                         -0.2298801              -6.2554
       199                         -0.2287200              -6.2238
       200                         -0.2274842              -6.1902
       201                         -0.2163216              -5.8864
       202                         -0.2117011              -5.7607
       203                         -0.1980690              -5.3897
       204                         -0.1927394              -5.2447
       ...                                ...                  ...
       376                          0.7109881              19.3470
      -------------------------------------------------------------
                  HL-Gap            0.0017437 Eh            0.0474 eV
             Fermi-level           -0.3355971 Eh           -9.1321 eV

     #   Z          covCN         q      C6AA      α(0)
     1   6 C        2.930    -0.063    29.580     8.919
     2   6 C        2.849     0.160    24.532     8.118
     3   6 C        2.975    -0.042    29.037     8.839
     4   6 C        2.968     0.088    26.039     8.370
     5   6 C        2.941    -0.062    29.529     8.912
     6   6 C        2.968     0.012    27.734     8.638
     7   6 C        2.970     0.030    27.323     8.574
     8   6 C        3.000    -0.032    28.773     8.799
     9   6 C        2.963     0.090    25.990     8.362
    10   7 N        1.862    -0.254    27.474     7.769
    11   6 C        2.972    -0.022    28.549     8.764
    12   6 C        2.969     0.092    25.948     8.355
    13   7 N        1.867    -0.248    27.321     7.748
    14   6 C        2.958     0.089    26.021     8.367
    15   6 C        2.931    -0.041    29.029     8.836
    16   6 C        2.966     0.014    27.700     8.633
    17   6 C        2.930    -0.046    29.133     8.852
    18   6 C        2.910     0.090    25.989     8.359
    19   6 C        2.941    -0.047    29.168     8.858
    20   6 C        2.966     0.011    27.760     8.642
    21   6 C        2.949    -0.053    29.325     8.882
    22   8 O        1.640    -0.382    20.507     6.113
    23   6 C        2.929    -0.063    29.570     8.918
    24   6 C        2.851     0.160    24.543     8.120
    25   6 C        2.978    -0.040    28.999     8.833
    26   6 C        2.976     0.091    25.982     8.361
    27   6 C        2.948    -0.054    29.350     8.886
    28   6 C        2.966     0.009    27.810     8.650
    29   6 C        2.968     0.037    27.168     8.550
    30   6 C        3.000    -0.029    28.710     8.789
    31   6 C        2.970     0.089    26.006     8.365
    32   7 N        1.868    -0.252    27.407     7.760
    33   6 C        2.967    -0.024    28.603     8.773
    34   6 C        2.970     0.092    25.943     8.355
    35   7 N        1.882    -0.249    27.351     7.753
    36   6 C        2.964     0.091    25.985     8.361
    37   6 C        2.933    -0.040    28.990     8.830
    38   6 C        2.966     0.014    27.696     8.632
    39   6 C        2.932    -0.043    29.078     8.844
    40   6 C        2.904     0.088    26.048     8.368
    41   6 C        2.941    -0.056    29.390     8.891
    42   6 C        2.968     0.010    27.789     8.647
    43   6 C        2.965    -0.050    29.237     8.869
    44   8 O        1.640    -0.378    20.428     6.101
    45   5 B        3.260     0.490    14.606     6.374
    46   7 N        2.662    -0.225    25.910     7.560
    47   6 C        3.751    -0.105    22.569     6.775
    48   6 C        3.747     0.020    20.306     6.428
    49   7 N        2.660    -0.233    26.102     7.588
    50   6 C        3.752    -0.104    22.540     6.771
    51   6 C        3.747     0.016    20.372     6.438
    52   6 C        3.903     0.027    20.072     6.368
    53   6 C        3.761    -0.111    22.664     6.787
    54   6 C        3.762    -0.108    22.607     6.778
    55   6 C        3.762    -0.108    22.608     6.778
    56   6 C        3.903     0.027    20.061     6.367
    57   6 C        3.767    -0.103    22.513     6.762
    58   6 C        3.760    -0.111    22.679     6.789
    59   6 C        3.760    -0.109    22.638     6.783
    60   6 C        3.903     0.027    20.063     6.367
    61   6 C        3.762    -0.108    22.615     6.779
    62   6 C        3.761    -0.102    22.488     6.760
    63   6 C        3.762    -0.108    22.617     6.779
    64   6 C        3.903     0.027    20.058     6.366
    65   6 C        3.762    -0.105    22.547     6.769
    66   6 C        3.761    -0.111    22.668     6.787
    67   6 C        3.762    -0.105    22.558     6.770
    68   6 C        3.903     0.026    20.074     6.369
    69   6 C        3.761    -0.111    22.662     6.786
    70   6 C        3.762    -0.108    22.601     6.777
    71   6 C        3.762    -0.108    22.605     6.777
    72   6 C        3.903     0.027    20.056     6.366
    73   6 C        3.766    -0.105    22.552     6.769
    74   1 H        0.925     0.041     2.433     2.439
    75   1 H        0.925     0.035     2.516     2.480
    76   1 H        0.925     0.038     2.479     2.462
    77   6 C        3.760    -0.111    22.666     6.787
    78   1 H        0.925     0.039     2.465     2.455
    79   1 H        0.925     0.037     2.495     2.470
    80   1 H        0.925     0.042     2.422     2.434
    81   6 C        3.759    -0.108    22.608     6.779
    82   1 H        0.925     0.039     2.467     2.456
    83   1 H        0.925     0.039     2.460     2.453
    84   1 H        0.925     0.037     2.488     2.467
    85   1 H        0.925     0.040     2.452     2.449
    86   1 H        0.925     0.039     2.467     2.456
    87   1 H        0.925     0.039     2.461     2.453
    88   1 H        0.925     0.036     2.502     2.474
    89   1 H        0.925     0.041     2.442     2.444
    90   1 H        0.925     0.040     2.447     2.446
    91   1 H        0.925     0.034     2.527     2.486
    92   1 H        0.925     0.044     2.393     2.419
    93   1 H        0.925     0.038     2.481     2.463
    94   1 H        0.925     0.039     2.461     2.453
    95   1 H        0.925     0.037     2.488     2.467
    96   1 H        0.925     0.044     2.394     2.420
    97   1 H        0.925     0.037     2.492     2.469
    98   1 H        0.925     0.030     2.580     2.512
    99   1 H        0.925     0.042     2.423     2.434
   100   1 H        0.925     0.036     2.509     2.477
   101   1 H        0.925     0.040     2.447     2.446
   102   1 H        0.925     0.041     2.440     2.443
   103   1 H        0.925     0.036     2.504     2.475
   104   1 H        0.925     0.041     2.440     2.443
   105   1 H        0.925     0.041     2.442     2.444
   106   1 H        0.925     0.039     2.456     2.451
   107   1 H        0.925     0.039     2.461     2.453
   108   1 H        0.925     0.039     2.457     2.451
   109   1 H        0.925     0.029     2.602     2.523
   110   1 H        0.925     0.038     2.471     2.458
   111   1 H        0.925     0.037     2.489     2.467
   112   1 H        0.925     0.042     2.427     2.436
   113   1 H        0.925     0.037     2.494     2.470
   114   1 H        0.925     0.040     2.448     2.447
   115   1 H        0.925     0.033     2.549     2.497
   116   1 H        0.925     0.042     2.424     2.435
   117   1 H        0.925     0.040     2.445     2.445
   118   1 H        0.925     0.035     2.517     2.481
   119   1 H        0.925     0.040     2.451     2.448
   120   1 H        0.925     0.040     2.447     2.446
   121   1 H        0.926     0.063     2.159     2.298
   122   1 H        0.926     0.056     2.251     2.346
   123   1 H        0.926     0.059     2.215     2.327
   124   1 H        0.926     0.062     2.175     2.306
   125   1 H        0.926     0.054     2.270     2.356
   126   1 H        0.926     0.044     2.398     2.421
   127   1 H        0.926     0.053     2.286     2.364
   128   1 H        0.926     0.049     2.333     2.388
   129   1 H        0.926     0.057     2.229     2.335
   130   1 H        0.926     0.059     2.215     2.327
   131   1 H        0.926     0.064     2.147     2.291
   132   1 H        0.926     0.058     2.226     2.333
   133   1 H        0.925     0.039     2.462     2.454
   134   1 H        0.925     0.039     2.467     2.456
   135   1 H        0.925     0.040     2.454     2.450
   136   1 H        0.925     0.038     2.478     2.461
   137   1 H        0.925     0.037     2.485     2.465
   138   1 H        0.925     0.038     2.470     2.458
   139   1 H        0.925     0.034     2.529     2.487
   140   1 H        0.925     0.036     2.507     2.476
   141   1 H        0.925     0.040     2.445     2.445
   142   1 H        0.925     0.052     2.295     2.369
   143   1 H        0.923     0.019     2.753     2.595
   144   1 H        0.925     0.039     2.456     2.451
   145   1 H        0.925     0.038     2.474     2.460
   146   1 H        0.925     0.038     2.469     2.457
   147   1 H        0.924     0.039     2.463     2.454
   148   1 H        0.923     0.035     2.517     2.481
   149   1 H        0.925     0.038     2.472     2.459
   150   1 H        0.925     0.040     2.444     2.445
   151   1 H        0.925     0.042     2.425     2.435

 Mol. C6AA /au·bohr⁶  :     242903.795815
 Mol. C8AA /au·bohr⁸  :    5759325.855275
 Mol. α(0) /au        :        764.943250


Wiberg/Mayer (AO) data.
largest (>0.10) Wiberg bond orders for each atom

 ---------------------------------------------------------------------------
     #   Z sym  total        # sym  WBO       # sym  WBO       # sym  WBO
 ---------------------------------------------------------------------------
     1   6 C    3.899 --     2 C    1.386     6 C    1.334   125 H    0.962
     2   6 C    3.933 --     1 C    1.386     3 C    1.246    22 O    1.115
     3   6 C    3.948 --     2 C    1.246     7 C    1.223     4 C    1.195
     4   6 C    3.973 --    10 N    1.348     5 C    1.247     3 C    1.195
     5   6 C    3.914 --     6 C    1.488     4 C    1.247   123 H    0.961
     6   6 C    3.971 --     5 C    1.488     1 C    1.334    72 C    0.986
     7   6 C    3.981 --     8 C    1.309     3 C    1.223    11 C    1.206
     8   6 C    3.973 --     7 C    1.309    14 C    1.194     9 C    1.194
     9   6 C    3.977 --    10 N    1.355    17 C    1.250     8 C    1.194
    10   7 N    2.930 --     9 C    1.355     4 C    1.348
    11   6 C    3.922 --    18 C    1.252     7 C    1.206    12 C    1.184
    12   6 C    3.969 --    13 N    1.371    21 C    1.229    11 C    1.184
    13   7 N    2.955 --    12 C    1.371    14 C    1.335
    14   6 C    3.976 --    13 N    1.335    15 C    1.271     8 C    1.194
    15   6 C    3.814 --    16 C    1.405    14 C    1.271   122 H    0.962
    16   6 C    3.974 --    17 C    1.431    15 C    1.405    68 C    0.983
    17   6 C    3.820 --    16 C    1.431     9 C    1.250   121 H    0.961
    18   6 C    3.955 --    19 C    1.379    11 C    1.252    46 N    1.140
    19   6 C    3.859 --    18 C    1.379    20 C    1.335   126 H    0.953
    20   6 C    3.974 --    21 C    1.494    19 C    1.335    64 C    0.983
    21   6 C    3.882 --    20 C    1.494    12 C    1.229   124 H    0.960
    22   8 O    2.174 --     2 C    1.115    45 B    0.821
    23   6 C    3.886 --    24 C    1.350    28 C    1.344   127 H    0.958
    24   6 C    3.934 --    23 C    1.350    25 C    1.278    44 O    1.114
    25   6 C    3.950 --    24 C    1.278    29 C    1.191    26 C    1.190
    26   6 C    3.971 --    32 N    1.364    27 C    1.237    25 C    1.190
    27   6 C    3.899 --    28 C    1.489    26 C    1.237   129 H    0.961
    28   6 C    3.975 --    27 C    1.489    23 C    1.344    60 C    0.982
    29   6 C    3.981 --    30 C    1.309    33 C    1.230    25 C    1.191
    30   6 C    3.974 --    29 C    1.309    31 C    1.200    36 C    1.197
    31   6 C    3.977 --    32 N    1.333    39 C    1.266    30 C    1.200
    32   7 N    2.916 --    26 C    1.364    31 C    1.333
    33   6 C    3.945 --    40 C    1.241    29 C    1.230    34 C    1.197
    34   6 C    3.971 --    35 N    1.352    43 C    1.241    33 C    1.197
    35   7 N    2.947 --    34 C    1.352    36 C    1.348
    36   6 C    3.978 --    35 N    1.348    37 C    1.258    30 C    1.197
    37   6 C    3.817 --    38 C    1.420    36 C    1.258   132 H    0.962
    38   6 C    3.974 --    37 C    1.420    39 C    1.417    52 C    0.983
    39   6 C    3.820 --    38 C    1.417    31 C    1.266   131 H    0.961
    40   6 C    3.952 --    41 C    1.346    33 C    1.241    49 N    1.183
    41   6 C    3.858 --    42 C    1.352    40 C    1.346   128 H    0.951
    42   6 C    3.972 --    43 C    1.472    41 C    1.352    56 C    0.982
    43   6 C    3.879 --    42 C    1.472    34 C    1.241   130 H    0.960
    44   8 O    2.176 --    24 C    1.114    45 B    0.817
    45   5 B    3.395 --    22 O    0.821    44 O    0.817    46 N    0.804
                            49 N    0.803
    46   7 N    3.200 --    18 C    1.140    48 C    1.008    45 B    0.804
    47   6 C    3.984 --    48 C    1.005   150 H    0.986   151 H    0.984
                           149 H    0.983
    48   6 C    3.970 --    46 N    1.008    47 C    1.005   147 H    0.969
                           148 H    0.932
    49   7 N    3.228 --    40 C    1.183    51 C    1.002    45 B    0.803
    50   6 C    3.989 --    51 C    1.010   144 H    0.987   145 H    0.986
                           146 H    0.982
    51   6 C    3.974 --    50 C    1.010    49 N    1.002   142 H    0.957
                           143 H    0.949
    52   6 C    3.990 --    53 C    1.000    55 C    0.986    54 C    0.986
                            38 C    0.983
    53   6 C    3.995 --    52 C    1.000   106 H    0.984   107 H    0.984
                           108 H    0.984
    54   6 C    3.993 --   103 H    0.987    52 C    0.986   104 H    0.984
                           105 H    0.983
    55   6 C    3.993 --   100 H    0.987    52 C    0.986   102 H    0.984
                           101 H    0.983
    56   6 C    3.989 --    59 C    0.998    58 C    0.996    42 C    0.982
                            57 C    0.977
    57   6 C    3.993 --    97 H    0.986    98 H    0.986    99 H    0.983
                            56 C    0.977
    58   6 C    3.994 --    56 C    0.996    95 H    0.984    94 H    0.982
                            96 H    0.979
    59   6 C    3.993 --    56 C    0.998    93 H    0.984    91 H    0.983
                            92 H    0.975
    60   6 C    3.990 --    62 C    1.000    61 C    0.987    63 C    0.986
                            28 C    0.982
    61   6 C    3.994 --    60 C    0.987   115 H    0.987   117 H    0.984
                           116 H    0.983
    62   6 C    3.996 --    60 C    1.000   110 H    0.984   111 H    0.983
                           109 H    0.980
    63   6 C    3.994 --   113 H    0.987    60 C    0.986   114 H    0.984
                           112 H    0.984
    64   6 C    3.990 --    66 C    0.999    67 C    0.989    65 C    0.984
                            20 C    0.983
    65   6 C    3.994 --   139 H    0.987    64 C    0.984   141 H    0.984
                           140 H    0.981
    66   6 C    3.995 --    64 C    0.999   135 H    0.985   134 H    0.985
                           133 H    0.984
    67   6 C    3.993 --    64 C    0.989   137 H    0.987   138 H    0.984
                           136 H    0.982
    68   6 C    3.990 --    69 C    1.000    71 C    0.987    70 C    0.985
                            16 C    0.983
    69   6 C    3.995 --    68 C    1.000    86 H    0.985    87 H    0.984
                            85 H    0.984
    70   6 C    3.993 --    88 H    0.987    68 C    0.985    89 H    0.984
                            90 H    0.983
    71   6 C    3.993 --    68 C    0.987   118 H    0.987   120 H    0.984
                           119 H    0.983
    72   6 C    3.990 --    77 C    0.999    81 C    0.992     6 C    0.986
                            73 C    0.979
    73   6 C    3.992 --    75 H    0.986    76 H    0.986    74 H    0.984
                            72 C    0.979
    74   1 H    0.997 --    73 C    0.984
    75   1 H    0.999 --    73 C    0.986
    76   1 H    0.999 --    73 C    0.986
    77   6 C    3.995 --    72 C    0.999    79 H    0.984    78 H    0.983
                            80 H    0.980
    78   1 H    0.998 --    77 C    0.983
    79   1 H    0.998 --    77 C    0.984
    80   1 H    0.998 --    77 C    0.980
    81   6 C    3.993 --    72 C    0.992    84 H    0.985    82 H    0.983
                            83 H    0.979
    82   1 H    0.998 --    81 C    0.983
    83   1 H    0.998 --    81 C    0.979
    84   1 H    0.998 --    81 C    0.985
    85   1 H    0.998 --    69 C    0.984
    86   1 H    0.998 --    69 C    0.985
    87   1 H    0.998 --    69 C    0.984
    88   1 H    0.999 --    70 C    0.987
    89   1 H    0.997 --    70 C    0.984
    90   1 H    0.998 --    70 C    0.983
    91   1 H    0.999 --    59 C    0.983
    92   1 H    0.998 --    59 C    0.975
    93   1 H    0.998 --    59 C    0.984
    94   1 H    0.998 --    58 C    0.982
    95   1 H    0.998 --    58 C    0.984
    96   1 H    0.998 --    58 C    0.979
    97   1 H    0.999 --    57 C    0.986
    98   1 H    0.999 --    57 C    0.986
    99   1 H    0.997 --    57 C    0.983
   100   1 H    0.999 --    55 C    0.987
   101   1 H    0.998 --    55 C    0.983
   102   1 H    0.997 --    55 C    0.984
   103   1 H    0.999 --    54 C    0.987
   104   1 H    0.997 --    54 C    0.984
   105   1 H    0.998 --    54 C    0.983
   106   1 H    0.998 --    53 C    0.984
   107   1 H    0.998 --    53 C    0.984
   108   1 H    0.998 --    53 C    0.984
   109   1 H    0.999 --    62 C    0.980
   110   1 H    0.998 --    62 C    0.984
   111   1 H    0.999 --    62 C    0.983
   112   1 H    0.998 --    63 C    0.984
   113   1 H    0.999 --    63 C    0.987
   114   1 H    0.998 --    63 C    0.984
   115   1 H    0.999 --    61 C    0.987
   116   1 H    0.998 --    61 C    0.983
   117   1 H    0.997 --    61 C    0.984
   118   1 H    0.999 --    71 C    0.987
   119   1 H    0.998 --    71 C    0.983
   120   1 H    0.997 --    71 C    0.984
   121   1 H    0.995 --    17 C    0.961
   122   1 H    0.996 --    15 C    0.962
   123   1 H    0.996 --     5 C    0.961
   124   1 H    0.995 --    21 C    0.960
   125   1 H    0.997 --     1 C    0.962
   126   1 H    0.997 --    19 C    0.953
   127   1 H    0.997 --    23 C    0.958
   128   1 H    0.997 --    41 C    0.951
   129   1 H    0.996 --    27 C    0.961
   130   1 H    0.996 --    43 C    0.960
   131   1 H    0.995 --    39 C    0.961
   132   1 H    0.996 --    37 C    0.962
   133   1 H    0.998 --    66 C    0.984
   134   1 H    0.998 --    66 C    0.985
   135   1 H    0.998 --    66 C    0.985
   136   1 H    0.999 --    67 C    0.982
   137   1 H    0.999 --    67 C    0.987
   138   1 H    0.997 --    67 C    0.984
   139   1 H    0.999 --    65 C    0.987
   140   1 H    0.999 --    65 C    0.981
   141   1 H    0.997 --    65 C    0.984
   142   1 H    0.996 --    51 C    0.957
   143   1 H    0.988 --    51 C    0.949
   144   1 H    0.998 --    50 C    0.987
   145   1 H    0.998 --    50 C    0.986
   146   1 H    0.998 --    50 C    0.982
   147   1 H    0.997 --    48 C    0.969
   148   1 H    0.981 --    48 C    0.932
   149   1 H    0.997 --    47 C    0.983
   150   1 H    0.998 --    47 C    0.986
   151   1 H    0.998 --    47 C    0.984
 ---------------------------------------------------------------------------

Topologies differ in bond orders
Writing corrected topology to xtbtopo.mol

molecular dipole:
                 x           y           z       tot (Debye)
Note: The following floating-point exceptions are signalling: IEEE_UNDERFLOW_FLAG
normal termination of xtb
 q only:        0.063      -0.220      -0.900
   full:       -0.030      -0.442      -0.732       2.175
molecular quadrupole (traceless):
                xx          xy          yy          xz          yz          zz
 q only:       12.809      -1.291      14.683       0.377      -1.934     -27.492
  q+dip:       10.336       2.201      18.012      -4.570      -3.140     -28.348
   full:        4.824       1.184      10.837      -5.013      -1.710     -15.662


           -------------------------------------------------
          | TOTAL ENERGY             -207.213828765468 Eh   |
          | GRADIENT NORM               0.017388619457 Eh/α |
          | HOMO-LUMO GAP               0.047448944395 eV   |
           -------------------------------------------------
########################################################################
[WARNING] Runtime exception occurred
-2- restart_readRestart: Multiplicity missmatch in restart file.
-1- restart_readRestart: Number of electron missmatch in restart file.
########################################################################

------------------------------------------------------------------------
 * finished run on 2024/11/07 at 15:52:08.007     
------------------------------------------------------------------------
 total:
 * wall-time:     0 d,  0 h,  0 min,  1.533 sec
 *  cpu-time:     0 d,  0 h,  0 min,  5.502 sec
 * ratio c/w:     3.590 speedup
 SCF:
 * wall-time:     0 d,  0 h,  0 min,  1.514 sec
 *  cpu-time:     0 d,  0 h,  0 min,  5.457 sec
 * ratio c/w:     3.604 speedup

