Optimization of monomers started
Stacking dimer
Calculating transfer integral
Reorganization energy (electron): 0.028947687677050058 eV
Reorganization energy (hole): 0.03214251292609002 eV
Electron Transfer integral J: 0.003 eV
Hole Transfer integral J: 0.012 eV
                  |     
     |                         S. Grimme                         |     
     |          Mulliken Center for Theoretical Chemistry        |     
     |                    University of Bonn                     |     
      -----------------------------------------------------------      

   * xtb version 6.7.1 (edcfbbe) compiled by 'runner@Mac-1732539442253.local' on 2024-11-25

   xtb is free software: you can redistribute it and/or modify it under
   the terms of the GNU Lesser General Public License as published by
   the Free Software Foundation, either version 3 of the License, or
   (at your option) any later version.
   
   xtb is distributed in the hope that it will be useful,
   but WITHOUT ANY WARRANTY; without even the implied warranty of
   MERCHANTABILITY or FITNESS FOR A PARTICULAR PURPOSE.  See the
   GNU Lesser General Public License for more details.
   
   Cite this work as:
   * C. Bannwarth, E. Caldeweyher, S. Ehlert, A. Hansen, P. Pracht,
     J. Seibert, S. Spicher, S. Grimme, WIREs Comput. Mol. Sci., 2020, 11,
     e01493. DOI: 10.1002/wcms.1493
   
   for GFN2-xTB:
   * C. Bannwarth, S. Ehlert and S. Grimme., J. Chem. Theory Comput., 2019,
     15, 1652-1671. DOI: 10.1021/acs.jctc.8b01176
   for GFN1-xTB:
   * S. Grimme, C. Bannwarth, P. Shushkov, J. Chem. Theory Comput., 2017,
     13, 1989-2009. DOI: 10.1021/acs.jctc.7b00118
   for GFN0-xTB:
   * P. Pracht, E. Caldeweyher, S. Ehlert, S. Grimme, ChemRxiv, 2019, preprint.
     DOI: 10.26434/chemrxiv.8326202.v1
   for GFN-FF:
   * S. Spicher and S. Grimme, Angew. Chem. Int. Ed., 2020, 59, 15665-15673.
     DOI: 10.1002/anie.202004239
   
   for ALPB and GBSA implicit solvation:
   * S. Ehlert, M. Stahn, S. Spicher, S. Grimme, J. Chem. Theory Comput.,
     2021, 17, 4250-4261. DOI: 10.1021/acs.jctc.1c00471
   
   for ddCOSMO and CPCM-X implicit solvation:
   * M. Stahn, S. Ehlert, S. Grimme, J. Phys. Chem. A,
     2023, XX, XXXX-XXXX. DOI: 10.1021/acs.jpca.3c04382
   
   for DFT-D4:
   * E. Caldeweyher, C. Bannwarth and S. Grimme, J. Chem. Phys., 2017,
     147, 034112. DOI: 10.1063/1.4993215
   * E. Caldeweyher, S. Ehlert, A. Hansen, H. Neugebauer, S. Spicher,
     C. Bannwarth and S. Grimme, J. Chem. Phys., 2019, 150, 154122.
     DOI: 10.1063/1.5090222
   * E. Caldeweyher, J.-M. Mewes, S. Ehlert and S. Grimme, Phys. Chem. Chem. Phys.
     2020, 22, 8499-8512. DOI: 10.1039/D0CP00502A
   
   for sTDA-xTB:
   * S. Grimme and C. Bannwarth, J. Chem. Phys., 2016, 145, 054103.
     DOI: 10.1063/1.4959605
   
   in the mass-spec context:
   * V. Asgeirsson, C. Bauer and S. Grimme, Chem. Sci., 2017, 8, 4879.
     DOI: 10.1039/c7sc00601b
   * J. Koopman and S. Grimme, ACS Omega 2019, 4, 12, 15120-15133.
     DOI: 10.1021/acsomega.9b02011
   
   for metadynamics refer to:
   * S. Grimme, J. Chem. Theory Comput., 2019, 155, 2847-2862
     DOI: 10.1021/acs.jctc.9b00143
   
   for SPH calculations refer to:
   * S. Spicher and S. Grimme, J. Chem. Theory Comput., 2021, 17, 1701-1714
     DOI: 10.1021/acs.jctc.0c01306
   
   for ONIOM refer to:
   * C. Plett, A. Katbashev, S. Ehlert, S. Grimme, M. Bursch,
     Phys. Chem. Chem. Phys., 2023, 25, 17860-17868. DOI: 10.1039/D3CP02178E
   
   for DIPRO refer to:
   * J. Kohn, N. Gildemeister, S. Grimme, D. Fazzi, A. Hansen,
     J. Chem. Phys., 2023, just accepted.
   
   for PTB refer to:
   * S. Grimme, M. Mueller, A. Hansen, J. Chem. Phys., 2023, 158, 124111.
     DOI: 10.1063/5.0137838
   
   with help from (in alphabetical order)
   P. Atkinson, C. Bannwarth, F. Bohle, G. Brandenburg, E. Caldeweyher
   M. Checinski, S. Dohm, S. Ehlert, S. Ehrlich, I. Gerasimov, C. Hölzer
   A. Katbashev, J. Kohn, J. Koopman, C. Lavigne, S. Lehtola, F. März, M. Müller,
   F. Musil, H. Neugebauer, J. Pisarek, C. Plett, P. Pracht, F. Pultar,
   J. Seibert, P. Shushkov, S. Spicher, M. Stahn, M. Steiner, T. Strunk,
   J. Stückrath, T. Rose, and J. Unsleber
   
 * started run on 2024/12/10 at 13:59:44.780     
   ID    Z sym.   atoms
    1    6 C      1-9, 11, 12, 14-21, 23-31, 33, 34, 36-43, 47, 48, 50-73,
                  77, 81
    2    7 N      10, 13, 32, 35, 46, 49
    3    8 O      22, 44
    4    5 B      45
    5    1 H      74-76, 78-80, 82-151

           -------------------------------------------------
          |                Calculation Setup                |
           -------------------------------------------------

          program call               : xtb Base2tBu.mol --opt --gfn 2 --chrg 0 --uhf 1 --tight
          coordinate file            : Base2tBu.mol
          omp threads                :                     8

########################################################################
[WARNING] Please study the warnings concerning your input carefully
-1- prog_main_parseArguments: Unknown option '--tight' provided
########################################################################

           -------------------------------------------------
          |                 G F N 2 - x T B                 |
           -------------------------------------------------

        Reference                      10.1021/acs.jctc.8b01176
      * Hamiltonian:
        H0-scaling (s, p, d)           1.850000    2.230000    2.230000
        zeta-weighting                 0.500000
      * Dispersion:
        s8                             2.700000
        a1                             0.520000
        a2                             5.000000
        s9                             5.000000
      * Repulsion:
        kExp                           1.500000    1.000000
        rExp                           1.000000
      * Coulomb:
        alpha                          2.000000
        third order                    shell-resolved
        anisotropic                    true
        a3                             3.000000
        a5                             4.000000
        cn-shift                       1.200000
        cn-exp                         4.000000
        max-rad                        5.000000


          ...................................................
          :                      SETUP                      :
          :.................................................:
          :  # basis functions                 376          :
          :  # atomic orbitals                 376          :
          :  # shells                          226          :
          :  # electrons                       385          :
          :  max. iterations                   250          :
          :  Hamiltonian                  GFN2-xTB          :
          :  restarted?                      false          :
          :  GBSA solvation                  false          :
          :  PC potential                    false          :
          :  electronic temp.          300.0000000     K    :
          :  accuracy                    1.0000000          :
          :  -> integral cutoff          0.2500000E+02      :
          :  -> integral neglect         0.1000000E-07      :
          :  -> SCF convergence          0.1000000E-05 Eh   :
          :  -> wf. convergence          0.1000000E-03 e    :
          :  Broyden damping             0.4000000          :
          :  net charge                          0          :
          :  unpaired electrons                  1          :
          ...................................................

 iter      E             dE          RMSdq      gap      omega  full diag
   1   -209.4720945 -0.209472E+03  0.397E+00    0.02       0.0  T
   2   -209.0939442  0.378150E+00  0.262E+00    0.24       1.0  T
   3   -208.7104020  0.383542E+00  0.248E+00    0.34       1.0  T
   4   -209.2259001 -0.515498E+00  0.167E+00    0.34       1.0  T
   5   -208.3352546  0.890646E+00  0.184E+00    0.12       1.0  T
   6   -209.6846556 -0.134940E+01  0.946E-01    0.25       1.0  T
   7   -209.7962159 -0.111560E+00  0.615E-01    0.03       1.0  T
   8   -209.7349764  0.612395E-01  0.607E-01    0.23       1.0  T
   9   -209.7680722 -0.330958E-01  0.507E-01    0.12       1.0  T
  10   -209.8017141 -0.336419E-01  0.461E-01    0.06       1.0  T
  11   -209.8061527 -0.443866E-02  0.405E-01    0.02       1.0  T
  12   -209.8293253 -0.231726E-01  0.276E-01    0.03       1.0  T
  13   -209.8327271 -0.340176E-02  0.217E-01    0.02       1.0  T
  14   -209.8390182 -0.629108E-02  0.164E-01    0.03       1.0  T
  15   -209.8457021 -0.668388E-02  0.314E-02    0.03       1.0  T
  16   -209.8447679  0.934169E-03  0.575E-02    0.02       1.0  T
  17   -209.8457331 -0.965164E-03  0.269E-02    0.03       1.0  T
  18   -209.8458428 -0.109719E-03  0.127E-02    0.03       1.0  T
  19   -209.8458577 -0.149567E-04  0.129E-02    0.03       1.0  T
  20   -209.8458927 -0.350146E-04  0.666E-03    0.03       1.2  T
  21   -209.8459034 -0.106963E-04  0.142E-03    0.03       5.7  T
  22   -209.8459040 -0.544810E-06  0.411E-04    0.03      19.8  T
  23   -209.8459040 -0.363904E-07  0.253E-04    0.03      32.1  T

   *** convergence criteria satisfied after 23 iterations ***

         #    Occupation            Energy/Eh            Energy/eV
      -------------------------------------------------------------
         1        2.0000           -0.6732638             -18.3204
       ...           ...                  ...                  ...
       187        2.0000           -0.3579776              -9.7411
       188        2.0000           -0.3514873              -9.5645
       189        2.0000           -0.3466726              -9.4334
       190        1.9995           -0.3441169              -9.3639
       191        1.9554           -0.3398756              -9.2485
       192        1.8983           -0.3390424              -9.2258
       193        0.7466           -0.3348403              -9.1115 (HOMO)
       194        0.4002           -0.3337514              -9.0818 (LUMO)
       195                         -0.2784789              -7.5778
       196                         -0.2758805              -7.5071
       197                         -0.2437131              -6.6318
       198                         -0.2367906              -6.4434
       ...                                ...                  ...
       376                          0.7599982              20.6806
      -------------------------------------------------------------
                  HL-Gap            0.0010889 Eh            0.0296 eV
             Fermi-level           -0.3355892 Eh           -9.1318 eV

 SCC (total)                   0 d,  0 h,  0 min,  1.546 sec
 SCC setup                      ...        0 min,  0.002 sec (  0.104%)
 Dispersion                     ...        0 min,  0.003 sec (  0.185%)
 classical contributions        ...        0 min,  0.001 sec (  0.051%)
 integral evaluation            ...        0 min,  0.012 sec (  0.781%)
 iterations                     ...        0 min,  1.447 sec ( 93.631%)
 molecular gradient             ...        0 min,  0.073 sec (  4.749%)
 printout                       ...        0 min,  0.008 sec (  0.496%)

         :::::::::::::::::::::::::::::::::::::::::::::::::::::
         ::                     SUMMARY                     ::
         :::::::::::::::::::::::::::::::::::::::::::::::::::::
         :: total energy            -206.725982254779 Eh    ::
         :: gradient norm              0.394199179287 Eh/a0 ::
         :: HOMO-LUMO gap              0.029631653228 eV    ::
         ::.................................................::
         :: SCC energy              -209.839744389815 Eh    ::
         :: -> isotropic ES            0.158542647954 Eh    ::
         :: -> anisotropic ES          0.031605788462 Eh    ::
         :: -> anisotropic XC          0.124403651747 Eh    ::
         :: -> dispersion             -0.221880717231 Eh    ::
         :: repulsion energy           3.113762135036 Eh    ::
         :: add. restraining           0.000000000000 Eh    ::
         :: total charge               0.000000000001 e     ::
         :::::::::::::::::::::::::::::::::::::::::::::::::::::

      ----------------------------------------------------------- 
     |                   =====================                   |
     |                        A N C O P T                        |
     |                   =====================                   |
     |               Approximate Normal Coordinate               |
     |                Rational Function Optimizer                |
      ----------------------------------------------------------- 
      ----------------------------------------------------------- 
     |                   =====================                   |
     |                        A N C O P T                        |
     |                   =====================                   |
     |               Approximate Normal Coordinate               |
     |                Rational Function Optimizer                |
      ----------------------------------------------------------- 

          ...................................................
          :                      SETUP                      :
          :.................................................:
          :   optimization level            normal          :
          :   max. optcycles                   453          :
          :   ANC micro-cycles                  20          :
          :   degrees of freedom               447          :
          :.................................................:
          :   RF solver                   davidson          :
          :   write xtbopt.log                true          :
          :   linear?                        false          :
          :   energy convergence         0.5000000E-05 Eh   :
          :   grad. convergence          0.1000000E-02 Eh/α :
          :   maxmium RF displ.          1.0000000          :
          :   Hlow (freq-cutoff)         0.1000000E-01      :
          :   Hmax (freq-cutoff)         5.0000000          :
          :   S6 in model hess.         20.0000000          :
          ...................................................

generating ANC from exact Hessian ...
Using Lindh-Hessian (1995)
 Shifting diagonal of input Hessian by    1.1837049109862751E-002
 Lowest  eigenvalues of input Hessian
    0.010000    0.010510    0.010633    0.011681    0.011790    0.000000
    0.000000    0.000000    0.000000    0.000000    0.000000    0.011865
    0.011952    0.011963    0.012026    0.012125    0.012180    0.012242
 Highest eigenvalues
    2.075144    2.116960    2.203951    2.229870    2.242611    2.301365


........................................................................
.............................. CYCLE    1 ..............................
........................................................................

 iter      E             dE          RMSdq      gap      omega  full diag
   1   -209.8459040 -0.209846E+03  0.185E-04    0.03       0.0  T
   2   -209.8459019  0.217284E-05  0.252E-03    0.03       3.2  T
   3   -209.8459039 -0.208141E-05  0.502E-04    0.03      16.2  T
   4   -209.8459040 -0.934324E-07  0.169E-04    0.03      48.1  T
   5   -209.8459040  0.714067E-09  0.151E-04    0.03      53.8  T
     SCC iter.                  ...        0 min,  0.293 sec
     gradient                   ...        0 min,  0.074 sec
 * total energy  :  -206.7259823 Eh     change       -0.8767131E-08 Eh
   gradient norm :     0.3941932 Eh/α   predicted     0.0000000E+00 (-100.00%)
   displ. norm   :     0.6633812 α      lambda       -0.1934748E+00
   maximum displ.:     0.2166826 α      in ANC's #190, #191, #193, ...

........................................................................
.............................. CYCLE    2 ..............................
........................................................................

 iter      E             dE          RMSdq      gap      omega  full diag
   1   -209.9923633 -0.209992E+03  0.294E-01    0.03       0.0  T
   2   -209.9808997  0.114636E-01  0.292E-01    0.03       1.0  T
   3   -209.6965796  0.284320E+00  0.110E+00    0.23       1.0  T
   4   -209.9506185 -0.254039E+00  0.369E-01    0.13       1.0  T
   5   -209.8667742  0.838442E-01  0.583E-01    0.18       1.0  T
   6   -209.9560444 -0.892701E-01  0.345E-01    0.08       1.0  T
   7   -209.9838690 -0.278247E-01  0.187E-01    0.01       1.0  T
   8   -209.9930884 -0.921940E-02  0.867E-02    0.03       1.0  T
   9   -209.9943619 -0.127347E-02  0.535E-02    0.03       1.0  T
  10   -209.9947102 -0.348308E-03  0.404E-02    0.03       1.0  T
  11   -209.9950907 -0.380507E-03  0.147E-02    0.03       1.0  T
  12   -209.9951439 -0.531329E-04  0.539E-03    0.03       1.5  T
  13   -209.9951513 -0.746316E-05  0.310E-03    0.03       2.6  T
  14   -209.9951539 -0.262306E-05  0.864E-04    0.03       9.4  T
  15   -209.9951540 -0.403153E-07  0.495E-04    0.03      16.4  T
  16   -209.9951540 -0.424913E-07  0.334E-04    0.03      24.4  T
     SCC iter.                  ...        0 min,  0.994 sec
     gradient                   ...        0 min,  0.071 sec
 * total energy  :  -206.8765460 Eh     change       -0.1505637E+00 Eh
   gradient norm :     0.2205724 Eh/α   predicted    -0.1394533E+00 (  -7.38%)
   displ. norm   :     0.6592076 α      lambda       -0.1087641E+00
   maximum displ.:     0.1272199 α      in ANC's #190, #95, #88, ...

........................................................................
.............................. CYCLE    3 ..............................
........................................................................

 iter      E             dE          RMSdq      gap      omega  full diag
   1   -210.1185034 -0.210119E+03  0.253E-01    0.03       0.0  T
   2   -210.0770628  0.414406E-01  0.370E-01    0.15       1.0  T
   3   -209.9345593  0.142504E+00  0.730E-01    0.10       1.0  T
   4   -210.0917454 -0.157186E+00  0.338E-01    0.05       1.0  T
   5   -210.0743810  0.173644E-01  0.394E-01    0.15       1.0  T
   6   -210.0899697 -0.155887E-01  0.308E-01    0.04       1.0  T
   7   -210.1196771 -0.297075E-01  0.615E-02    0.04       1.0  T
   8   -210.1191643  0.512824E-03  0.664E-02    0.04       1.0  T
   9   -210.1203134 -0.114909E-02  0.231E-02    0.04       1.0  T
  10   -210.1203751 -0.616642E-04  0.155E-02    0.04       1.0  T
  11   -210.1204270 -0.519466E-04  0.524E-03    0.04       1.6  T
  12   -210.1204274 -0.365676E-06  0.406E-03    0.04       2.0  T
  13   -210.1204322 -0.481266E-05  0.130E-03    0.04       6.3  T
  14   -210.1204318  0.381973E-06  0.150E-03    0.04       5.4  T
  15   -210.1204325 -0.728114E-06  0.662E-04    0.04      12.3  T
  16   -210.1204327 -0.129287E-06  0.988E-05    0.04      82.4  T
     SCC iter.                  ...        0 min,  0.953 sec
     gradient                   ...        0 min,  0.082 sec
 * total energy  :  -206.9550568 Eh     change       -0.7851079E-01 Eh
   gradient norm :     0.0883515 Eh/α   predicted    -0.7801430E-01 (  -0.63%)
   displ. norm   :     0.7531743 α      lambda       -0.5166256E-01
   maximum displ.:     0.1891143 α      in ANC's #37, #30, #26, ...

........................................................................
.............................. CYCLE    4 ..............................
........................................................................

 iter      E             dE          RMSdq      gap      omega  full diag
   1   -210.1858359 -0.210186E+03  0.205E-01    0.04       0.0  T
   2   -210.0870053  0.988306E-01  0.648E-01    0.12       1.0  T
   3   -210.1727828 -0.857776E-01  0.239E-01    0.03       1.0  T
   4   -210.0491970  0.123586E+00  0.696E-01    0.08       1.0  T
   5   -210.1673439 -0.118147E+00  0.234E-01    0.03       1.0  T
   6   -210.1632580  0.408589E-02  0.251E-01    0.12       1.0  T
   7   -210.1825349 -0.192769E-01  0.119E-01    0.03       1.0  T
   8   -210.1847643 -0.222945E-02  0.845E-02    0.04       1.0  T
   9   -210.1860410 -0.127668E-02  0.511E-02    0.04       1.0  T
  10   -210.1863808 -0.339736E-03  0.381E-02    0.04       1.0  T
  11   -210.1866608 -0.280010E-03  0.198E-02    0.04       1.0  T
  12   -210.1867350 -0.741847E-04  0.106E-02    0.04       1.0  T
  13   -210.1867630 -0.280491E-04  0.342E-03    0.04       2.4  T
  14   -210.1867661 -0.311004E-05  0.127E-03    0.04       6.4  T
  15   -210.1867663 -0.198877E-06  0.922E-04    0.04       8.8  T
  16   -210.1867665 -0.209250E-06  0.318E-04    0.04      25.6  T
     SCC iter.                  ...        0 min,  0.901 sec
     gradient                   ...        0 min,  0.069 sec
 * total energy  :  -206.9978928 Eh     change       -0.4283604E-01 Eh
   gradient norm :     0.0557892 Eh/α   predicted    -0.4048515E-01 (  -5.49%)
   displ. norm   :     0.8408464 α      lambda       -0.3890597E-01
   maximum displ.:     0.2434759 α      in ANC's #30, #26, #37, ...

........................................................................
.............................. CYCLE    5 ..............................
........................................................................

 iter      E             dE          RMSdq      gap      omega  full diag
   1   -210.2341605 -0.210234E+03  0.178E-01    0.05       0.0  T
   2   -210.0576600  0.176501E+00  0.833E-01    0.10       1.0  T
   3   -210.2244835 -0.166824E+00  0.204E-01    0.06       1.0  T
   4   -210.1695598  0.549237E-01  0.462E-01    0.07       1.0  T
   5   -210.1420347  0.275250E-01  0.512E-01    0.15       1.0  T
   6   -210.2272671 -0.852323E-01  0.150E-01    0.03       1.0  T
   7   -210.2341545 -0.688739E-02  0.677E-02    0.05       1.0  T
   8   -210.2346615 -0.507019E-03  0.499E-02    0.04       1.0  T
   9   -210.2352051 -0.543619E-03  0.261E-02    0.05       1.0  T
  10   -210.2353456 -0.140469E-03  0.121E-02    0.05       1.0  T
  11   -210.2353713 -0.256943E-04  0.421E-03    0.05       1.9  T
  12   -210.2353763 -0.503912E-05  0.787E-04    0.05      10.3  T
  13   -210.2353759  0.342796E-06  0.133E-03    0.05       6.1  T
  14   -210.2353764 -0.429272E-06  0.390E-04    0.05      20.9  T
  15   -210.2353764 -0.171891E-07  0.213E-04    0.05      38.2  T
     SCC iter.                  ...        0 min,  0.874 sec
     gradient                   ...        0 min,  0.072 sec
 * total energy  :  -207.0323271 Eh     change       -0.3443434E-01 Eh
   gradient norm :     0.0482569 Eh/α   predicted    -0.3320671E-01 (  -3.57%)
   displ. norm   :     0.8809151 α      lambda       -0.3326831E-01
   maximum displ.:     0.2728280 α      in ANC's #30, #37, #26, ...

........................................................................
.............................. CYCLE    6 ..............................
........................................................................

 iter      E             dE          RMSdq      gap      omega  full diag
   1   -210.2785304 -0.210279E+03  0.164E-01    0.05       0.0  T
   2   -210.1223217  0.156209E+00  0.789E-01    0.11       1.0  T
   3   -210.2721526 -0.149831E+00  0.173E-01    0.06       1.0  T
   4   -210.2104044  0.617482E-01  0.464E-01    0.08       1.0  T
   5   -210.1943841  0.160203E-01  0.489E-01    0.15       1.0  T
   6   -210.2703943 -0.760101E-01  0.157E-01    0.03       1.0  T
   7   -210.2787939 -0.839960E-02  0.536E-02    0.05       1.0  T
   8   -210.2789436 -0.149772E-03  0.443E-02    0.05       1.0  T
   9   -210.2793715 -0.427897E-03  0.225E-02    0.05       1.0  T
  10   -210.2794856 -0.114093E-03  0.936E-03    0.05       1.0  T
  11   -210.2794846  0.992934E-06  0.855E-03    0.05       1.0  T
  12   -210.2795035 -0.188781E-04  0.224E-03    0.05       3.6  T
  13   -210.2795049 -0.134711E-05  0.683E-04    0.05      11.9  T
  14   -210.2795049 -0.465096E-07  0.430E-04    0.05      18.9  T
  15   -210.2795049 -0.344984E-07  0.172E-04    0.05      47.2  T
     SCC iter.                  ...        0 min,  0.905 sec
     gradient                   ...        0 min,  0.073 sec
 * total energy  :  -207.0615483 Eh     change       -0.2922117E-01 Eh
   gradient norm :     0.0441302 Eh/α   predicted    -0.2954244E-01 (   1.10%)
   displ. norm   :     0.9074348 α      lambda       -0.2946732E-01
   maximum displ.:     0.2698672 α      in ANC's #30, #26, #46, ...

........................................................................
.............................. CYCLE    7 ..............................
........................................................................

 iter      E             dE          RMSdq      gap      omega  full diag
   1   -210.3025244 -0.210303E+03  0.146E-01    0.05       0.0  T
   2   -210.2170552  0.854691E-01  0.565E-01    0.06       1.0  T
   3   -210.2946679 -0.776127E-01  0.176E-01    0.06       1.0  T
   4   -210.2375725  0.570954E-01  0.454E-01    0.07       1.0  T
   5   -210.2381778 -0.605262E-03  0.435E-01    0.12       1.0  T
   6   -210.2945858 -0.564081E-01  0.154E-01    0.03       1.0  T
   7   -210.3023414 -0.775558E-02  0.560E-02    0.04       1.0  T
   8   -210.3025977 -0.256252E-03  0.431E-02    0.05       1.0  T
   9   -210.3029827 -0.385033E-03  0.233E-02    0.05       1.0  T
  10   -210.3031139 -0.131215E-03  0.796E-03    0.05       1.0  T
  11   -210.3031171 -0.320999E-05  0.653E-03    0.05       1.2  T
  12   -210.3031270 -0.983988E-05  0.242E-03    0.05       3.4  T
  13   -210.3031286 -0.162557E-05  0.751E-04    0.05      10.8  T
  14   -210.3031287 -0.932859E-07  0.404E-04    0.05      20.1  T
  15   -210.3031287 -0.383219E-07  0.156E-04    0.05      52.2  T
     SCC iter.                  ...        0 min,  0.856 sec
     gradient                   ...        0 min,  0.074 sec
 * total energy  :  -207.0856098 Eh     change       -0.2406148E-01 Eh
   gradient norm :     0.0504642 Eh/α   predicted    -0.2686594E-01 (  11.66%)
   displ. norm   :     0.8489756 α      lambda       -0.2353827E-01
   maximum displ.:     0.2709456 α      in ANC's #30, #26, #37, ...

........................................................................
.............................. CYCLE    8 ..............................
........................................................................

 iter      E             dE          RMSdq      gap      omega  full diag
   1   -210.3338490 -0.210334E+03  0.121E-01    0.04       0.0  T
   2   -210.3214233  0.124257E-01  0.222E-01    0.08       1.0  T
   3   -210.3102658  0.111575E-01  0.272E-01    0.05       1.0  T
   4   -210.2502788  0.599869E-01  0.486E-01    0.15       1.0  T
   5   -210.3300531 -0.797742E-01  0.100E-01    0.04       1.0  T
   6   -210.3313553 -0.130226E-02  0.948E-02    0.05       1.0  T
   7   -210.3334029 -0.204760E-02  0.489E-02    0.04       1.0  T
   8   -210.3334657 -0.627930E-04  0.432E-02    0.05       1.0  T
   9   -210.3339778 -0.512130E-03  0.122E-02    0.05       1.0  T
  10   -210.3340125 -0.346476E-04  0.346E-03    0.05       2.4  T
  11   -210.3340145 -0.200382E-05  0.199E-03    0.05       4.1  T
  12   -210.3340156 -0.106840E-05  0.392E-04    0.05      20.8  T
  13   -210.3340156 -0.182779E-07  0.252E-04    0.05      32.3  T
  14   -210.3340156 -0.362797E-08  0.188E-04    0.05      43.4  T
     SCC iter.                  ...        0 min,  0.891 sec
     gradient                   ...        0 min,  0.075 sec
 * total energy  :  -207.1056443 Eh     change       -0.2003450E-01 Eh
   gradient norm :     0.0319891 Eh/α   predicted    -0.2025185E-01 (   1.08%)
   displ. norm   :     0.8434956 α      lambda       -0.1760572E-01
   maximum displ.:     0.2475209 α      in ANC's #30, #26, #21, ...

........................................................................
.............................. CYCLE    9 ..............................
........................................................................

 iter      E             dE          RMSdq      gap      omega  full diag
   1   -210.3575395 -0.210358E+03  0.105E-01    0.04       0.0  T
   2   -210.3567326  0.806946E-03  0.808E-02    0.05       1.0  T
   3   -210.2979360  0.587966E-01  0.417E-01    0.06       1.0  T
   4   -210.3265446 -0.286085E-01  0.309E-01    0.09       1.0  T
   5   -210.3468812 -0.203367E-01  0.172E-01    0.04       1.0  T
   6   -210.3544512 -0.756999E-02  0.106E-01    0.06       1.0  T
   7   -210.3574763 -0.302508E-02  0.228E-02    0.04       1.0  T
   8   -210.3575211 -0.447986E-04  0.170E-02    0.04       1.0  T
   9   -210.3575962 -0.750941E-04  0.543E-03    0.04       1.5  T
  10   -210.3576018 -0.561670E-05  0.253E-03    0.04       3.2  T
  11   -210.3576025 -0.649680E-06  0.141E-03    0.04       5.8  T
  12   -210.3576030 -0.526837E-06  0.736E-04    0.04      11.1  T
  13   -210.3576031 -0.148258E-06  0.204E-04    0.04      39.9  T
     SCC iter.                  ...        0 min,  0.787 sec
     gradient                   ...        0 min,  0.077 sec
 * total energy  :  -207.1210189 Eh     change       -0.1537462E-01 Eh
   gradient norm :     0.0264532 Eh/α   predicted    -0.1506596E-01 (  -2.01%)
   displ. norm   :     0.8297622 α      lambda       -0.1372556E-01
   maximum displ.:     0.2373971 α      in ANC's #26, #30, #21, ...

........................................................................
.............................. CYCLE   10 ..............................
........................................................................

 iter      E             dE          RMSdq      gap      omega  full diag
   1   -210.3753527 -0.210375E+03  0.932E-02    0.04       0.0  T
   2   -210.3694446  0.590809E-02  0.153E-01    0.03       1.0  T
   3   -210.3484934  0.209512E-01  0.311E-01    0.08       1.0  T
   4   -210.3242389  0.242545E-01  0.360E-01    0.07       1.0  T
   5   -210.3709719 -0.467330E-01  0.124E-01    0.05       1.0  T
   6   -210.3742916 -0.331971E-02  0.639E-02    0.04       1.0  T
   7   -210.3746333 -0.341649E-03  0.553E-02    0.04       1.0  T
   8   -210.3752012 -0.567885E-03  0.310E-02    0.04       1.0  T
   9   -210.3754085 -0.207317E-03  0.133E-02    0.04       1.0  T
  10   -210.3754450 -0.364858E-04  0.512E-03    0.04       1.6  T
  11   -210.3754509 -0.589768E-05  0.122E-03    0.04       6.7  T
  12   -210.3754510 -0.999810E-07  0.103E-03    0.04       7.9  T
  13   -210.3754512 -0.242981E-06  0.348E-04    0.04      23.4  T
  14   -210.3754512 -0.251590E-07  0.134E-04    0.04      60.8  T
     SCC iter.                  ...        0 min,  0.773 sec
     gradient                   ...        0 min,  0.072 sec
 * total energy  :  -207.1328448 Eh     change       -0.1182586E-01 Eh
   gradient norm :     0.0202918 Eh/α   predicted    -0.1158783E-01 (  -2.01%)
   displ. norm   :     0.8201895 α      lambda       -0.1044358E-01
   maximum displ.:     0.2449407 α      in ANC's #21, #26, #30, ...

........................................................................
.............................. CYCLE   11 ..............................
........................................................................

 iter      E             dE          RMSdq      gap      omega  full diag
   1   -210.3914617 -0.210391E+03  0.879E-02    0.04       0.0  T
   2   -210.3816201  0.984157E-02  0.173E-01    0.03       1.0  T
   3   -210.3665811  0.150391E-01  0.262E-01    0.10       1.0  T
   4   -210.3566976  0.988345E-02  0.327E-01    0.04       1.0  T
   5   -210.3867024 -0.300048E-01  0.131E-01    0.04       1.0  T
   6   -210.3910670 -0.436456E-02  0.417E-02    0.04       1.0  T
   7   -210.3913458 -0.278769E-03  0.270E-02    0.04       1.0  T
   8   -210.3914224 -0.766668E-04  0.203E-02    0.04       1.0  T
   9   -210.3915186 -0.961873E-04  0.932E-03    0.04       1.0  T
  10   -210.3915383 -0.196410E-04  0.310E-03    0.04       2.6  T
  11   -210.3915405 -0.218898E-05  0.100E-03    0.04       8.1  T
  12   -210.3915407 -0.274351E-06  0.534E-04    0.04      15.2  T
  13   -210.3915408 -0.680287E-07  0.206E-04    0.04      39.6  T
     SCC iter.                  ...        0 min,  0.712 sec
     gradient                   ...        0 min,  0.072 sec
 * total energy  :  -207.1416938 Eh     change       -0.8849071E-02 Eh
   gradient norm :     0.0158793 Eh/α   predicted    -0.8734541E-02 (  -1.29%)
   displ. norm   :     0.8293603 α      lambda       -0.8328062E-02
   maximum displ.:     0.2561832 α      in ANC's #21, #15, #26, ...

........................................................................
.............................. CYCLE   12 ..............................
........................................................................

 iter      E             dE          RMSdq      gap      omega  full diag
   1   -210.3917058 -0.210392E+03  0.910E-02    0.04       0.0  T
   2   -210.3699426  0.217633E-01  0.245E-01    0.05       1.0  T
   3   -210.3739628 -0.402018E-02  0.219E-01    0.09       1.0  T
   4   -210.3644711  0.949162E-02  0.296E-01    0.04       1.0  T
   5   -210.3873140 -0.228429E-01  0.127E-01    0.04       1.0  T
   6   -210.3911287 -0.381462E-02  0.531E-02    0.04       1.0  T
   7   -210.3916213 -0.492646E-03  0.303E-02    0.04       1.0  T
   8   -210.3917403 -0.118958E-03  0.210E-02    0.04       1.0  T
   9   -210.3918483 -0.107995E-03  0.889E-03    0.04       1.0  T
  10   -210.3918679 -0.196430E-04  0.233E-03    0.04       3.5  T
  11   -210.3918690 -0.112949E-05  0.991E-04    0.04       8.2  T
  12   -210.3918689  0.111520E-06  0.102E-03    0.04       8.0  T
  13   -210.3918693 -0.347048E-06  0.282E-04    0.04      28.8  T
  14   -210.3918693 -0.131005E-07  0.152E-04    0.04      53.7  T
     SCC iter.                  ...        0 min,  0.842 sec
     gradient                   ...        0 min,  0.074 sec
 * total energy  :  -207.1479426 Eh     change       -0.6248726E-02 Eh
   gradient norm :     0.0284893 Eh/α   predicted    -0.7028209E-02 (  12.47%)
   displ. norm   :     0.7695800 α      lambda       -0.7548059E-02
   maximum displ.:     0.2315310 α      in ANC's #21, #11, #26, ...

........................................................................
.............................. CYCLE   13 ..............................
........................................................................

 iter      E             dE          RMSdq      gap      omega  full diag
   1   -210.4076872 -0.210408E+03  0.852E-02    0.04       0.0  T
   2   -210.3797815  0.279058E-01  0.272E-01    0.04       1.0  T
   3   -210.3952544 -0.154729E-01  0.184E-01    0.08       1.0  T
   4   -210.3873040  0.795034E-02  0.267E-01    0.05       1.0  T
   5   -210.4061560 -0.188520E-01  0.825E-02    0.04       1.0  T
   6   -210.4054921  0.663852E-03  0.912E-02    0.04       1.0  T
   7   -210.4077118 -0.221970E-02  0.242E-02    0.04       1.0  T
   8   -210.4077839 -0.720454E-04  0.171E-02    0.04       1.0  T
   9   -210.4078612 -0.773440E-04  0.655E-03    0.04       1.2  T
  10   -210.4078680 -0.682576E-05  0.368E-03    0.04       2.2  T
  11   -210.4078720 -0.391140E-05  0.845E-04    0.04       9.6  T
  12   -210.4078720 -0.645228E-07  0.621E-04    0.04      13.1  T
  13   -210.4078721 -0.129296E-06  0.135E-04    0.04      60.5  T
     SCC iter.                  ...        0 min,  0.715 sec
     gradient                   ...        0 min,  0.074 sec
 * total energy  :  -207.1532857 Eh     change       -0.5343106E-02 Eh
   gradient norm :     0.0230777 Eh/α   predicted    -0.6009210E-02 (  12.47%)
   displ. norm   :     0.7497326 α      lambda       -0.5592812E-02
   maximum displ.:     0.2257329 α      in ANC's #21, #15, #11, ...

........................................................................
.............................. CYCLE   14 ..............................
........................................................................

 iter      E             dE          RMSdq      gap      omega  full diag
   1   -210.4079779 -0.210408E+03  0.862E-02    0.04       0.0  T
   2   -210.3735637  0.344141E-01  0.319E-01    0.03       1.0  T
   3   -210.4010737 -0.275100E-01  0.143E-01    0.07       1.0  T
   4   -210.3768311  0.242426E-01  0.308E-01    0.06       1.0  T
   5   -210.3841828 -0.735170E-02  0.271E-01    0.06       1.0  T
   6   -210.4072806 -0.230978E-01  0.592E-02    0.04       1.0  T
   7   -210.4078869 -0.606276E-03  0.344E-02    0.04       1.0  T
   8   -210.4080742 -0.187287E-03  0.215E-02    0.04       1.0  T
   9   -210.4081752 -0.101035E-03  0.106E-02    0.04       1.0  T
  10   -210.4082028 -0.275886E-04  0.267E-03    0.04       3.0  T
  11   -210.4082047 -0.187144E-05  0.103E-03    0.04       7.9  T
  12   -210.4082050 -0.270384E-06  0.370E-04    0.04      22.0  T
  13   -210.4082050 -0.180537E-07  0.278E-04    0.04      29.3  T
     SCC iter.                  ...        0 min,  0.717 sec
     gradient                   ...        0 min,  0.076 sec
 * total energy  :  -207.1571908 Eh     change       -0.3905155E-02 Eh
   gradient norm :     0.0301015 Eh/α   predicted    -0.4368274E-02 (  11.86%)
   displ. norm   :     0.7188069 α      lambda       -0.5622231E-02
   maximum displ.:     0.2107038 α      in ANC's #21, #2, #15, ...

........................................................................
.............................. CYCLE   15 ..............................
........................................................................

 iter      E             dE          RMSdq      gap      omega  full diag
   1   -210.4047389 -0.210405E+03  0.869E-02    0.04       0.0  T
   2   -210.3664375  0.383014E-01  0.332E-01    0.03       1.0  T
   3   -210.3965524 -0.301149E-01  0.154E-01    0.07       1.0  T
   4   -210.3783501  0.182023E-01  0.288E-01    0.05       1.0  T
   5   -210.3785936 -0.243442E-03  0.285E-01    0.06       1.0  T
   6   -210.4040220 -0.254285E-01  0.606E-02    0.04       1.0  T
   7   -210.4046417 -0.619662E-03  0.362E-02    0.04       1.0  T
   8   -210.4048519 -0.210172E-03  0.229E-02    0.04       1.0  T
   9   -210.4049737 -0.121784E-03  0.972E-03    0.04       1.0  T
  10   -210.4049963 -0.226727E-04  0.227E-03    0.04       3.6  T
  11   -210.4049978 -0.147140E-05  0.103E-03    0.04       7.9  T
  12   -210.4049981 -0.254419E-06  0.343E-04    0.04      23.8  T
  13   -210.4049981 -0.924845E-08  0.299E-04    0.04      27.2  T
     SCC iter.                  ...        0 min,  0.923 sec
     gradient                   ...        0 min,  0.070 sec
 * total energy  :  -207.1605859 Eh     change       -0.3395081E-02 Eh
   gradient norm :     0.0239677 Eh/α   predicted    -0.4263578E-02 (  25.58%)
   displ. norm   :     0.6513707 α      lambda       -0.4855684E-02
   maximum displ.:     0.1836800 α      in ANC's #15, #21, #11, ...

........................................................................
.............................. CYCLE   16 ..............................
........................................................................

 iter      E             dE          RMSdq      gap      omega  full diag
   1   -210.4151065 -0.210415E+03  0.783E-02    0.04       0.0  T
   2   -210.3710526  0.440538E-01  0.342E-01    0.04       1.0  T
   3   -210.4093720 -0.383193E-01  0.129E-01    0.07       1.0  T
   4   -210.3963319  0.130401E-01  0.253E-01    0.04       1.0  T
   5   -210.4038521 -0.752021E-02  0.194E-01    0.05       1.0  T
   6   -210.4150431 -0.111910E-01  0.336E-02    0.04       1.0  T
   7   -210.4151351 -0.920626E-04  0.264E-02    0.04       1.0  T
   8   -210.4152558 -0.120693E-03  0.164E-02    0.04       1.0  T
   9   -210.4153225 -0.666339E-04  0.608E-03    0.04       1.3  T
  10   -210.4153295 -0.707552E-05  0.276E-03    0.04       2.9  T
  11   -210.4153312 -0.169703E-05  0.819E-04    0.04       9.9  T
  12   -210.4153315 -0.248871E-06  0.159E-04    0.04      51.2  T
  13   -210.4153315  0.441975E-08  0.175E-04    0.04      46.5  T
     SCC iter.                  ...        0 min,  0.817 sec
     gradient                   ...        0 min,  0.075 sec
 * total energy  :  -207.1638602 Eh     change       -0.3274339E-02 Eh
   gradient norm :     0.0206291 Eh/α   predicted    -0.3457939E-02 (   5.61%)
   displ. norm   :     0.6864602 α      lambda       -0.4136422E-02
   maximum displ.:     0.2482997 α      in ANC's #11, #15, #8, ...

........................................................................
.............................. CYCLE   17 ..............................
........................................................................

 iter      E             dE          RMSdq      gap      omega  full diag
   1   -210.4180201 -0.210418E+03  0.784E-02    0.04       0.0  T
   2   -210.3814720  0.365481E-01  0.311E-01    0.04       1.0  T
   3   -210.4099864 -0.285145E-01  0.149E-01    0.07       1.0  T
   4   -210.4014213  0.856511E-02  0.240E-01    0.04       1.0  T
   5   -210.4083351 -0.691374E-02  0.182E-01    0.05       1.0  T
   6   -210.4177989 -0.946382E-02  0.413E-02    0.04       1.0  T
   7   -210.4180678 -0.268947E-03  0.239E-02    0.04       1.0  T
   8   -210.4181336 -0.657594E-04  0.175E-02    0.04       1.0  T
   9   -210.4182152 -0.815991E-04  0.603E-03    0.04       1.3  T
  10   -210.4182232 -0.801300E-05  0.204E-03    0.04       4.0  T
  11   -210.4182240 -0.822668E-06  0.810E-04    0.04      10.1  T
  12   -210.4182242 -0.216781E-06  0.253E-04    0.04      32.2  T
     SCC iter.                  ...        0 min,  0.684 sec
     gradient                   ...        0 min,  0.071 sec
 * total energy  :  -207.1667452 Eh     change       -0.2884913E-02 Eh
   gradient norm :     0.0173376 Eh/α   predicted    -0.3042815E-02 (   5.47%)
   displ. norm   :     0.7283180 α      lambda       -0.3235258E-02
   maximum displ.:     0.2377292 α      in ANC's #15, #11, #2, ...

........................................................................
.............................. CYCLE   18 ..............................
........................................................................

 iter      E             dE          RMSdq      gap      omega  full diag
   1   -210.4149935 -0.210415E+03  0.776E-02    0.04       0.0  T
   2   -210.3949264  0.200671E-01  0.248E-01    0.03       1.0  T
   3   -210.4084166 -0.134902E-01  0.137E-01    0.06       1.0  T
   4   -210.3797211  0.286954E-01  0.318E-01    0.07       1.0  T
   5   -210.4046557 -0.249346E-01  0.177E-01    0.05       1.0  T
   6   -210.4143428 -0.968711E-02  0.547E-02    0.04       1.0  T
   7   -210.4149369 -0.594065E-03  0.270E-02    0.04       1.0  T
   8   -210.4150167 -0.797694E-04  0.196E-02    0.04       1.0  T
   9   -210.4151160 -0.992866E-04  0.631E-03    0.04       1.3  T
  10   -210.4151261 -0.101378E-04  0.159E-03    0.04       5.1  T
  11   -210.4151265 -0.454989E-06  0.657E-04    0.04      12.4  T
  12   -210.4151266 -0.105709E-06  0.437E-04    0.04      18.6  T
     SCC iter.                  ...        0 min,  0.754 sec
     gradient                   ...        0 min,  0.072 sec
 * total energy  :  -207.1691235 Eh     change       -0.2378367E-02 Eh
   gradient norm :     0.0168381 Eh/α   predicted    -0.2475704E-02 (   4.09%)
   displ. norm   :     0.7272202 α      lambda       -0.2799177E-02
   maximum displ.:     0.2329509 α      in ANC's #15, #11, #8, ...

........................................................................
.............................. CYCLE   19 ..............................
........................................................................

 iter      E             dE          RMSdq      gap      omega  full diag
   1   -210.4175505 -0.210418E+03  0.676E-02    0.04       0.0  T
   2   -210.3854930  0.320575E-01  0.287E-01    0.05       1.0  T
   3   -210.4143628 -0.288698E-01  0.987E-02    0.06       1.0  T
   4   -210.4040781  0.102847E-01  0.218E-01    0.04       1.0  T
   5   -210.4151771 -0.110990E-01  0.915E-02    0.05       1.0  T
   6   -210.4170258 -0.184869E-02  0.484E-02    0.04       1.0  T
   7   -210.4176487 -0.622870E-03  0.142E-02    0.04       1.0  T
   8   -210.4176795 -0.307723E-04  0.963E-03    0.04       1.0  T
   9   -210.4177026 -0.231342E-04  0.311E-03    0.04       2.6  T
  10   -210.4177054 -0.279965E-05  0.131E-03    0.04       6.2  T
  11   -210.4177058 -0.385728E-06  0.394E-04    0.04      20.7  T
  12   -210.4177058 -0.301374E-07  0.246E-04    0.04      33.0  T
     SCC iter.                  ...        0 min,  0.696 sec
     gradient                   ...        0 min,  0.071 sec
 * total energy  :  -207.1713408 Eh     change       -0.2217249E-02 Eh
   gradient norm :     0.0142816 Eh/α   predicted    -0.2139763E-02 (  -3.49%)
   displ. norm   :     0.7303104 α      lambda       -0.2438557E-02
   maximum displ.:     0.2413323 α      in ANC's #15, #11, #18, ...

........................................................................
.............................. CYCLE   20 ..............................
........................................................................

 iter      E             dE          RMSdq      gap      omega  full diag
   1   -210.4242522 -0.210424E+03  0.653E-02    0.04       0.0  T
   2   -210.4017114  0.225408E-01  0.252E-01    0.05       1.0  T
   3   -210.4174870 -0.157756E-01  0.135E-01    0.07       1.0  T
   4   -210.3909176  0.265694E-01  0.335E-01    0.03       1.0  T
   5   -210.4230902 -0.321727E-01  0.661E-02    0.04       1.0  T
   6   -210.4239415 -0.851263E-03  0.407E-02    0.04       1.0  T
   7   -210.4241675 -0.225985E-03  0.292E-02    0.04       1.0  T
   8   -210.4243202 -0.152739E-03  0.169E-02    0.04       1.0  T
   9   -210.4243902 -0.699855E-04  0.640E-03    0.04       1.3  T
  10   -210.4243952 -0.501016E-05  0.448E-03    0.04       1.8  T
  11   -210.4243996 -0.439292E-05  0.163E-03    0.04       5.0  T
  12   -210.4244002 -0.558209E-06  0.667E-04    0.04      12.2  T
  13   -210.4244002 -0.724986E-07  0.319E-04    0.04      25.5  T
     SCC iter.                  ...        0 min,  0.757 sec
     gradient                   ...        0 min,  0.121 sec
 * total energy  :  -207.1733691 Eh     change       -0.2028290E-02 Eh
   gradient norm :     0.0140016 Eh/α   predicted    -0.1869589E-02 (  -7.82%)
   displ. norm   :     0.7603286 α      lambda       -0.2408928E-02
   maximum displ.:     0.2573649 α      in ANC's #18, #15, #11, ...
 * RMSD in coord.:     0.9614441 α      energy gain  -0.4473868E+00 Eh

generating ANC from exact Hessian ...
Using Lindh-Hessian (1995)
 Shifting diagonal of input Hessian by    1.0616378075787438E-002
 Lowest  eigenvalues of input Hessian
    0.010000    0.010492    0.000000    0.000000    0.000000    0.000000
    0.000000    0.000000    0.010650    0.010706    0.010775    0.010812
    0.010908    0.011005    0.011032    0.011069    0.011205    0.011257
 Highest eigenvalues
    2.078109    2.086017    2.187195    2.188099    2.197772    2.210941


........................................................................
.............................. CYCLE   21 ..............................
........................................................................

 iter      E             dE          RMSdq      gap      omega  full diag
   1   -210.4295225 -0.210430E+03  0.732E-02    0.04       0.0  T
   2   -210.4047957  0.247268E-01  0.273E-01    0.05       1.0  T
   3   -210.4194256 -0.146299E-01  0.163E-01    0.08       1.0  T
   4   -210.4041992  0.152264E-01  0.281E-01    0.03       1.0  T
   5   -210.4295516 -0.253523E-01  0.309E-02    0.04       1.0  T
   6   -210.4291501  0.401475E-03  0.464E-02    0.04       1.0  T
   7   -210.4294506 -0.300462E-03  0.343E-02    0.04       1.0  T
   8   -210.4296290 -0.178401E-03  0.211E-02    0.04       1.0  T
   9   -210.4297456 -0.116689E-03  0.705E-03    0.04       1.2  T
  10   -210.4297555 -0.985860E-05  0.371E-03    0.04       2.2  T
  11   -210.4297586 -0.306329E-05  0.119E-03    0.04       6.8  T
  12   -210.4297589 -0.288128E-06  0.552E-04    0.04      14.7  T
  13   -210.4297589 -0.627537E-07  0.213E-04    0.04      38.2  T
     SCC iter.                  ...        0 min,  0.750 sec
     gradient                   ...        0 min,  0.077 sec
 * total energy  :  -207.1753261 Eh     change       -0.1956999E-02 Eh
   gradient norm :     0.0128390 Eh/α   predicted     0.0000000E+00 (-100.00%)
   displ. norm   :     0.2353188 α      lambda       -0.1120056E-02
   maximum displ.:     0.0960508 α      in ANC's #7, #17, #4, ...

........................................................................
.............................. CYCLE   22 ..............................
........................................................................

 iter      E             dE          RMSdq      gap      omega  full diag
   1   -210.4314266 -0.210431E+03  0.278E-02    0.04       0.0  T
   2   -210.4285471  0.287948E-02  0.905E-02    0.03       1.0  T
   3   -210.4303667 -0.181957E-02  0.535E-02    0.05       1.0  T
   4   -210.4249447  0.542196E-02  0.141E-01    0.03       1.0  T
   5   -210.4308796 -0.593484E-02  0.442E-02    0.04       1.0  T
   6   -210.4313945 -0.514917E-03  0.126E-02    0.04       1.0  T
   7   -210.4314330 -0.385120E-04  0.586E-03    0.04       1.4  T
   8   -210.4314401 -0.714792E-05  0.282E-03    0.04       2.9  T
   9   -210.4314421 -0.195988E-05  0.826E-04    0.04       9.9  T
  10   -210.4314422 -0.134822E-06  0.257E-04    0.04      31.7  T
  11   -210.4314422 -0.111867E-07  0.122E-04    0.04      66.7  T
     SCC iter.                  ...        0 min,  0.777 sec
     gradient                   ...        0 min,  0.073 sec
 * total energy  :  -207.1762835 Eh     change       -0.9574757E-03 Eh
   gradient norm :     0.0057173 Eh/α   predicted    -0.5914584E-03 ( -38.23%)
   displ. norm   :     0.6337735 α      lambda       -0.2127103E-02
   maximum displ.:     0.2622072 α      in ANC's #7, #17, #4, ...

........................................................................
.............................. CYCLE   23 ..............................
........................................................................

 iter      E             dE          RMSdq      gap      omega  full diag
   1   -210.4315188 -0.210432E+03  0.587E-02    0.04       0.0  T
   2   -210.4174112  0.141076E-01  0.200E-01    0.04       1.0  T
   3   -210.4276672 -0.102560E-01  0.103E-01    0.06       1.0  T
   4   -210.3968444  0.308228E-01  0.336E-01    0.03       1.0  T
   5   -210.4304810 -0.336367E-01  0.625E-02    0.04       1.0  T
   6   -210.4312092 -0.728134E-03  0.364E-02    0.04       1.0  T
   7   -210.4314834 -0.274271E-03  0.208E-02    0.04       1.0  T
   8   -210.4315573 -0.738244E-04  0.123E-02    0.04       1.0  T
   9   -210.4315924 -0.351148E-04  0.514E-03    0.04       1.6  T
  10   -210.4315976 -0.525815E-05  0.220E-03    0.04       3.7  T
  11   -210.4315989 -0.121942E-05  0.617E-04    0.04      13.2  T
  12   -210.4315989 -0.254324E-07  0.512E-04    0.04      15.9  T
  13   -210.4315989 -0.588393E-07  0.209E-04    0.04      39.0  T
     SCC iter.                  ...        0 min,  0.838 sec
     gradient                   ...        0 min,  0.068 sec
 * total energy  :  -207.1779660 Eh     change       -0.1682441E-02 Eh
   gradient norm :     0.0115264 Eh/α   predicted    -0.1490747E-02 ( -11.39%)
   displ. norm   :     0.6684637 α      lambda       -0.1718157E-02
   maximum displ.:     0.2849832 α      in ANC's #7, #17, #4, ...

........................................................................
.............................. CYCLE   24 ..............................
........................................................................

 iter      E             dE          RMSdq      gap      omega  full diag
   1   -210.4299795 -0.210430E+03  0.535E-02    0.04       0.0  T
   2   -210.4156112  0.143683E-01  0.201E-01    0.04       1.0  T
   3   -210.4275506 -0.119394E-01  0.828E-02    0.06       1.0  T
   4   -210.4027415  0.248091E-01  0.298E-01    0.04       1.0  T
   5   -210.4291830 -0.264416E-01  0.542E-02    0.04       1.0  T
   6   -210.4298109 -0.627888E-03  0.284E-02    0.04       1.0  T
   7   -210.4299612 -0.150306E-03  0.184E-02    0.04       1.0  T
   8   -210.4300281 -0.668463E-04  0.984E-03    0.04       1.0  T
   9   -210.4300503 -0.221978E-04  0.405E-03    0.04       2.0  T
  10   -210.4300532 -0.291851E-05  0.233E-03    0.04       3.5  T
  11   -210.4300546 -0.136732E-05  0.505E-04    0.04      16.1  T
  12   -210.4300546 -0.415738E-07  0.272E-04    0.04      30.0  T
  13   -210.4300546 -0.903142E-08  0.173E-04    0.04      47.0  T
     SCC iter.                  ...        0 min,  0.937 sec
     gradient                   ...        0 min,  0.078 sec
 * total energy  :  -207.1794429 Eh     change       -0.1476931E-02 Eh
   gradient norm :     0.0179269 Eh/α   predicted    -0.1242983E-02 ( -15.84%)
   displ. norm   :     0.7085401 α      lambda       -0.2053660E-02
   maximum displ.:     0.3107814 α      in ANC's #7, #17, #4, ...

........................................................................
.............................. CYCLE   25 ..............................
........................................................................

 iter      E             dE          RMSdq      gap      omega  full diag
   1   -210.4309857 -0.210431E+03  0.525E-02    0.04       0.0  T
   2   -210.4185296  0.124561E-01  0.184E-01    0.04       1.0  T
   3   -210.4288949 -0.103653E-01  0.774E-02    0.06       1.0  T
   4   -210.3994808  0.294141E-01  0.327E-01    0.04       1.0  T
   5   -210.4309461 -0.314653E-01  0.180E-02    0.04       1.0  T
   6   -210.4308534  0.926875E-04  0.248E-02    0.04       1.0  T
   7   -210.4309992 -0.145854E-03  0.123E-02    0.04       1.0  T
   8   -210.4310302 -0.309792E-04  0.622E-03    0.04       1.3  T
   9   -210.4310372 -0.696917E-05  0.331E-03    0.04       2.5  T
  10   -210.4310395 -0.226964E-05  0.179E-03    0.04       4.6  T
  11   -210.4310403 -0.793738E-06  0.467E-04    0.04      17.4  T
  12   -210.4310403 -0.322108E-07  0.266E-04    0.04      30.7  T
     SCC iter.                  ...        0 min,  0.741 sec
     gradient                   ...        0 min,  0.071 sec
 * total energy  :  -207.1812742 Eh     change       -0.1831251E-02 Eh
   gradient norm :     0.0154706 Eh/α   predicted    -0.1542331E-02 ( -15.78%)
   displ. norm   :     0.7216823 α      lambda       -0.2296222E-02
   maximum displ.:     0.3256744 α      in ANC's #7, #17, #4, ...

........................................................................
.............................. CYCLE   26 ..............................
........................................................................

 iter      E             dE          RMSdq      gap      omega  full diag
   1   -210.4375914 -0.210438E+03  0.560E-02    0.05       0.0  T
   2   -210.4315337  0.605771E-02  0.128E-01    0.04       1.0  T
   3   -210.4302014  0.133232E-02  0.139E-01    0.07       1.0  T
   4   -210.4344994 -0.429806E-02  0.106E-01    0.04       1.0  T
   5   -210.4370752 -0.257581E-02  0.436E-02    0.05       1.0  T
   6   -210.4375451 -0.469924E-03  0.152E-02    0.05       1.0  T
   7   -210.4375847 -0.395232E-04  0.113E-02    0.04       1.0  T
   8   -210.4376116 -0.269668E-04  0.607E-03    0.04       1.3  T
   9   -210.4376209 -0.931156E-05  0.211E-03    0.04       3.9  T
  10   -210.4376224 -0.146325E-05  0.717E-04    0.04      11.3  T
  11   -210.4376225 -0.122919E-06  0.267E-04    0.04      30.5  T
  12   -210.4376225 -0.129399E-07  0.158E-04    0.04      51.6  T
     SCC iter.                  ...        0 min,  0.671 sec
     gradient                   ...        0 min,  0.075 sec
 * total energy  :  -207.1831770 Eh     change       -0.1902808E-02 Eh
   gradient norm :     0.0068418 Eh/α   predicted    -0.1746092E-02 (  -8.24%)
   displ. norm   :     0.8535728 α      lambda       -0.1973639E-02
   maximum displ.:     0.3731563 α      in ANC's #7, #17, #4, ...

........................................................................
.............................. CYCLE   27 ..............................
........................................................................

 iter      E             dE          RMSdq      gap      omega  full diag
   1   -210.4347652 -0.210435E+03  0.653E-02    0.05       0.0  T
   2   -210.4260785  0.868667E-02  0.158E-01    0.04       1.0  T
   3   -210.4260915 -0.130117E-04  0.150E-01    0.07       1.0  T
   4   -210.4110815  0.150100E-01  0.269E-01    0.05       1.0  T
   5   -210.4345825 -0.235009E-01  0.286E-02    0.05       1.0  T
   6   -210.4342630  0.319412E-03  0.437E-02    0.05       1.0  T
   7   -210.4347425 -0.479415E-03  0.170E-02    0.05       1.0  T
   8   -210.4347904 -0.479473E-04  0.109E-02    0.05       1.0  T
   9   -210.4348217 -0.313287E-04  0.348E-03    0.05       2.3  T
  10   -210.4348260 -0.425707E-05  0.933E-04    0.05       8.7  T
  11   -210.4348262 -0.261236E-06  0.295E-04    0.05      27.6  T
  12   -210.4348262  0.295807E-08  0.264E-04    0.05      30.8  T
     SCC iter.                  ...        0 min,  0.671 sec
     gradient                   ...        0 min,  0.072 sec
 * total energy  :  -207.1847274 Eh     change       -0.1550478E-02 Eh
   gradient norm :     0.0148834 Eh/α   predicted    -0.1705830E-02 (  10.02%)
   displ. norm   :     0.6980279 α      lambda       -0.1723384E-02
   maximum displ.:     0.3255157 α      in ANC's #7, #17, #4, ...

........................................................................
.............................. CYCLE   28 ..............................
........................................................................

 iter      E             dE          RMSdq      gap      omega  full diag
   1   -210.4420175 -0.210442E+03  0.569E-02    0.05       0.0  T
   2   -210.4300885  0.119290E-01  0.201E-01    0.04       1.0  T
   3   -210.4390516 -0.896307E-02  0.930E-02    0.06       1.0  T
   4   -210.4150019  0.240496E-01  0.267E-01    0.06       1.0  T
   5   -210.4352078 -0.202059E-01  0.149E-01    0.06       1.0  T
   6   -210.4417605 -0.655267E-02  0.347E-02    0.05       1.0  T
   7   -210.4420726 -0.312151E-03  0.136E-02    0.05       1.0  T
   8   -210.4420855 -0.128113E-04  0.107E-02    0.05       1.0  T
   9   -210.4421161 -0.306135E-04  0.298E-03    0.05       2.7  T
  10   -210.4421179 -0.182412E-05  0.144E-03    0.05       5.6  T
  11   -210.4421184 -0.501448E-06  0.375E-04    0.05      21.7  T
  12   -210.4421184 -0.365822E-07  0.182E-04    0.05      44.7  T
     SCC iter.                  ...        0 min,  0.671 sec
     gradient                   ...        0 min,  0.075 sec
 * total energy  :  -207.1861523 Eh     change       -0.1424885E-02 Eh
   gradient norm :     0.0096681 Eh/α   predicted    -0.1281547E-02 ( -10.06%)
   displ. norm   :     0.7981214 α      lambda       -0.1500593E-02
   maximum displ.:     0.3727904 α      in ANC's #7, #17, #4, ...

........................................................................
.............................. CYCLE   29 ..............................
........................................................................

 iter      E             dE          RMSdq      gap      omega  full diag
   1   -210.4426872 -0.210443E+03  0.576E-02    0.05       0.0  T
   2   -210.4249117  0.177755E-01  0.247E-01    0.05       1.0  T
   3   -210.4406354 -0.157237E-01  0.806E-02    0.06       1.0  T
   4   -210.4209800  0.196554E-01  0.238E-01    0.06       1.0  T
   5   -210.4281212 -0.714117E-02  0.213E-01    0.07       1.0  T
   6   -210.4425343 -0.144131E-01  0.309E-02    0.05       1.0  T
   7   -210.4427951 -0.260860E-03  0.115E-02    0.05       1.0  T
   8   -210.4428000 -0.483538E-05  0.973E-03    0.05       1.0  T
   9   -210.4428246 -0.246060E-04  0.323E-03    0.05       2.5  T
  10   -210.4428267 -0.210120E-05  0.149E-03    0.05       5.5  T
  11   -210.4428272 -0.536622E-06  0.312E-04    0.05      26.1  T
  12   -210.4428272 -0.210649E-07  0.204E-04    0.05      39.9  T
     SCC iter.                  ...        0 min,  0.727 sec
     gradient                   ...        0 min,  0.072 sec
 * total energy  :  -207.1875091 Eh     change       -0.1356721E-02 Eh
   gradient norm :     0.0093481 Eh/α   predicted    -0.1228237E-02 (  -9.47%)
   displ. norm   :     0.7949393 α      lambda       -0.1603440E-02
   maximum displ.:     0.3700637 α      in ANC's #7, #6, #4, ...

........................................................................
.............................. CYCLE   30 ..............................
........................................................................

 iter      E             dE          RMSdq      gap      omega  full diag
   1   -210.4522411 -0.210452E+03  0.620E-02    0.05       0.0  T
   2   -210.4163165  0.359246E-01  0.363E-01    0.06       1.0  T
   3   -210.4508690 -0.345525E-01  0.766E-02    0.05       1.0  T
   4   -210.4432961  0.757288E-02  0.158E-01    0.05       1.0  T
   5   -210.4219979  0.212982E-01  0.288E-01    0.10       1.0  T
   6   -210.4519581 -0.299601E-01  0.417E-02    0.04       1.0  T
   7   -210.4524474 -0.489378E-03  0.151E-02    0.05       1.0  T
   8   -210.4524770 -0.295957E-04  0.102E-02    0.05       1.0  T
   9   -210.4524982 -0.212111E-04  0.561E-03    0.05       1.5  T
  10   -210.4525055 -0.729059E-05  0.220E-03    0.05       3.7  T
  11   -210.4525068 -0.123768E-05  0.612E-04    0.05      13.3  T
  12   -210.4525069 -0.918383E-07  0.173E-04    0.05      47.1  T
  13   -210.4525069 -0.379555E-08  0.113E-04    0.05      72.2  T
     SCC iter.                  ...        0 min,  0.782 sec
     gradient                   ...        0 min,  0.072 sec
 * total energy  :  -207.1888465 Eh     change       -0.1337457E-02 Eh
   gradient norm :     0.0077249 Eh/α   predicted    -0.1308352E-02 (  -2.18%)
   displ. norm   :     0.8871592 α      lambda       -0.1465864E-02
   maximum displ.:     0.4036473 α      in ANC's #7, #4, #6, ...

........................................................................
.............................. CYCLE   31 ..............................
........................................................................

 iter      E             dE          RMSdq      gap      omega  full diag
   1   -210.4456031 -0.210446E+03  0.655E-02    0.05       0.0  T
   2   -210.4190946  0.265084E-01  0.310E-01    0.06       1.0  T
   3   -210.4442334 -0.251387E-01  0.746E-02    0.05       1.0  T
   4   -210.4206649  0.235684E-01  0.255E-01    0.06       1.0  T
   5   -210.4191923  0.147263E-02  0.277E-01    0.08       1.0  T
   6   -210.4452753 -0.260830E-01  0.405E-02    0.05       1.0  T
   7   -210.4457451 -0.469829E-03  0.146E-02    0.05       1.0  T
   8   -210.4457693 -0.241660E-04  0.102E-02    0.05       1.0  T
   9   -210.4457907 -0.213831E-04  0.556E-03    0.05       1.5  T
  10   -210.4457980 -0.729795E-05  0.190E-03    0.05       4.3  T
  11   -210.4457990 -0.977240E-06  0.556E-04    0.05      14.6  T
  12   -210.4457990 -0.658048E-07  0.182E-04    0.05      44.8  T
     SCC iter.                  ...        0 min,  0.790 sec
     gradient                   ...        0 min,  0.068 sec
 * total energy  :  -207.1900219 Eh     change       -0.1175371E-02 Eh
   gradient norm :     0.0091540 Eh/α   predicted    -0.1309802E-02 (  11.44%)
   displ. norm   :     0.7499598 α      lambda       -0.1165817E-02
   maximum displ.:     0.3401664 α      in ANC's #7, #6, #2, ...

........................................................................
.............................. CYCLE   32 ..............................
........................................................................

 iter      E             dE          RMSdq      gap      omega  full diag
   1   -210.4466006 -0.210447E+03  0.546E-02    0.05       0.0  T
   2   -210.4201504  0.264502E-01  0.313E-01    0.06       1.0  T
   3   -210.4460362 -0.258858E-01  0.559E-02    0.05       1.0  T
   4   -210.4383522  0.768398E-02  0.153E-01    0.05       1.0  T
   5   -210.4213716  0.169806E-01  0.259E-01    0.09       1.0  T
   6   -210.4463431 -0.249715E-01  0.371E-02    0.05       1.0  T
   7   -210.4467521 -0.408967E-03  0.113E-02    0.05       1.0  T
   8   -210.4467725 -0.204127E-04  0.693E-03    0.05       1.2  T
   9   -210.4467820 -0.952493E-05  0.398E-03    0.05       2.0  T
  10   -210.4467857 -0.367910E-05  0.159E-03    0.05       5.1  T
  11   -210.4467864 -0.659411E-06  0.579E-04    0.05      14.1  T
  12   -210.4467865 -0.954365E-07  0.114E-04    0.05      71.6  T
     SCC iter.                  ...        0 min,  0.746 sec
     gradient                   ...        0 min,  0.071 sec
 * total energy  :  -207.1910097 Eh     change       -0.9878028E-03 Eh
   gradient norm :     0.0082962 Eh/α   predicted    -0.9107666E-03 (  -7.80%)
   displ. norm   :     0.7625477 α      lambda       -0.1169059E-02
   maximum displ.:     0.3326496 α      in ANC's #7, #6, #2, ...

........................................................................
.............................. CYCLE   33 ..............................
........................................................................

 iter      E             dE          RMSdq      gap      omega  full diag
   1   -210.4543803 -0.210454E+03  0.545E-02    0.05       0.0  T
   2   -210.4200682  0.343121E-01  0.356E-01    0.07       1.0  T
   3   -210.4538297 -0.337616E-01  0.571E-02    0.05       1.0  T
   4   -210.4481992  0.563055E-02  0.136E-01    0.05       1.0  T
   5   -210.4330513  0.151479E-01  0.236E-01    0.09       1.0  T
   6   -210.4538064 -0.207551E-01  0.498E-02    0.04       1.0  T
   7   -210.4545255 -0.719088E-03  0.170E-02    0.05       1.0  T
   8   -210.4545829 -0.573781E-04  0.909E-03    0.05       1.0  T
   9   -210.4545951 -0.122638E-04  0.623E-03    0.05       1.3  T
  10   -210.4546035 -0.833055E-05  0.298E-03    0.05       2.7  T
  11   -210.4546057 -0.227328E-05  0.701E-04    0.05      11.6  T
  12   -210.4546059 -0.149491E-06  0.140E-04    0.05      58.1  T
  13   -210.4546059  0.344863E-08  0.159E-04    0.05      51.1  T
     SCC iter.                  ...        0 min,  0.756 sec
     gradient                   ...        0 min,  0.074 sec
 * total energy  :  -207.1919451 Eh     change       -0.9353975E-03 Eh
   gradient norm :     0.0061130 Eh/α   predicted    -0.9244232E-03 (  -1.17%)
   displ. norm   :     0.7903019 α      lambda       -0.1028044E-02
   maximum displ.:     0.3413921 α      in ANC's #7, #6, #2, ...

........................................................................
.............................. CYCLE   34 ..............................
........................................................................

 iter      E             dE          RMSdq      gap      omega  full diag
   1   -210.4558448 -0.210456E+03  0.520E-02    0.05       0.0  T
   2   -210.4279701  0.278746E-01  0.320E-01    0.06       1.0  T
   3   -210.4553466 -0.273764E-01  0.529E-02    0.05       1.0  T
   4   -210.4441676  0.111789E-01  0.178E-01    0.05       1.0  T
   5   -210.4410069  0.316074E-02  0.202E-01    0.07       1.0  T
   6   -210.4553454 -0.143385E-01  0.461E-02    0.04       1.0  T
   7   -210.4559702 -0.624873E-03  0.144E-02    0.05       1.0  T
   8   -210.4560117 -0.415147E-04  0.744E-03    0.05       1.1  T
   9   -210.4560198 -0.803066E-05  0.508E-03    0.05       1.6  T
  10   -210.4560252 -0.538277E-05  0.247E-03    0.05       3.3  T
  11   -210.4560267 -0.157530E-05  0.546E-04    0.05      14.9  T
  12   -210.4560268 -0.845625E-07  0.902E-05    0.05      90.2  T
  13   -210.4560268  0.597379E-08  0.154E-04    0.05      52.8  T
     SCC iter.                  ...        0 min,  0.726 sec
     gradient                   ...        0 min,  0.069 sec
 * total energy  :  -207.1928352 Eh     change       -0.8901633E-03 Eh
   gradient norm :     0.0058421 Eh/α   predicted    -0.8350752E-03 (  -6.19%)
   displ. norm   :     0.8350026 α      lambda       -0.9810220E-03
   maximum displ.:     0.3531674 α      in ANC's #7, #6, #2, ...

........................................................................
.............................. CYCLE   35 ..............................
........................................................................

 iter      E             dE          RMSdq      gap      omega  full diag
   1   -210.4547914 -0.210455E+03  0.518E-02    0.05       0.0  T
   2   -210.4320666  0.227248E-01  0.290E-01    0.06       1.0  T
   3   -210.4542668 -0.222001E-01  0.541E-02    0.05       1.0  T
   4   -210.4437806  0.104862E-01  0.174E-01    0.05       1.0  T
   5   -210.4398811  0.389942E-02  0.200E-01    0.07       1.0  T
   6   -210.4542033 -0.143222E-01  0.476E-02    0.04       1.0  T
   7   -210.4548864 -0.683022E-03  0.149E-02    0.05       1.0  T
   8   -210.4549297 -0.433106E-04  0.790E-03    0.05       1.0  T
   9   -210.4549390 -0.937061E-05  0.522E-03    0.05       1.6  T
  10   -210.4549449 -0.583314E-05  0.239E-03    0.05       3.4  T
  11   -210.4549463 -0.144499E-05  0.614E-04    0.05      13.3  T
  12   -210.4549464 -0.105191E-06  0.888E-05    0.05      91.7  T
  13   -210.4549464  0.649229E-08  0.154E-04    0.05      52.7  T
     SCC iter.                  ...        0 min,  0.717 sec
     gradient                   ...        0 min,  0.073 sec
 * total energy  :  -207.1937015 Eh     change       -0.8662090E-03 Eh
   gradient norm :     0.0065102 Eh/α   predicted    -0.8325171E-03 (  -3.89%)
   displ. norm   :     0.7894847 α      lambda       -0.1091148E-02
   maximum displ.:     0.3038715 α      in ANC's #2, #6, #7, ...

........................................................................
.............................. CYCLE   36 ..............................
........................................................................

 iter      E             dE          RMSdq      gap      omega  full diag
   1   -210.4641115 -0.210464E+03  0.563E-02    0.05       0.0  T
   2   -210.4490405  0.150710E-01  0.238E-01    0.06       1.0  T
   3   -210.4632366 -0.141960E-01  0.676E-02    0.04       1.0  T
   4   -210.4363613  0.268753E-01  0.269E-01    0.09       1.0  T
   5   -210.4600325 -0.236712E-01  0.104E-01    0.05       1.0  T
   6   -210.4634086 -0.337613E-02  0.507E-02    0.05       1.0  T
   7   -210.4640732 -0.664568E-03  0.233E-02    0.05       1.0  T
   8   -210.4641733 -0.100077E-03  0.128E-02    0.05       1.0  T
   9   -210.4642000 -0.267289E-04  0.782E-03    0.05       1.0  T
  10   -210.4642144 -0.144088E-04  0.267E-03    0.05       3.0  T
  11   -210.4642159 -0.144916E-05  0.659E-04    0.05      12.3  T
  12   -210.4642160 -0.133623E-06  0.197E-04    0.05      41.2  T
  13   -210.4642160 -0.486941E-08  0.165E-04    0.05      49.2  T
     SCC iter.                  ...        0 min,  0.729 sec
     gradient                   ...        0 min,  0.072 sec
 * total energy  :  -207.1945017 Eh     change       -0.8002014E-03 Eh
   gradient norm :     0.0104248 Eh/α   predicted    -0.8856287E-03 (  10.68%)
   displ. norm   :     0.8123546 α      lambda       -0.1064430E-02
   maximum displ.:     0.3135229 α      in ANC's #7, #6, #2, ...

........................................................................
.............................. CYCLE   37 ..............................
........................................................................

 iter      E             dE          RMSdq      gap      omega  full diag
   1   -210.4567059 -0.210457E+03  0.554E-02    0.05       0.0  T
   2   -210.4422192  0.144867E-01  0.235E-01    0.06       1.0  T
   3   -210.4556009 -0.133817E-01  0.712E-02    0.04       1.0  T
   4   -210.4300929  0.255080E-01  0.263E-01    0.09       1.0  T
   5   -210.4503595 -0.202666E-01  0.127E-01    0.05       1.0  T
   6   -210.4559942 -0.563463E-02  0.510E-02    0.05       1.0  T
   7   -210.4567531 -0.758953E-03  0.153E-02    0.05       1.0  T
   8   -210.4567893 -0.362117E-04  0.940E-03    0.05       1.0  T
   9   -210.4568053 -0.159343E-04  0.577E-03    0.05       1.4  T
  10   -210.4568138 -0.856352E-05  0.161E-03    0.05       5.1  T
  11   -210.4568144 -0.520972E-06  0.408E-04    0.05      19.9  T
  12   -210.4568144 -0.483372E-07  0.922E-05    0.05      88.3  T
     SCC iter.                  ...        0 min,  0.695 sec
     gradient                   ...        0 min,  0.071 sec
 * total energy  :  -207.1952731 Eh     change       -0.7714655E-03 Eh
   gradient norm :     0.0109172 Eh/α   predicted    -0.8834361E-03 (  14.51%)
   displ. norm   :     0.6890843 α      lambda       -0.9199591E-03
   maximum displ.:     0.2735400 α      in ANC's #6, #2, #7, ...

........................................................................
.............................. CYCLE   38 ..............................
........................................................................

 iter      E             dE          RMSdq      gap      omega  full diag
   1   -210.4548641 -0.210455E+03  0.465E-02    0.04       0.0  T
   2   -210.4455054  0.935876E-02  0.184E-01    0.06       1.0  T
   3   -210.4528999 -0.739446E-02  0.826E-02    0.04       1.0  T
   4   -210.4371501  0.157497E-01  0.211E-01    0.08       1.0  T
   5   -210.4534974 -0.163473E-01  0.638E-02    0.04       1.0  T
   6   -210.4542588 -0.761351E-03  0.473E-02    0.05       1.0  T
   7   -210.4548270 -0.568231E-03  0.202E-02    0.05       1.0  T
   8   -210.4549052 -0.781415E-04  0.106E-02    0.05       1.0  T
   9   -210.4549275 -0.223514E-04  0.534E-03    0.05       1.5  T
  10   -210.4549347 -0.715271E-05  0.114E-03    0.05       7.1  T
  11   -210.4549349 -0.208815E-06  0.324E-04    0.05      25.2  T
  12   -210.4549349 -0.200409E-07  0.119E-04    0.05      68.2  T
     SCC iter.                  ...        0 min,  0.658 sec
     gradient                   ...        0 min,  0.071 sec
 * total energy  :  -207.1959102 Eh     change       -0.6370674E-03 Eh
   gradient norm :     0.0097154 Eh/α   predicted    -0.6783972E-03 (   6.49%)
   displ. norm   :     0.6791416 α      lambda       -0.8409632E-03
   maximum displ.:     0.2673739 α      in ANC's #6, #5, #2, ...

........................................................................
.............................. CYCLE   39 ..............................
........................................................................

 iter      E             dE          RMSdq      gap      omega  full diag
   1   -210.4569801 -0.210457E+03  0.457E-02    0.04       0.0  T
   2   -210.4459264  0.110537E-01  0.196E-01    0.06       1.0  T
   3   -210.4548240 -0.889760E-02  0.814E-02    0.04       1.0  T
   4   -210.4426901  0.121339E-01  0.190E-01    0.08       1.0  T
   5   -210.4562841 -0.135940E-01  0.472E-02    0.04       1.0  T
   6   -210.4567349 -0.450815E-03  0.324E-02    0.04       1.0  T
   7   -210.4570060 -0.271123E-03  0.127E-02    0.05       1.0  T
   8   -210.4570322 -0.261702E-04  0.756E-03    0.04       1.1  T
   9   -210.4570457 -0.135162E-04  0.282E-03    0.04       2.9  T
  10   -210.4570476 -0.193971E-05  0.537E-04    0.05      15.2  T
  11   -210.4570477 -0.401347E-07  0.238E-04    0.05      34.2  T
  12   -210.4570477  0.511704E-09  0.185E-04    0.05      44.1  T
     SCC iter.                  ...        0 min,  0.659 sec
     gradient                   ...        0 min,  0.074 sec
 * total energy  :  -207.1966250 Eh     change       -0.7147837E-03 Eh
   gradient norm :     0.0076529 Eh/α   predicted    -0.6144250E-03 ( -14.04%)
   displ. norm   :     0.6742510 α      lambda       -0.9975968E-03
   maximum displ.:     0.2989024 α      in ANC's #5, #6, #2, ...

........................................................................
.............................. CYCLE   40 ..............................
........................................................................

 iter      E             dE          RMSdq      gap      omega  full diag
   1   -210.4644510 -0.210464E+03  0.498E-02    0.04       0.0  T
   2   -210.4481085  0.163425E-01  0.222E-01    0.07       1.0  T
   3   -210.4625679 -0.144594E-01  0.744E-02    0.04       1.0  T
   4   -210.4508589  0.117090E-01  0.191E-01    0.07       1.0  T
   5   -210.4640085 -0.131496E-01  0.391E-02    0.04       1.0  T
   6   -210.4644467 -0.438164E-03  0.171E-02    0.04       1.0  T
   7   -210.4644510 -0.431868E-05  0.170E-02    0.04       1.0  T
   8   -210.4645122 -0.611664E-04  0.786E-03    0.04       1.0  T
   9   -210.4645296 -0.173921E-04  0.885E-04    0.04       9.2  T
  10   -210.4645294  0.166454E-06  0.861E-04    0.04       9.4  T
  11   -210.4645295 -0.144186E-06  0.547E-04    0.04      14.9  T
     SCC iter.                  ...        0 min,  0.660 sec
     gradient                   ...        0 min,  0.071 sec
 * total energy  :  -207.1973449 Eh     change       -0.7199347E-03 Eh
   gradient norm :     0.0091219 Eh/α   predicted    -0.7255620E-03 (   0.78%)
   displ. norm   :     0.8250590 α      lambda       -0.8537038E-03
   maximum displ.:     0.3361890 α      in ANC's #6, #5, #2, ...

........................................................................
.............................. CYCLE   41 ..............................
........................................................................

 iter      E             dE          RMSdq      gap      omega  full diag
   1   -210.4594692 -0.210459E+03  0.541E-02    0.04       0.0  T
   2   -210.4449450  0.145242E-01  0.235E-01    0.05       1.0  T
   3   -210.4579677 -0.130227E-01  0.767E-02    0.04       1.0  T
   4   -210.4309446  0.270231E-01  0.266E-01    0.10       1.0  T
   5   -210.4583141 -0.273695E-01  0.598E-02    0.04       1.0  T
   6   -210.4589910 -0.676912E-03  0.431E-02    0.04       1.0  T
   7   -210.4594922 -0.501189E-03  0.163E-02    0.04       1.0  T
   8   -210.4595359 -0.437004E-04  0.999E-03    0.04       1.0  T
   9   -210.4595563 -0.204083E-04  0.493E-03    0.04       1.6  T
  10   -210.4595622 -0.589443E-05  0.117E-03    0.04       7.0  T
  11   -210.4595624 -0.155253E-06  0.517E-04    0.04      15.7  T
  12   -210.4595624 -0.515780E-07  0.221E-04    0.04      36.9  T
     SCC iter.                  ...        0 min,  0.655 sec
     gradient                   ...        0 min,  0.074 sec
 * total energy  :  -207.1980583 Eh     change       -0.7133554E-03 Eh
   gradient norm :     0.0099347 Eh/α   predicted    -0.7174202E-03 (   0.57%)
   displ. norm   :     0.7007538 α      lambda       -0.8732958E-03
   maximum displ.:     0.3185652 α      in ANC's #5, #6, #13, ...

........................................................................
.............................. CYCLE   42 ..............................
........................................................................

 iter      E             dE          RMSdq      gap      omega  full diag
   1   -210.4630665 -0.210463E+03  0.518E-02    0.04       0.0  T
   2   -210.4536676  0.939894E-02  0.191E-01    0.05       1.0  T
   3   -210.4619576 -0.829002E-02  0.713E-02    0.04       1.0  T
   4   -210.4392207  0.227369E-01  0.244E-01    0.09       1.0  T
   5   -210.4617978 -0.225772E-01  0.594E-02    0.04       1.0  T
   6   -210.4629266 -0.112880E-02  0.271E-02    0.04       1.0  T
   7   -210.4630171 -0.905045E-04  0.211E-02    0.04       1.0  T
   8   -210.4631026 -0.855074E-04  0.112E-02    0.04       1.0  T
   9   -210.4631328 -0.302045E-04  0.377E-03    0.04       2.2  T
  10   -210.4631361 -0.330302E-05  0.660E-04    0.04      12.3  T
  11   -210.4631362 -0.238524E-07  0.408E-04    0.04      19.9  T
  12   -210.4631362 -0.295130E-07  0.214E-04    0.04      38.0  T
[...]


           -------------------------------------------------
          | TOTAL ENERGY             -414.468785604991 Eh   |
Note: The following floating-point exceptions are signalling: IEEE_UNDERFLOW_FLAG
normal termination of xtb
          | GRADIENT NORM               0.000426086943 Eh/α |
          | HOMO-LUMO GAP               0.012938927247 eV   |
           -------------------------------------------------
########################################################################
[WARNING] Runtime exception occurred
-3- restart_readRestart: Dimension missmatch in restart file.
-2- restart_readRestart: Multiplicity missmatch in restart file.
-1- restart_readRestart: Number of electron missmatch in restart file.
########################################################################

------------------------------------------------------------------------
 * finished run on 2024/12/10 at 14:13:06.562     
------------------------------------------------------------------------
 total:
 * wall-time:     0 d,  0 h,  6 min, 52.997 sec
 *  cpu-time:     0 d,  0 h, 23 min,  2.361 sec
 * ratio c/w:     3.347 speedup
 SCF:
 * wall-time:     0 d,  0 h,  0 min,  7.360 sec
 *  cpu-time:     0 d,  0 h,  0 min, 25.664 sec
 * ratio c/w:     3.487 speedup
 ANC optimizer:
 * wall-time:     0 d,  0 h,  6 min, 45.554 sec
 *  cpu-time:     0 d,  0 h, 22 min, 36.547 sec
 * ratio c/w:     3.345 speedup

Running optimization for loose_opt_dimer.mol
      -----------------------------------------------------------      
     |                   =====================                   |     
     |                           x T B                           |     
     |                   =====================                   |     
     |                         S. Grimme                         |     
     |          Mulliken Center for Theoretical Chemistry        |     
     |                    University of Bonn                     |     
      -----------------------------------------------------------      

   * xtb version 6.7.1 (edcfbbe) compiled by 'runner@Mac-1732539442253.local' on 2024-11-25

   xtb is free software: you can redistribute it and/or modify it under
   the terms of the GNU Lesser General Public License as published by
   the Free Software Foundation, either version 3 of the License, or
   (at your option) any later version.
   
   xtb is distributed in the hope that it will be useful,
   but WITHOUT ANY WARRANTY; without even the implied warranty of
   MERCHANTABILITY or FITNESS FOR A PARTICULAR PURPOSE.  See the
   GNU Lesser General Public License for more details.
   
   Cite this work as:
   * C. Bannwarth, E. Caldeweyher, S. Ehlert, A. Hansen, P. Pracht,
     J. Seibert, S. Spicher, S. Grimme, WIREs Comput. Mol. Sci., 2020, 11,
     e01493. DOI: 10.1002/wcms.1493
   
   for GFN2-xTB:
   * C. Bannwarth, S. Ehlert and S. Grimme., J. Chem. Theory Comput., 2019,
     15, 1652-1671. DOI: 10.1021/acs.jctc.8b01176
   for GFN1-xTB:
   * S. Grimme, C. Bannwarth, P. Shushkov, J. Chem. Theory Comput., 2017,
     13, 1989-2009. DOI: 10.1021/acs.jctc.7b00118
   for GFN0-xTB:
   * P. Pracht, E. Caldeweyher, S. Ehlert, S. Grimme, ChemRxiv, 2019, preprint.
     DOI: 10.26434/chemrxiv.8326202.v1
   for GFN-FF:
   * S. Spicher and S. Grimme, Angew. Chem. Int. Ed., 2020, 59, 15665-15673.
     DOI: 10.1002/anie.202004239
   
   for ALPB and GBSA implicit solvation:
   * S. Ehlert, M. Stahn, S. Spicher, S. Grimme, J. Chem. Theory Comput.,
     2021, 17, 4250-4261. DOI: 10.1021/acs.jctc.1c00471
   
   for ddCOSMO and CPCM-X implicit solvation:
   * M. Stahn, S. Ehlert, S. Grimme, J. Phys. Chem. A,
     2023, XX, XXXX-XXXX. DOI: 10.1021/acs.jpca.3c04382
   
   for DFT-D4:
   * E. Caldeweyher, C. Bannwarth and S. Grimme, J. Chem. Phys., 2017,
     147, 034112. DOI: 10.1063/1.4993215
   * E. Caldeweyher, S. Ehlert, A. Hansen, H. Neugebauer, S. Spicher,
     C. Bannwarth and S. Grimme, J. Chem. Phys., 2019, 150, 154122.
     DOI: 10.1063/1.5090222
   * E. Caldeweyher, J.-M. Mewes, S. Ehlert and S. Grimme, Phys. Chem. Chem. Phys.
     2020, 22, 8499-8512. DOI: 10.1039/D0CP00502A
   
   for sTDA-xTB:
   * S. Grimme and C. Bannwarth, J. Chem. Phys., 2016, 145, 054103.
     DOI: 10.1063/1.4959605
   
   in the mass-spec context:
   * V. Asgeirsson, C. Bauer and S. Grimme, Chem. Sci., 2017, 8, 4879.
     DOI: 10.1039/c7sc00601b
   * J. Koopman and S. Grimme, ACS Omega 2019, 4, 12, 15120-15133.
     DOI: 10.1021/acsomega.9b02011
   
   for metadynamics refer to:
   * S. Grimme, J. Chem. Theory Comput., 2019, 155, 2847-2862
     DOI: 10.1021/acs.jctc.9b00143
   
   for SPH calculations refer to:
   * S. Spicher and S. Grimme, J. Chem. Theory Comput., 2021, 17, 1701-1714
     DOI: 10.1021/acs.jctc.0c01306
   
   for ONIOM refer to:
   * C. Plett, A. Katbashev, S. Ehlert, S. Grimme, M. Bursch,
     Phys. Chem. Chem. Phys., 2023, 25, 17860-17868. DOI: 10.1039/D3CP02178E
   
   for DIPRO refer to:
   * J. Kohn, N. Gildemeister, S. Grimme, D. Fazzi, A. Hansen,
     J. Chem. Phys., 2023, just accepted.
   
   for PTB refer to:
   * S. Grimme, M. Mueller, A. Hansen, J. Chem. Phys., 2023, 158, 124111.
     DOI: 10.1063/5.0137838
   
   with help from (in alphabetical order)
   P. Atkinson, C. Bannwarth, F. Bohle, G. Brandenburg, E. Caldeweyher
   M. Checinski, S. Dohm, S. Ehlert, S. Ehrlich, I. Gerasimov, C. Hölzer
   A. Katbashev, J. Kohn, J. Koopman, C. Lavigne, S. Lehtola, F. März, M. Müller,
   F. Musil, H. Neugebauer, J. Pisarek, C. Plett, P. Pracht, F. Pultar,
   J. Seibert, P. Shushkov, S. Spicher, M. Stahn, M. Steiner, T. Strunk,
   J. Stückrath, T. Rose, and J. Unsleber
   
 * started run on 2024/12/10 at 14:13:06.602     
   ID    Z sym.   atoms
    1    6 C      1-9, 11, 12, 14-21, 23-31, 33, 34, 36-43, 47, 48, 50-73,
                  77, 81, 152-160, 162, 163, 165-172, 174-182, 184, 185,
                  187-194, 198, 199, 201-224, 228, 232
    2    7 N      10, 13, 32, 35, 46, 49, 161, 164, 183, 186, 197, 200
    3    8 O      22, 44, 173, 195
    4    5 B      45, 196
    5    1 H      74-76, 78-80, 82-151, 225-227, 229-231, 233-302

           -------------------------------------------------
          |                Calculation Setup                |
           -------------------------------------------------

          program call               : xtb opt_dimer.mol --dipro 0.3 --gfn 2 --chrg 0 --uhf 2
          coordinate file            : opt_dimer.mol
          omp threads                :                     8


molecular fragmentation (1/2 indicates fragments):
111111111111111111111111111111111111111111111111111111111111111111111111
111111111111111111111111111111111111111111111111111111111111111111111111
111111122222222222222222222222222222222222222222222222222222222222222222
222222222222222222222222222222222222222222222222222222222222222222222222
22222222222222
# atoms in fragment 1/2:   151   151
 fragment masses (1/2) :      996.16      996.16
CMA distance (Bohr)    :  12.423
constraining FC (au)   :  0.0500

           -------------------------------------------------
          |                 G F N 2 - x T B                 |
           -------------------------------------------------

        Reference                      10.1021/acs.jctc.8b01176
      * Hamiltonian:
        H0-scaling (s, p, d)           1.850000    2.230000    2.230000
        zeta-weighting                 0.500000
      * Dispersion:
        s8                             2.700000
        a1                             0.520000
        a2                             5.000000
        s9                             5.000000
      * Repulsion:
        kExp                           1.500000    1.000000
        rExp                           1.000000
      * Coulomb:
        alpha                          2.000000
        third order                    shell-resolved
        anisotropic                    true
        a3                             3.000000
        a5                             4.000000
        cn-shift                       1.200000
        cn-exp                         4.000000
        max-rad                        5.000000

q/qsh data taken from xtbrestart
CAMM data taken from xtbrestart
           -------------------------------------------------
          |                    D I P R O                    |
           -------------------------------------------------
Calculation for dimer 
--------------------- 
  
charge of dimer :   0.
unpaired e- of dimer :  2
repulsion energy          6.5197941900269E+00 Eh
dispersion energy         4.6443749427799E-02 Eh
number of electrons       7.7000000000000E+02 e
integral cutoff           1.9311100799991E+01 bohr

------------------------------------------------------------
  cycle        total energy    energy error   density error
------------------------------------------------------------
      1     -413.3392835071  -4.1990552E+02   1.2990427E-01
      2     -413.0851282892   2.5415522E-01   7.1922980E-02
      3     -408.4796376706   4.6054906E+00   7.7995726E-02
      4     -411.4197834011  -2.9401457E+00   6.0278715E-02
      5     -413.1769674139  -1.7571840E+00   4.4052852E-02
      6     -413.9883114825  -8.1134407E-01   3.2643875E-02
      7     -414.1479692140  -1.5965773E-01   2.6339671E-02
      8     -414.2735541678  -1.2558495E-01   2.0244351E-02
      9     -414.2552899531   1.8264215E-02   1.7160169E-02
     10     -413.8723192736   3.8297068E-01   2.2249873E-02
     11     -414.0247534616  -1.5243419E-01   2.2170552E-02
     12     -414.2749347548  -2.5018129E-01   1.7351013E-02
     13     -414.3547924485  -7.9857694E-02   1.2476816E-02
     14     -414.4172364314  -6.2443983E-02   9.6556383E-03
     15     -414.3176909695   9.9545462E-02   1.3982200E-02
     16     -414.3522784369  -3.4587467E-02   1.2166174E-02
     17     -414.4288144675  -7.6536031E-02   7.6388366E-03
     18     -414.4433522331  -1.4537766E-02   6.5082137E-03
     19     -414.4481353381  -4.7831050E-03   5.2806273E-03
     20     -414.4627856368  -1.4650299E-02   3.0097222E-03
     21     -414.4666099101  -3.8242733E-03   1.7990051E-03
     22     -414.4640819603   2.5279498E-03   2.1613535E-03
     23     -414.4648990541  -8.1709383E-04   2.3942015E-03
     24     -414.4679289470  -3.0298928E-03   7.8357272E-04
     25     -414.4682869005  -3.5795349E-04   5.0561606E-04
     26     -414.4684629621  -1.7606162E-04   2.3683407E-04
     27     -414.4684140986   4.8863445E-05   2.9994190E-04
     28     -414.4684999915  -8.5892855E-05   8.6713144E-05
     29     -414.4684960637   3.9278389E-06   9.3130449E-05
     30     -414.4685011711  -5.1074562E-06   5.2436946E-05
     31     -414.4685028625  -1.6913685E-06   2.2258011E-05
     32     -414.4685030235  -1.6105366E-07   1.5114490E-05
------------------------------------------------------------

electronic energy        -4.2103474096300E+02 Eh
total energy             -4.1446850302354E+02 Eh

 total:                                   6.622 sec
 - repulsion                              0.001 sec (  0%)
 - dispersion                             0.036 sec (  0%)
 - coulomb                                0.008 sec (  0%)
 - hamiltonian                            0.020 sec (  0%)
 - scc                                    6.558 sec ( 99%)

Found 2 fragments!
Fragment 1:  1-151
Fragment 2:  152-302

[Info] Fragment spin read from .UHFfrag
Calculation for fragment 1
 ------------------------------
   
charge of fragment :   0.
unpaired e- of fragment :  1
------------------------------------------------------------
  cycle        total energy    energy error   density error
------------------------------------------------------------
      1     -206.6520642566  -2.0991636E+02   1.3100960E-01
      2     -206.8211973619  -1.6913311E-01   6.9088414E-02
      3     -206.5142687702   3.0692859E-01   6.1294860E-02
      4     -206.8733670007  -3.5909823E-01   3.7008521E-02
      5     -206.6471957732   2.2617123E-01   3.7391546E-02
      6     -207.1319278901  -4.8473212E-01   1.9620734E-02
      7     -206.9885463254   1.4338156E-01   2.6111037E-02
      8     -207.1702261902  -1.8167986E-01   1.4341109E-02
      9     -207.1545138379   1.5712352E-02   1.4487845E-02
     10     -207.1866516329  -3.2137795E-02   1.0720875E-02
     11     -207.1990397619  -1.2388129E-02   8.0270536E-03
     12     -207.2079909045  -8.9511426E-03   5.1089142E-03
     13     -207.2073911639   5.9974059E-04   5.4718866E-03
     14     -207.2155944695  -8.2033056E-03   1.7165644E-03
     15     -207.2156241311  -2.9661656E-05   1.5933629E-03
     16     -207.2155564962   6.7634900E-05   1.3828154E-03
     17     -207.2160305446  -4.7404839E-04   9.4147700E-04
     18     -207.2163050712  -2.7452661E-04   2.8749730E-04
     19     -207.2163169283  -1.1857077E-05   2.2844686E-04
     20     -207.2163272935  -1.0365232E-05   1.1930706E-04
     21     -207.2163321730  -4.8794257E-06   1.4646331E-05
     22     -207.2163317855   3.8750088E-07   3.2628432E-05
     23     -207.2163320940  -3.0849509E-07   1.9340346E-05
------------------------------------------------------------

 total:                                   1.442 sec
Calculation for fragment 2
 ------------------------------
   
charge of fragment :   0.
unpaired e- of fragment :  1
------------------------------------------------------------
  cycle        total energy    energy error   density error
------------------------------------------------------------
      1     -206.6411953213  -2.0991130E+02   1.2901831E-01
      2     -206.6241540794   1.7041242E-02   7.0582733E-02
      3     -206.3925732170   2.3158086E-01   6.5055439E-02
      4     -206.7244341223  -3.3186091E-01   4.2664554E-02
      5     -206.5758955882   1.4853853E-01   4.0730992E-02
      6     -207.1144228691  -5.3852728E-01   2.2511071E-02
      7     -207.1793843294  -6.4961460E-02   1.3287182E-02
      8     -207.0487462559   1.3063807E-01   2.1499762E-02
      9     -207.1839452865  -1.3519903E-01   1.1046001E-02
     10     -207.1402359376   4.3709349E-02   1.4620361E-02
     11     -207.1827952886  -4.2559351E-02   9.3112905E-03
     12     -207.1895079750  -6.7126864E-03   7.7063949E-03
     13     -207.1997973118  -1.0289337E-02   5.6087243E-03
     14     -207.1984822155   1.3150963E-03   6.1070508E-03
     15     -207.2063533423  -7.8711268E-03   3.0557495E-03
     16     -207.2087082130  -2.3548707E-03   1.8125483E-03
     17     -207.2096403211  -9.3210801E-04   4.7467706E-04
     18     -207.2094808570   1.5946407E-04   8.7614905E-04
     19     -207.2096754953  -1.9463827E-04   3.6176196E-04
     20     -207.2096938270  -1.8331707E-05   3.1272528E-04
     21     -207.2096995145  -5.6875595E-06   2.9064914E-04
     22     -207.2097201506  -2.0636080E-05   6.0789866E-05
     23     -207.2097212871  -1.1365234E-06   2.6183436E-05
     24     -207.2097214063  -1.1920380E-07   1.1250197E-05
------------------------------------------------------------

 total:                                   1.480 sec
   
   ::::::::::::::::::::::::::::::::::::::::::::::
   ::     D I P R O      C O U P L I N G S     ::
   ::::::::::::::::::::::::::::::::::::::::::::::
   
energy threshhold for near-degenerate orbitals near HOMO and LUMO considered for DIPRO:  0.300 eV
no. of orbitals within energy window of frag 1         4
no. of orbitals within energy window of frag 2         4
   
  Fragment 1 SOMO-1  Fragment 2 SOMO-1
--------------------------------------
E_mon(orb) frag1 frag2              -9.421    -9.325 eV
J(AB):               -0.014 eV
S(AB):             0.00056554 Eh
|J(AB,eff)|:            0.008 eV
   
  Fragment 1 SOMO-1  Fragment 2 SOMO 
--------------------------------------
E_mon(orb) frag1 frag2              -9.421    -9.221 eV
J(AB):                0.011 eV
S(AB):            -0.00044946 Eh
|J(AB,eff)|:            0.007 eV
   
  Fragment 1 SOMO-1  Fragment 2 LUMO 
--------------------------------------
E_mon(orb) frag1 frag2              -9.421    -9.156 eV
J(AB):               -0.004 eV
S(AB):             0.00013290 Eh
|J(AB,eff)|:            0.002 eV
   
  Fragment 1 SOMO-1  Fragment 2 LUMO+1
--------------------------------------
E_mon(orb) frag1 frag2              -9.421    -9.141 eV
J(AB):               -0.006 eV
S(AB):             0.00023814 Eh
|J(AB,eff)|:            0.004 eV
   
  Fragment 1 SOMO   Fragment 2 SOMO-1
--------------------------------------
E_mon(orb) frag1 frag2              -9.216    -9.325 eV
J(AB):               -0.000 eV
S(AB):            -0.00004907 Eh
|J(AB,eff)|:            0.001 eV
   
  Fragment 1 SOMO   Fragment 2 SOMO 
--------------------------------------
E_mon(orb) frag1 frag2              -9.216    -9.221 eV
J(AB):                0.008 eV
S(AB):            -0.00030541 Eh
|J(AB,eff)|:            0.005 eV
   
  Fragment 1 SOMO   Fragment 2 LUMO 
--------------------------------------
E_mon(orb) frag1 frag2              -9.216    -9.156 eV
J(AB):               -0.004 eV
S(AB):             0.00016630 Eh
|J(AB,eff)|:            0.002 eV
   
  Fragment 1 SOMO   Fragment 2 LUMO+1
--------------------------------------
E_mon(orb) frag1 frag2              -9.216    -9.141 eV
J(AB):               -0.004 eV
S(AB):             0.00016882 Eh
|J(AB,eff)|:            0.003 eV
   
  Fragment 1 LUMO   Fragment 2 SOMO-1
--------------------------------------
E_mon(orb) frag1 frag2              -9.160    -9.325 eV
J(AB):               -0.007 eV
S(AB):             0.00034166 Eh
|J(AB,eff)|:            0.004 eV
   
  Fragment 1 LUMO   Fragment 2 SOMO 
--------------------------------------
E_mon(orb) frag1 frag2              -9.160    -9.221 eV
J(AB):                0.007 eV
S(AB):            -0.00033879 Eh
|J(AB,eff)|:            0.004 eV
   
  Fragment 1 LUMO   Fragment 2 LUMO 
--------------------------------------
E_mon(orb) frag1 frag2              -9.160    -9.156 eV
J(AB):                0.002 eV
S(AB):            -0.00006481 Eh
|J(AB,eff)|:            0.001 eV
   
  Fragment 1 LUMO   Fragment 2 LUMO+1
--------------------------------------
E_mon(orb) frag1 frag2              -9.160    -9.141 eV
J(AB):                0.000 eV
S(AB):            -0.00000940 Eh
|J(AB,eff)|:            0.000 eV
   
  Fragment 1 LUMO+1  Fragment 2 SOMO-1
--------------------------------------
E_mon(orb) frag1 frag2              -9.144    -9.325 eV
J(AB):                0.012 eV
S(AB):            -0.00052725 Eh
|J(AB,eff)|:            0.007 eV
   
  Fragment 1 LUMO+1  Fragment 2 SOMO 
--------------------------------------
E_mon(orb) frag1 frag2              -9.144    -9.221 eV
J(AB):               -0.008 eV
S(AB):             0.00037024 Eh
|J(AB,eff)|:            0.005 eV
   
  Fragment 1 LUMO+1  Fragment 2 LUMO 
--------------------------------------
E_mon(orb) frag1 frag2              -9.144    -9.156 eV
J(AB):                0.004 eV
S(AB):            -0.00015127 Eh
|J(AB,eff)|:            0.002 eV
   
  Fragment 1 LUMO+1  Fragment 2 LUMO+1
--------------------------------------
E_mon(orb) frag1 frag2              -9.144    -9.141 eV
J(AB):                0.000 eV
S(AB):            -0.00002723 Eh
|J(AB,eff)|:            0.000 eV
   
..............................................................................
:  total |J(AB,eff)| for hole transport (occ. MOs) :               0.012 eV  :
:  total |J(AB,eff)| for charge transport (unocc. MOs) :           0.003 eV  :
:  total |J(AB,eff)| for charge transfer (CT) :                    0.012 eV  :
..............................................................................
  
 Please remember, DIPRO is not available for restart!
   
normal termination of dipro
----------------------------------------------------------
 * finished run on 2024/12/10 at 14:13:16.196     
----------------------------------------------------------
 dipro:
 * wall-time:     0 d,  0 h,  0 min,  9.584 sec
 *  cpu-time:     0 d,  0 h,  0 min, 33.357 sec
 * ratio c/w:     3.481 speedup
