      -----------------------------------------------------------      
     |                   =====================                   |     
     |                           x T B                           |     
     |                   =====================                   |     
     |                         S. Grimme                         |     
     |          Mulliken Center for Theoretical Chemistry        |     
     |                    University of Bonn                     |     
      -----------------------------------------------------------      

   * xtb version 6.6.1 (8d0f1dd) compiled by 'runner@Mac-1690902418499.local' on 2023-08-01

   xtb is free software: you can redistribute it and/or modify it under
   the terms of the GNU Lesser General Public License as published by
   the Free Software Foundation, either version 3 of the License, or
   (at your option) any later version.
   
   xtb is distributed in the hope that it will be useful,
   but WITHOUT ANY WARRANTY; without even the implied warranty of
   MERCHANTABILITY or FITNESS FOR A PARTICULAR PURPOSE.  See the
   GNU Lesser General Public License for more details.
   
   Cite this work as:
   * C. Bannwarth, E. Caldeweyher, S. Ehlert, A. Hansen, P. Pracht,
     J. Seibert, S. Spicher, S. Grimme, WIREs Comput. Mol. Sci., 2020, 11,
     e01493. DOI: 10.1002/wcms.1493
   
   for GFN2-xTB:
   * C. Bannwarth, S. Ehlert and S. Grimme., J. Chem. Theory Comput., 2019,
     15, 1652-1671. DOI: 10.1021/acs.jctc.8b01176
   for GFN1-xTB:
   * S. Grimme, C. Bannwarth, P. Shushkov, J. Chem. Theory Comput., 2017,
     13, 1989-2009. DOI: 10.1021/acs.jctc.7b00118
   for GFN0-xTB:
   * P. Pracht, E. Caldeweyher, S. Ehlert, S. Grimme, ChemRxiv, 2019, preprint.
     DOI: 10.26434/chemrxiv.8326202.v1
   for GFN-FF:
   * S. Spicher and S. Grimme, Angew. Chem. Int. Ed., 2020, 59, 15665-15673.
     DOI: 10.1002/anie.202004239
   
   for ALPB and GBSA implicit solvation:
   * S. Ehlert, M. Stahn, S. Spicher, S. Grimme, J. Chem. Theory Comput.,
     2021, 17, 4250-4261. DOI: 10.1021/acs.jctc.1c00471
   
   for DFT-D4:
   * E. Caldeweyher, C. Bannwarth and S. Grimme, J. Chem. Phys., 2017,
     147, 034112. DOI: 10.1063/1.4993215
   * E. Caldeweyher, S. Ehlert, A. Hansen, H. Neugebauer, S. Spicher,
     C. Bannwarth and S. Grimme, J. Chem. Phys., 2019, 150, 154122.
     DOI: 10.1063/1.5090222
   * E. Caldeweyher, J.-M. Mewes, S. Ehlert and S. Grimme, Phys. Chem. Chem. Phys.
     2020, 22, 8499-8512. DOI: 10.1039/D0CP00502A
   
   for sTDA-xTB:
   * S. Grimme and C. Bannwarth, J. Chem. Phys., 2016, 145, 054103.
     DOI: 10.1063/1.4959605
   
   in the mass-spec context:
   * V. Asgeirsson, C. Bauer and S. Grimme, Chem. Sci., 2017, 8, 4879.
     DOI: 10.1039/c7sc00601b
   * J. Koopman and S. Grimme, ACS Omega 2019, 4, 12, 15120-15133.
     DOI: 10.1021/acsomega.9b02011
   
   for metadynamics refer to:
   * S. Grimme, J. Chem. Theory Comput., 2019, 155, 2847-2862
     DOI: 10.1021/acs.jctc.9b00143
   
   for SPH calculations refer to:
   * S. Spicher and S. Grimme, J. Chem. Theory Comput., 2021, 17, 1701-1714
     DOI: 10.1021/acs.jctc.0c01306
   
   with help from (in alphabetical order)
   P. Atkinson, C. Bannwarth, F. Bohle, G. Brandenburg, E. Caldeweyher
   M. Checinski, S. Dohm, S. Ehlert, S. Ehrlich, I. Gerasimov, C. Hölzer
   A. Katbashev, J. Koopman, C. Lavigne, S. Lehtola, F. März, M. Müller,
   F. Musil, H. Neugebauer, J. Pisarek, C. Plett, P. Pracht, F. Pultar,
   J. Seibert, P. Shushkov, S. Spicher, M. Stahn, M. Steiner, T. Strunk,
   J. Stückrath, T. Rose, and J. Unsleber
   
 * started run on 2024/11/07 at 15:56:39.106     

           -------------------------------------------------
          |                Calculation Setup                |
           -------------------------------------------------

          program call               : xtb stacked_dimer_Base2tBu.mol --opt --gfn2 --chrg 0 --uhf 1 --tight
          coordinate file            : stacked_dimer_Base2tBu.mol
          omp threads                :                     8

   ID    Z sym.   atoms
    1    6 C      1-9, 11, 12, 14-21, 23-31, 33, 34, 36-43, 47, 48, 50-73,
                  77, 81, 152-160, 162, 163, 165-172, 174-182, 184, 185,
                  187-194, 198, 199, 201-224, 228, 232
    2    7 N      10, 13, 32, 35, 46, 49, 161, 164, 183, 186, 197, 200
    3    8 O      22, 44, 173, 195
    4    5 B      45, 196
    5    1 H      74-76, 78-80, 82-151, 225-227, 229-231, 233-302

molecular fragmentation (1/2 indicates fragments):
111111111111111111111111111111111111111111111111111111111111111111111111
111111111111111111111111111111111111111111111111111111111111111111111111
111111122222222222222222222222222222222222222222222222222222222222222222
222222222222222222222222222222222222222222222222222222222222222222222222
22222222222222
# atoms in fragment 1/2:   151   151
 fragment masses (1/2) :      996.16      996.16
CMA distance (Bohr)    :  18.719
constraining FC (au)   :  0.0500
########################################################################
[WARNING] Please study the warnings concerning your input carefully
-2- prog_main: Charge in sdf/mol input was overwritten
-1- prog_main_parseArguments: Unknown option '--tight' provided
########################################################################

           -------------------------------------------------
          |                 G F N 2 - x T B                 |
           -------------------------------------------------

        Reference                      10.1021/acs.jctc.8b01176
      * Hamiltonian:
        H0-scaling (s, p, d)           1.850000    2.230000    2.230000
        zeta-weighting                 0.500000
      * Dispersion:
        s8                             2.700000
        a1                             0.520000
        a2                             5.000000
        s9                             5.000000
      * Repulsion:
        kExp                           1.500000    1.000000
        rExp                           1.000000
      * Coulomb:
        alpha                          2.000000
        third order                    shell-resolved
        anisotropic                    true
        a3                             3.000000
        a5                             4.000000
        cn-shift                       1.200000
        cn-exp                         4.000000
        max-rad                        5.000000


          ...................................................
          :                      SETUP                      :
          :.................................................:
          :  # basis functions                 752          :
          :  # atomic orbitals                 752          :
          :  # shells                          452          :
          :  # electrons                       770          :
          :  max. iterations                   250          :
          :  Hamiltonian                  GFN2-xTB          :
          :  restarted?                      false          :
          :  GBSA solvation                  false          :
          :  PC potential                    false          :
          :  electronic temp.          300.0000000     K    :
          :  accuracy                    1.0000000          :
          :  -> integral cutoff          0.2500000E+02      :
          :  -> integral neglect         0.1000000E-07      :
          :  -> SCF convergence          0.1000000E-05 Eh   :
          :  -> wf. convergence          0.1000000E-03 e    :
          :  Broyden damping             0.4000000          :
          ...................................................

 iter      E             dE          RMSdq      gap      omega  full diag
   1   -420.2160355 -0.420216E+03  0.377E+00    0.00       0.0  T
   2   -420.0645934  0.151442E+00  0.238E+00    0.05       1.0  T
   3   -416.5426206  0.352197E+01  0.244E+00    0.03       1.0  T
   4   -416.5896465 -0.470259E-01  0.202E+00    0.06       1.0  T
   5   -418.0629545 -0.147331E+01  0.150E+00    0.12       1.0  T
   6   -419.4505605 -0.138761E+01  0.128E+00    0.07       1.0  T
   7   -420.4875779 -0.103702E+01  0.962E-01    0.49       1.0  T
   8   -420.8351025 -0.347525E+00  0.570E-01    0.05       1.0  T
   9   -420.7336199  0.101483E+00  0.616E-01    0.01       1.0  T
  10   -420.6368535  0.967663E-01  0.645E-01    0.02       1.0  T
  11   -420.8499102 -0.213057E+00  0.454E-01    0.00       1.0  T
  12   -420.7785912  0.713190E-01  0.462E-01    0.05       1.0  T
  13   -420.8585735 -0.799823E-01  0.419E-01    0.07       1.0  T
  14   -420.9350211 -0.764477E-01  0.256E-01    0.02       1.0  T
  15   -420.9440191 -0.899802E-02  0.178E-01    0.01       1.0  T
  16   -420.9385328  0.548633E-02  0.223E-01    0.01       1.0  T
  17   -420.9599284 -0.213956E-01  0.983E-02    0.01       1.0  T
  18   -420.9572097  0.271869E-02  0.106E-01    0.01       1.0  T
  19   -420.9483209  0.888878E-02  0.122E-01    0.02       1.0  T
  20   -420.9618374 -0.135165E-01  0.872E-02    0.00       1.0  T
  21   -420.9585201  0.331737E-02  0.798E-02    0.02       1.0  T
  22   -420.9632643 -0.474425E-02  0.474E-02    0.01       1.0  T
  23   -420.9654989 -0.223460E-02  0.278E-02    0.01       1.0  T
  24   -420.9656030 -0.104070E-03  0.248E-02    0.00       1.0  T
  25   -420.9659752 -0.372197E-03  0.107E-02    0.00       1.0  T
  26   -420.9658844  0.907656E-04  0.136E-02    0.00       1.0  T
  27   -420.9659825 -0.981207E-04  0.830E-03    0.00       1.0  T
  28   -420.9660567 -0.741598E-04  0.194E-03    0.00       3.0  T
  29   -420.9660577 -0.102379E-05  0.109E-03    0.00       5.3  T
  30   -420.9660546  0.310115E-05  0.193E-03    0.00       3.0  T
  31   -420.9660588 -0.416045E-05  0.659E-04    0.00       8.7  T
  32   -420.9660591 -0.362982E-06  0.146E-04    0.00      39.4  T
  33   -420.9660591 -0.186731E-08  0.141E-04    0.00      40.8  T

   *** convergence criteria satisfied after 33 iterations ***

         #    Occupation            Energy/Eh            Energy/eV
      -------------------------------------------------------------
         1        2.0000           -0.6752856             -18.3755
       ...           ...                  ...                  ...
       379        2.0000           -0.3512060              -9.5568
       380        2.0000           -0.3510234              -9.5518
       381        2.0000           -0.3465366              -9.4297
       382        2.0000           -0.3464217              -9.4266
       383        1.6520           -0.3369733              -9.1695
       384        1.6306           -0.3369043              -9.1676
       385        1.0582           -0.3356044              -9.1323 (HOMO)
       386        1.0287           -0.3355483              -9.1307 (LUMO)
       387        0.3233           -0.3339298              -9.0867
       388        0.3073           -0.3338727              -9.0851
       389                         -0.2717697              -7.3952
       390                         -0.2716221              -7.3912
       ...                                ...                  ...
       752                          0.7102369              19.3265
      -------------------------------------------------------------
                  HL-Gap            0.0000560 Eh            0.0015 eV
             Fermi-level           -0.3354937 Eh           -9.1292 eV

 SCC (total)                   0 d,  0 h,  0 min,  8.359 sec
 SCC setup                      ...        0 min,  0.003 sec (  0.042%)
 Dispersion                     ...        0 min,  0.018 sec (  0.221%)
 classical contributions        ...        0 min,  0.003 sec (  0.031%)
 integral evaluation            ...        0 min,  0.036 sec (  0.436%)
 iterations                     ...        0 min,  7.807 sec ( 93.405%)
 molecular gradient             ...        0 min,  0.452 sec (  5.405%)
 printout                       ...        0 min,  0.038 sec (  0.460%)

         :::::::::::::::::::::::::::::::::::::::::::::::::::::
         ::                     SUMMARY                     ::
         :::::::::::::::::::::::::::::::::::::::::::::::::::::
         :: total energy            -414.430169016528 Eh    ::
         :: gradient norm              0.006015061061 Eh/a0 ::
         :: HOMO-LUMO gap              0.001524340013 eV    ::
         ::.................................................::
         :: SCC energy              -420.966059145881 Eh    ::
         :: -> isotropic ES            0.299291686926 Eh    ::
         :: -> anisotropic ES          0.055109647937 Eh    ::
         :: -> anisotropic XC          0.233972581141 Eh    ::
         :: -> dispersion             -0.445575341161 Eh    ::
         :: repulsion energy           6.511803146130 Eh    ::
         :: add. restraining           0.000000000000 Eh    ::
         :: total charge               0.000000000135 e     ::
         :::::::::::::::::::::::::::::::::::::::::::::::::::::

      ----------------------------------------------------------- 
     |                   =====================                   |
     |                        A N C O P T                        |
     |                   =====================                   |
     |               Approximate Normal Coordinate               |
     |                Rational Function Optimizer                |
      ----------------------------------------------------------- 

          ...................................................
          :                      SETUP                      :
          :.................................................:
          :   optimization level            normal          :
          :   max. optcycles                   906          :
          :   ANC micro-cycles                  20          :
          :   degrees of freedom               900          :
          :.................................................:
          :   RF solver                   davidson          :
          :   write xtbopt.log                true          :
          :   linear?                        false          :
          :   energy convergence         0.5000000E-05 Eh   :
          :   grad. convergence          0.1000000E-02 Eh/α :
          :   maxmium RF displ.          1.0000000          :
          :   Hlow (freq-cutoff)         0.1000000E-01      :
          :   Hmax (freq-cutoff)         5.0000000          :
          :   S6 in model hess.         20.0000000          :
          ...................................................

generating ANC from model Hessian ...
Using Lindh-Hessian (1995)
 Shifting diagonal of input Hessian by    1.0322614327249735E-002
 Lowest  eigenvalues of input Hessian
    0.010000    0.010303    0.010313    0.010317    0.000000    0.000000
    0.000000    0.000000    0.000000    0.000000    0.010330    0.010347
    0.010371    0.010376    0.010379    0.010385    0.010414    0.010419
 Highest eigenvalues
    2.188927    2.188973    2.191655    2.191688    2.194563    2.194567


........................................................................
.............................. CYCLE    1 ..............................
........................................................................

 iter      E             dE          RMSdq      gap      omega  full diag
   1   -420.9660592 -0.420966E+03  0.617E-05    0.00       0.0  T
   2   -420.9660551  0.400668E-05  0.180E-03    0.00       3.2  T
   3   -420.9660591 -0.395098E-05  0.252E-04    0.00      22.8  T
   4   -420.9660591 -0.446134E-07  0.120E-04    0.00      48.0  T
   5   -420.9660591  0.450189E-08  0.125E-04    0.00      45.9  T
     SCC iter.                  ...        0 min,  0.922 sec
     gradient                   ...        0 min,  0.446 sec
 * total energy  :  -414.4301690 Eh     change        0.5734705E-08 Eh
   gradient norm :     0.0060169 Eh/α   predicted     0.0000000E+00 (-100.00%)
   displ. norm   :     0.2148578 α      lambda       -0.8347757E-03
   maximum displ.:     0.1454425 α      in ANC's #1, #161, #8, ...

........................................................................
.............................. CYCLE    2 ..............................
........................................................................

 iter      E             dE          RMSdq      gap      omega  full diag
   1   -420.9673964 -0.420967E+03  0.297E-02    0.00       0.0  T
   2   -420.8158530  0.151543E+00  0.351E-01    0.01       1.0  T
   3   -420.9533377 -0.137485E+00  0.149E-01    0.02       1.0  T
   4   -420.9636618 -0.103241E-01  0.715E-02    0.00       1.0  T
   5   -420.9622863  0.137553E-02  0.777E-02    0.00       1.0  T
   6   -420.9654896 -0.320331E-02  0.588E-02    0.00       1.0  T
   7   -420.9622584  0.323118E-02  0.869E-02    0.00       1.0  T
   8   -420.9663273 -0.406890E-02  0.470E-02    0.00       1.0  T
   9   -420.9673798 -0.105253E-02  0.254E-02    0.00       1.0  T
  10   -420.9674441 -0.643070E-04  0.197E-02    0.00       1.0  T
  11   -420.9677819 -0.337766E-03  0.638E-03    0.00       1.0  T
  12   -420.9677782  0.371438E-05  0.792E-03    0.00       1.0  T
  13   -420.9678053 -0.270981E-04  0.297E-03    0.00       1.9  T
  14   -420.9678157 -0.104550E-04  0.130E-03    0.00       4.4  T
  15   -420.9678168 -0.111315E-05  0.850E-04    0.00       6.8  T
  16   -420.9678173 -0.465251E-06  0.168E-04    0.00      34.3  T
  17   -420.9678173  0.265504E-07  0.236E-04    0.00      24.4  T
     SCC iter.                  ...        0 min,  3.893 sec
     gradient                   ...        0 min,  0.443 sec
 * total energy  :  -414.4306477 Eh     change       -0.4786469E-03 Eh
   gradient norm :     0.0033764 Eh/α   predicted    -0.4375098E-03 (  -8.59%)
   displ. norm   :     0.1553028 α      lambda       -0.2359431E-03
   maximum displ.:     0.1083876 α      in ANC's #1, #8, #31, ...

........................................................................
.............................. CYCLE    3 ..............................
........................................................................

 iter      E             dE          RMSdq      gap      omega  full diag
   1   -420.9678588 -0.420968E+03  0.135E-02    0.00       0.0  T
   2   -420.9479206  0.199382E-01  0.144E-01    0.02       1.0  T
   3   -420.9648366 -0.169161E-01  0.576E-02    0.01       1.0  T
   4   -420.9646542  0.182472E-03  0.552E-02    0.01       1.0  T
   5   -420.9663883 -0.173409E-02  0.395E-02    0.00       1.0  T
   6   -420.9672551 -0.866831E-03  0.322E-02    0.00       1.0  T
   7   -420.9662008  0.105427E-02  0.467E-02    0.00       1.0  T
   8   -420.9675989 -0.139803E-02  0.219E-02    0.00       1.0  T
   9   -420.9678757 -0.276816E-03  0.667E-03    0.00       1.0  T
  10   -420.9678320  0.436728E-04  0.939E-03    0.00       1.0  T
  11   -420.9679067 -0.747433E-04  0.232E-03    0.00       2.5  T
  12   -420.9679066  0.100893E-06  0.255E-03    0.00       2.3  T
  13   -420.9679108 -0.413015E-05  0.446E-04    0.00      12.9  T
  14   -420.9679109 -0.141721E-06  0.120E-04    0.00      48.0  T
  15   -420.9679109 -0.459579E-09  0.111E-04    0.00      51.9  T
     SCC iter.                  ...        0 min,  2.495 sec
     gradient                   ...        0 min,  0.446 sec
 * total energy  :  -414.4308433 Eh     change       -0.1956293E-03 Eh
   gradient norm :     0.0021949 Eh/α   predicted    -0.1208251E-03 ( -38.24%)
   displ. norm   :     0.2772401 α      lambda       -0.3184843E-03
   maximum displ.:     0.1774398 α      in ANC's #1, #8, #31, ...

........................................................................
.............................. CYCLE    4 ..............................
........................................................................

 iter      E             dE          RMSdq      gap      omega  full diag
   1   -420.9672406 -0.420967E+03  0.192E-02    0.00       0.0  T
   2   -420.9519902  0.152504E-01  0.141E-01    0.01       1.0  T
   3   -420.9657219 -0.137317E-01  0.470E-02    0.00       1.0  T
   4   -420.9654208  0.301124E-03  0.476E-02    0.00       1.0  T
   5   -420.9437901  0.216308E-01  0.145E-01    0.03       1.0  T
   6   -420.9628171 -0.190271E-01  0.722E-02    0.01       1.0  T
   7   -420.9617398  0.107732E-02  0.754E-02    0.01       1.0  T
   8   -420.9667369 -0.499710E-02  0.288E-02    0.00       1.0  T
   9   -420.9672621 -0.525195E-03  0.702E-03    0.00       1.0  T
  10   -420.9672718 -0.966056E-05  0.567E-03    0.00       1.0  T
  11   -420.9672856 -0.138560E-04  0.313E-03    0.00       1.8  T
  12   -420.9672837  0.188109E-05  0.346E-03    0.00       1.7  T
  13   -420.9672924 -0.869425E-05  0.762E-04    0.00       7.6  T
  14   -420.9672924  0.413113E-07  0.607E-04    0.00       9.5  T
  15   -420.9672927 -0.338450E-06  0.292E-04    0.00      19.7  T
     SCC iter.                  ...        0 min,  2.636 sec
     gradient                   ...        0 min,  0.444 sec
 * total energy  :  -414.4310923 Eh     change       -0.2490269E-03 Eh
   gradient norm :     0.0023272 Eh/α   predicted    -0.1715016E-03 ( -31.13%)
   displ. norm   :     0.3314922 α      lambda       -0.2641047E-03
   maximum displ.:     0.2045804 α      in ANC's #1, #8, #31, ...

........................................................................
.............................. CYCLE    5 ..............................
........................................................................

 iter      E             dE          RMSdq      gap      omega  full diag
   1   -420.9663745 -0.420966E+03  0.190E-02    0.00       0.0  T
   2   -420.9499748  0.163996E-01  0.126E-01    0.01       1.0  T
   3   -420.9590616 -0.908672E-02  0.825E-02    0.01       1.0  T
   4   -420.9624259 -0.336431E-02  0.665E-02    0.01       1.0  T
   5   -420.9601995  0.222640E-02  0.836E-02    0.00       1.0  T
   6   -420.9625332 -0.233373E-02  0.653E-02    0.00       1.0  T
   7   -420.9616322  0.901010E-03  0.735E-02    0.00       1.0  T
   8   -420.9660573 -0.442510E-02  0.241E-02    0.00       1.0  T
   9   -420.9663745 -0.317183E-03  0.780E-03    0.00       1.0  T
  10   -420.9663241  0.503798E-04  0.124E-02    0.00       1.0  T
  11   -420.9664148 -0.907477E-04  0.199E-03    0.00       2.9  T
  12   -420.9664157 -0.837299E-06  0.219E-03    0.00       2.6  T
  13   -420.9664181 -0.244060E-05  0.697E-04    0.00       8.3  T
  14   -420.9664181 -0.156821E-07  0.527E-04    0.00      10.9  T
  15   -420.9664182 -0.132512E-07  0.456E-04    0.00      12.6  T
     SCC iter.                  ...        0 min,  2.569 sec
     gradient                   ...        0 min,  0.466 sec
 * total energy  :  -414.4312981 Eh     change       -0.2057950E-03 Eh
   gradient norm :     0.0031466 Eh/α   predicted    -0.1465642E-03 ( -28.78%)
   displ. norm   :     0.3565753 α      lambda       -0.2285340E-03
   maximum displ.:     0.2122707 α      in ANC's #1, #8, #7, ...

........................................................................
.............................. CYCLE    6 ..............................
........................................................................

 iter      E             dE          RMSdq      gap      omega  full diag
   1   -420.9659200 -0.420966E+03  0.182E-02    0.00       0.0  T
   2   -420.9277372  0.381828E-01  0.175E-01    0.02       1.0  T
   3   -420.9606507 -0.329135E-01  0.751E-02    0.01       1.0  T
   4   -420.9653905 -0.473975E-02  0.325E-02    0.01       1.0  T
   5   -420.9607366  0.465390E-02  0.846E-02    0.00       1.0  T
   6   -420.9614626 -0.726013E-03  0.769E-02    0.00       1.0  T
   7   -420.9641625 -0.269992E-02  0.453E-02    0.00       1.0  T
   8   -420.9652443 -0.108179E-02  0.308E-02    0.00       1.0  T
   9   -420.9658066 -0.562288E-03  0.153E-02    0.00       1.0  T
  10   -420.9659294 -0.122801E-03  0.848E-03    0.00       1.0  T
  11   -420.9659733 -0.439379E-04  0.272E-03    0.00       2.1  T
  12   -420.9659761 -0.275805E-05  0.266E-03    0.00       2.2  T
  13   -420.9659807 -0.460484E-05  0.428E-04    0.00      13.4  T
  14   -420.9659803  0.358583E-06  0.630E-04    0.00       9.1  T
  15   -420.9659808 -0.445716E-06  0.255E-04    0.00      22.6  T
     SCC iter.                  ...        0 min,  2.591 sec
     gradient                   ...        0 min,  0.438 sec
 * total energy  :  -414.4314819 Eh     change       -0.1837796E-03 Eh
   gradient norm :     0.0029232 Eh/α   predicted    -0.1287975E-03 ( -29.92%)
   displ. norm   :     0.4147147 α      lambda       -0.2367985E-03
   maximum displ.:     0.2355651 α      in ANC's #1, #8, #7, ...

........................................................................
.............................. CYCLE    7 ..............................
........................................................................

 iter      E             dE          RMSdq      gap      omega  full diag
   1   -420.9659545 -0.420966E+03  0.198E-02    0.00       0.0  T
   2   -420.8911401  0.748143E-01  0.248E-01    0.02       1.0  T
   3   -420.9609255 -0.697854E-01  0.773E-02    0.01       1.0  T
   4   -420.9642388 -0.331326E-02  0.495E-02    0.00       1.0  T
   5   -420.9610427  0.319613E-02  0.803E-02    0.00       1.0  T
   6   -420.9625625 -0.151985E-02  0.684E-02    0.00       1.0  T
   7   -420.9628478 -0.285298E-03  0.638E-02    0.00       1.0  T
   8   -420.9652760 -0.242820E-02  0.301E-02    0.00       1.0  T
   9   -420.9658854 -0.609330E-03  0.153E-02    0.00       1.0  T
  10   -420.9659745 -0.891540E-04  0.101E-02    0.00       1.0  T
  11   -420.9660505 -0.759639E-04  0.282E-03    0.00       2.0  T
  12   -420.9660487  0.174271E-05  0.342E-03    0.00       1.7  T
  13   -420.9660581 -0.932683E-05  0.817E-04    0.00       7.0  T
  14   -420.9660570  0.105731E-05  0.114E-03    0.00       5.0  T
  15   -420.9660586 -0.161521E-05  0.355E-04    0.00      16.2  T
  16   -420.9660587 -0.107448E-06  0.929E-05    0.00      62.0  T
  17   -420.9660587 -0.203289E-08  0.571E-05    0.00     100.8  T
     SCC iter.                  ...        0 min,  3.120 sec
     gradient                   ...        0 min,  0.446 sec
 * total energy  :  -414.4316714 Eh     change       -0.1894827E-03 Eh
   gradient norm :     0.0021870 Eh/α   predicted    -0.1387649E-03 ( -26.77%)
   displ. norm   :     0.4572534 α      lambda       -0.2252175E-03
   maximum displ.:     0.2433805 α      in ANC's #1, #8, #7, ...

........................................................................
.............................. CYCLE    8 ..............................
........................................................................

 iter      E             dE          RMSdq      gap      omega  full diag
   1   -420.9662652 -0.420966E+03  0.192E-02    0.00       0.0  T
   2   -420.9157253  0.505399E-01  0.209E-01    0.02       1.0  T
   3   -420.9601111 -0.443857E-01  0.798E-02    0.01       1.0  T
   4   -420.9638156 -0.370452E-02  0.564E-02    0.00       1.0  T
   5   -420.9627451  0.107051E-02  0.667E-02    0.00       1.0  T
   6   -420.9575294  0.521570E-02  0.102E-01    0.00       1.0  T
   7   -420.9643783 -0.684887E-02  0.500E-02    0.00       1.0  T
   8   -420.9660989 -0.172062E-02  0.174E-02    0.00       1.0  T
   9   -420.9662473 -0.148437E-03  0.113E-02    0.00       1.0  T
  10   -420.9662376  0.977226E-05  0.124E-02    0.00       1.0  T
  11   -420.9663349 -0.973544E-04  0.336E-03    0.00       1.7  T
  12   -420.9663350 -0.752819E-07  0.344E-03    0.00       1.7  T
  13   -420.9663441 -0.908108E-05  0.864E-04    0.00       6.7  T
  14   -420.9663433  0.740512E-06  0.104E-03    0.00       5.5  T
  15   -420.9663447 -0.137234E-05  0.289E-04    0.00      19.9  T
  16   -420.9663448 -0.499797E-07  0.796E-05    0.00      72.3  T
  17   -420.9663448 -0.218620E-08  0.452E-05    0.00     127.3  T
     SCC iter.                  ...        0 min,  2.939 sec
     gradient                   ...        0 min,  0.444 sec
 * total energy  :  -414.4318554 Eh     change       -0.1840118E-03 Eh
   gradient norm :     0.0024399 Eh/α   predicted    -0.1361535E-03 ( -26.01%)
   displ. norm   :     0.4918216 α      lambda       -0.2291869E-03
   maximum displ.:     0.2387608 α      in ANC's #8, #1, #7, ...

........................................................................
.............................. CYCLE    9 ..............................
........................................................................

 iter      E             dE          RMSdq      gap      omega  full diag
   1   -420.9667612 -0.420967E+03  0.185E-02    0.00       0.0  T
   2   -420.9493570  0.174042E-01  0.134E-01    0.02       1.0  T
   3   -420.9625474 -0.131905E-01  0.621E-02    0.01       1.0  T
   4   -420.9621780  0.369437E-03  0.693E-02    0.01       1.0  T
   5   -420.9611985  0.979470E-03  0.814E-02    0.00       1.0  T
   6   -420.9548648  0.633379E-02  0.119E-01    0.01       1.0  T
   7   -420.9662051 -0.113404E-01  0.242E-02    0.00       1.0  T
   8   -420.9666968 -0.491652E-03  0.120E-02    0.00       1.0  T
   9   -420.9667543 -0.575774E-04  0.785E-03    0.00       1.0  T
  10   -420.9667707 -0.163100E-04  0.692E-03    0.00       1.0  T
  11   -420.9667943 -0.236404E-04  0.309E-03    0.00       1.9  T
  12   -420.9667960 -0.173161E-05  0.292E-03    0.00       2.0  T
  13   -420.9668012 -0.513647E-05  0.596E-04    0.00       9.7  T
  14   -420.9668013 -0.115415E-06  0.349E-04    0.00      16.5  T
  15   -420.9668014 -0.115446E-06  0.105E-04    0.00      54.9  T
     SCC iter.                  ...        0 min,  2.786 sec
     gradient                   ...        0 min,  0.444 sec
 * total energy  :  -414.4320518 Eh     change       -0.1964484E-03 Eh
   gradient norm :     0.0030276 Eh/α   predicted    -0.1423157E-03 ( -27.56%)
   displ. norm   :     0.5545681 α      lambda       -0.2749671E-03
   maximum displ.:     0.2727244 α      in ANC's #8, #1, #7, ...

........................................................................
.............................. CYCLE   10 ..............................
........................................................................

 iter      E             dE          RMSdq      gap      omega  full diag
   1   -420.9673640 -0.420967E+03  0.206E-02    0.00       0.0  T
   2   -420.9562652  0.110988E-01  0.116E-01    0.00       1.0  T
   3   -420.9652204 -0.895520E-02  0.478E-02    0.01       1.0  T
   4   -420.9493569  0.158635E-01  0.125E-01    0.02       1.0  T
   5   -420.9434377  0.591914E-02  0.154E-01    0.01       1.0  T
   6   -420.9621588 -0.187211E-01  0.844E-02    0.00       1.0  T
   7   -420.9666453 -0.448645E-02  0.325E-02    0.00       1.0  T
   8   -420.9672764 -0.631073E-03  0.128E-02    0.00       1.0  T
   9   -420.9672889 -0.125274E-04  0.131E-02    0.00       1.0  T
  10   -420.9673527 -0.638266E-04  0.666E-03    0.00       1.0  T
  11   -420.9673907 -0.380179E-04  0.289E-03    0.00       2.0  T
  12   -420.9673950 -0.421839E-05  0.133E-03    0.00       4.3  T
  13   -420.9673951 -0.170547E-06  0.112E-03    0.00       5.1  T
  14   -420.9673960 -0.841436E-06  0.291E-04    0.00      19.8  T
  15   -420.9673960  0.295864E-08  0.241E-04    0.00      23.9  T
     SCC iter.                  ...        0 min,  2.806 sec
     gradient                   ...        0 min,  0.443 sec
 * total energy  :  -414.4322946 Eh     change       -0.2427684E-03 Eh
   gradient norm :     0.0033889 Eh/α   predicted    -0.1797662E-03 ( -25.95%)
   displ. norm   :     0.6248962 α      lambda       -0.3364401E-03
   maximum displ.:     0.3088382 α      in ANC's #8, #7, #1, ...

........................................................................
.............................. CYCLE   11 ..............................
........................................................................

 iter      E             dE          RMSdq      gap      omega  full diag
   1   -420.9678289 -0.420968E+03  0.248E-02    0.00       0.0  T
   2   -420.9295786  0.382502E-01  0.186E-01    0.03       1.0  T
   3   -420.9638560 -0.342773E-01  0.713E-02    0.01       1.0  T
   4   -420.9614144  0.244161E-02  0.829E-02    0.02       1.0  T
   5   -420.9462136  0.152008E-01  0.150E-01    0.01       1.0  T
   6   -420.9650608 -0.188473E-01  0.665E-02    0.00       1.0  T
   7   -420.9652302 -0.169403E-03  0.596E-02    0.00       1.0  T
   8   -420.9675227 -0.229247E-02  0.224E-02    0.00       1.0  T
   9   -420.9677642 -0.241504E-03  0.147E-02    0.00       1.0  T
  10   -420.9678018 -0.375457E-04  0.104E-02    0.00       1.0  T
  11   -420.9678921 -0.903856E-04  0.345E-03    0.00       1.7  T
  12   -420.9678931 -0.973047E-06  0.340E-03    0.00       1.7  T
  13   -420.9678998 -0.668279E-05  0.999E-04    0.00       5.8  T
  14   -420.9679004 -0.576555E-06  0.483E-04    0.00      11.9  T
  15   -420.9678998  0.567242E-06  0.751E-04    0.00       7.7  T
     SCC iter.                  ...        0 min,  2.502 sec
     gradient                   ...        0 min,  0.455 sec
 * total energy  :  -414.4325914 Eh     change       -0.2967548E-03 Eh
   gradient norm :     0.0034777 Eh/α   predicted    -0.2339099E-03 ( -21.18%)
   displ. norm   :     0.6666381 α      lambda       -0.3668423E-03
   maximum displ.:     0.3317157 α      in ANC's #8, #7, #1, ...

........................................................................
.............................. CYCLE   12 ..............................
........................................................................

 iter      E             dE          RMSdq      gap      omega  full diag
   1   -420.9680395 -0.420968E+03  0.273E-02    0.00       0.0  T
   2   -420.9057639  0.622756E-01  0.228E-01    0.03       1.0  T
   3   -420.9646689 -0.589050E-01  0.715E-02    0.01       1.0  T
   4   -420.9658130 -0.114406E-02  0.588E-02    0.01       1.0  T
   5   -420.9387899  0.270231E-01  0.181E-01    0.01       1.0  T
   6   -420.9639607 -0.251708E-01  0.735E-02    0.00       1.0  T
   7   -420.9647490 -0.788274E-03  0.648E-02    0.00       1.0  T
   8   -420.9678717 -0.312276E-02  0.207E-02    0.00       1.0  T
   9   -420.9680197 -0.147950E-03  0.128E-02    0.00       1.0  T
  10   -420.9679442  0.754313E-04  0.162E-02    0.00       1.0  T
  11   -420.9681343 -0.190106E-03  0.376E-03    0.00       1.5  T
  12   -420.9681365 -0.211810E-05  0.382E-03    0.00       1.5  T
  13   -420.9681445 -0.800420E-05  0.798E-04    0.00       7.2  T
  14   -420.9681448 -0.374381E-06  0.359E-04    0.00      16.0  T
  15   -420.9681446  0.260797E-06  0.510E-04    0.00      11.3  T
     SCC iter.                  ...        0 min,  2.588 sec
     gradient                   ...        0 min,  0.439 sec
 * total energy  :  -414.4329126 Eh     change       -0.3212484E-03 Eh
   gradient norm :     0.0035578 Eh/α   predicted    -0.2649350E-03 ( -17.53%)
   displ. norm   :     0.6758126 α      lambda       -0.3567270E-03
   maximum displ.:     0.3417266 α      in ANC's #8, #7, #1, ...

........................................................................
.............................. CYCLE   13 ..............................
........................................................................

 iter      E             dE          RMSdq      gap      omega  full diag
   1   -420.9681028 -0.420968E+03  0.260E-02    0.00       0.0  T
   2   -420.9376784  0.304244E-01  0.162E-01    0.03       1.0  T
   3   -420.9630057 -0.253273E-01  0.729E-02    0.01       1.0  T
   4   -420.9627573  0.248425E-03  0.831E-02    0.01       1.0  T
   5   -420.9470256  0.157317E-01  0.159E-01    0.01       1.0  T
   6   -420.9643098 -0.172843E-01  0.722E-02    0.00       1.0  T
   7   -420.9654517 -0.114184E-02  0.577E-02    0.00       1.0  T
   8   -420.9675773 -0.212566E-02  0.281E-02    0.00       1.0  T
   9   -420.9679965 -0.419227E-03  0.125E-02    0.00       1.0  T
  10   -420.9679930  0.355206E-05  0.149E-02    0.00       1.0  T
  11   -420.9681479 -0.154946E-03  0.363E-03    0.00       1.6  T
  12   -420.9681457  0.224642E-05  0.403E-03    0.00       1.4  T
  13   -420.9681557 -0.999933E-05  0.956E-04    0.00       6.0  T
  14   -420.9681561 -0.427542E-06  0.417E-04    0.00      13.8  T
  15   -420.9681559  0.207640E-06  0.556E-04    0.00      10.4  T
     SCC iter.                  ...        0 min,  2.574 sec
     gradient                   ...        0 min,  0.442 sec
 * total energy  :  -414.4332265 Eh     change       -0.3138824E-03 Eh
   gradient norm :     0.0035628 Eh/α   predicted    -0.2598274E-03 ( -17.22%)
   displ. norm   :     0.6798214 α      lambda       -0.3518880E-03
   maximum displ.:     0.3509663 α      in ANC's #8, #7, #1, ...

........................................................................
.............................. CYCLE   14 ..............................
........................................................................

 iter      E             dE          RMSdq      gap      omega  full diag
   1   -420.9681895 -0.420968E+03  0.240E-02    0.00       0.0  T
   2   -420.9662969  0.189261E-02  0.546E-02    0.00       1.0  T
   3   -420.9612384  0.505856E-02  0.946E-02    0.01       1.0  T
   4   -420.9503122  0.109261E-01  0.126E-01    0.02       1.0  T
   5   -420.9235109  0.268013E-01  0.200E-01    0.03       1.0  T
   6   -420.9630672 -0.395563E-01  0.812E-02    0.00       1.0  T
   7   -420.9656044 -0.253717E-02  0.565E-02    0.00       1.0  T
   8   -420.9676346 -0.203020E-02  0.265E-02    0.00       1.0  T
   9   -420.9681525 -0.517986E-03  0.929E-03    0.00       1.0  T
  10   -420.9681701 -0.176050E-04  0.714E-03    0.00       1.0  T
  11   -420.9681946 -0.244034E-04  0.388E-03    0.00       1.5  T
  12   -420.9681793  0.152116E-04  0.529E-03    0.00       1.1  T
  13   -420.9682030 -0.236975E-04  0.976E-04    0.00       5.9  T
  14   -420.9682033 -0.219997E-06  0.575E-04    0.00      10.0  T
  15   -420.9682033 -0.897575E-07  0.512E-04    0.00      11.2  T
     SCC iter.                  ...        0 min,  2.616 sec
     gradient                   ...        0 min,  0.442 sec
 * total energy  :  -414.4335438 Eh     change       -0.3172964E-03 Eh
   gradient norm :     0.0032965 Eh/α   predicted    -0.2572595E-03 ( -18.92%)
   displ. norm   :     0.6976301 α      lambda       -0.3801984E-03
   maximum displ.:     0.3662829 α      in ANC's #8, #7, #1, ...

........................................................................
.............................. CYCLE   15 ..............................
........................................................................

 iter      E             dE          RMSdq      gap      omega  full diag
   1   -420.9685886 -0.420969E+03  0.239E-02    0.00       0.0  T
   2   -420.9544912  0.140974E-01  0.107E-01    0.01       1.0  T
   3   -420.9559731 -0.148185E-02  0.103E-01    0.02       1.0  T
   4   -420.9639833 -0.801018E-02  0.851E-02    0.01       1.0  T
   5   -420.9476087  0.163746E-01  0.167E-01    0.01       1.0  T
   6   -420.9675556 -0.199469E-01  0.369E-02    0.00       1.0  T
   7   -420.9658270  0.172861E-02  0.608E-02    0.00       1.0  T
   8   -420.9683538 -0.252688E-02  0.182E-02    0.00       1.0  T
   9   -420.9683616 -0.773384E-05  0.145E-02    0.00       1.0  T
  10   -420.9685357 -0.174153E-03  0.111E-02    0.00       1.0  T
  11   -420.9685956 -0.598919E-04  0.455E-03    0.00       1.3  T
  12   -420.9686096 -0.139915E-04  0.199E-03    0.00       2.9  T
  13   -420.9686104 -0.771942E-06  0.165E-03    0.00       3.5  T
  14   -420.9686102  0.154091E-06  0.137E-03    0.00       4.2  T
  15   -420.9686120 -0.176258E-05  0.313E-04    0.00      18.4  T
  16   -420.9686121 -0.834103E-07  0.869E-05    0.00      66.3  T
  17   -420.9686121 -0.243335E-08  0.522E-05    0.00     110.3  T
     SCC iter.                  ...        0 min,  3.048 sec
     gradient                   ...        0 min,  0.460 sec
 * total energy  :  -414.4338923 Eh     change       -0.3485007E-03 Eh
   gradient norm :     0.0030621 Eh/α   predicted    -0.2826190E-03 ( -18.90%)
   displ. norm   :     0.7277281 α      lambda       -0.4231949E-03
   maximum displ.:     0.3860304 α      in ANC's #8, #7, #1, ...

........................................................................
.............................. CYCLE   16 ..............................
........................................................................

 iter      E             dE          RMSdq      gap      omega  full diag
   1   -420.9691390 -0.420969E+03  0.261E-02    0.00       0.0  T
   2   -420.8986044  0.705347E-01  0.236E-01    0.02       1.0  T
   3   -420.9644302 -0.658259E-01  0.722E-02    0.02       1.0  T
   4   -420.9672070 -0.277679E-02  0.606E-02    0.01       1.0  T
   5   -420.9572598  0.994725E-02  0.129E-01    0.00       1.0  T
   6   -420.9652413 -0.798152E-02  0.753E-02    0.00       1.0  T
   7   -420.9684928 -0.325153E-02  0.310E-02    0.00       1.0  T
   8   -420.9683918  0.100984E-03  0.309E-02    0.00       1.0  T
   9   -420.9685288 -0.136926E-03  0.256E-02    0.00       1.0  T
  10   -420.9690585 -0.529750E-03  0.151E-02    0.00       1.0  T
  11   -420.9692051 -0.146589E-03  0.504E-03    0.00       1.1  T
  12   -420.9692122 -0.709445E-05  0.417E-03    0.00       1.4  T
  13   -420.9692208 -0.862977E-05  0.188E-03    0.00       3.1  T
  14   -420.9692213 -0.442689E-06  0.142E-03    0.00       4.1  T
  15   -420.9692227 -0.146139E-05  0.284E-04    0.00      20.3  T
  16   -420.9692228 -0.267191E-07  0.158E-04    0.00      36.5  T
  17   -420.9692228 -0.211198E-07  0.730E-05    0.00      78.8  T
     SCC iter.                  ...        0 min,  3.178 sec
     gradient                   ...        0 min,  0.443 sec
 * total energy  :  -414.4342788 Eh     change       -0.3865096E-03 Eh
   gradient norm :     0.0033466 Eh/α   predicted    -0.3236592E-03 ( -16.26%)
   displ. norm   :     0.7539675 α      lambda       -0.4440503E-03
   maximum displ.:     0.4028248 α      in ANC's #8, #7, #1, ...

........................................................................
.............................. CYCLE   17 ..............................
........................................................................

 iter      E             dE          RMSdq      gap      omega  full diag
   1   -420.9695280 -0.420970E+03  0.281E-02    0.00       0.0  T
   2   -420.8643820  0.105146E+00  0.289E-01    0.02       1.0  T
   3   -420.9661235 -0.101741E+00  0.669E-02    0.01       1.0  T
   4   -420.9672222 -0.109870E-02  0.624E-02    0.00       1.0  T
   5   -420.9442457  0.229765E-01  0.184E-01    0.00       1.0  T
   6   -420.9641304 -0.198847E-01  0.839E-02    0.00       1.0  T
   7   -420.9693444 -0.521403E-02  0.213E-02    0.00       1.0  T
   8   -420.9684819  0.862493E-03  0.386E-02    0.00       1.0  T
   9   -420.9690771 -0.595196E-03  0.218E-02    0.00       1.0  T
  10   -420.9695379 -0.460790E-03  0.134E-02    0.00       1.0  T
  11   -420.9696066 -0.687365E-04  0.733E-03    0.00       1.0  T
  12   -420.9696366 -0.299157E-04  0.488E-03    0.00       1.2  T
  13   -420.9696512 -0.145964E-04  0.171E-03    0.00       3.4  T
  14   -420.9696523 -0.112397E-05  0.104E-03    0.00       5.5  T
  15   -420.9696528 -0.558715E-06  0.346E-04    0.00      16.6  T
  16   -420.9696529 -0.314792E-07  0.184E-04    0.00      31.2  T
     SCC iter.                  ...        0 min,  2.859 sec
     gradient                   ...        0 min,  0.442 sec
 * total energy  :  -414.4346804 Eh     change       -0.4016504E-03 Eh
   gradient norm :     0.0038756 Eh/α   predicted    -0.3482442E-03 ( -13.30%)
   displ. norm   :     0.7577663 α      lambda       -0.4307052E-03
   maximum displ.:     0.4082876 α      in ANC's #8, #7, #12, ...

........................................................................
.............................. CYCLE   18 ..............................
........................................................................

 iter      E             dE          RMSdq      gap      omega  full diag
   1   -420.9698622 -0.420970E+03  0.277E-02    0.00       0.0  T
   2   -420.8770281  0.928341E-01  0.272E-01    0.02       1.0  T
   3   -420.9668769 -0.898488E-01  0.625E-02    0.01       1.0  T
   4   -420.9635880  0.328887E-02  0.917E-02    0.00       1.0  T
   5   -420.9526856  0.109024E-01  0.149E-01    0.00       1.0  T
   6   -420.9629038 -0.102182E-01  0.935E-02    0.00       1.0  T
   7   -420.9681232 -0.521947E-02  0.496E-02    0.00       1.0  T
   8   -420.9697405 -0.161731E-02  0.170E-02    0.00       1.0  T
   9   -420.9696129  0.127661E-03  0.238E-02    0.00       1.0  T
  10   -420.9699381 -0.325261E-03  0.728E-03    0.00       1.0  T
  11   -420.9699384 -0.238857E-06  0.756E-03    0.00       1.0  T
  12   -420.9699536 -0.152707E-04  0.439E-03    0.00       1.3  T
  13   -420.9699734 -0.197598E-04  0.140E-03    0.00       4.1  T
  14   -420.9699748 -0.138753E-05  0.502E-04    0.00      11.5  T
  15   -420.9699747  0.122940E-06  0.588E-04    0.00       9.8  T
  16   -420.9699749 -0.253671E-06  0.161E-04    0.00      35.7  T
     SCC iter.                  ...        0 min,  2.863 sec
     gradient                   ...        0 min,  0.444 sec
 * total energy  :  -414.4350698 Eh     change       -0.3893149E-03 Eh
   gradient norm :     0.0039855 Eh/α   predicted    -0.3390113E-03 ( -12.92%)
   displ. norm   :     0.7524741 α      lambda       -0.4099343E-03
   maximum displ.:     0.4089610 α      in ANC's #8, #7, #12, ...

........................................................................
.............................. CYCLE   19 ..............................
........................................................................

 iter      E             dE          RMSdq      gap      omega  full diag
   1   -420.9703904 -0.420970E+03  0.258E-02    0.00       0.0  T
   2   -420.9240399  0.463506E-01  0.194E-01    0.03       1.0  T
   3   -420.9662823 -0.422424E-01  0.658E-02    0.01       1.0  T
   4   -420.9595788  0.670349E-02  0.118E-01    0.00       1.0  T
   5   -420.9596746 -0.957807E-04  0.121E-01    0.01       1.0  T
   6   -420.9649876 -0.531300E-02  0.886E-02    0.00       1.0  T
   7   -420.9683284 -0.334081E-02  0.527E-02    0.00       1.0  T
   8   -420.9702342 -0.190585E-02  0.170E-02    0.00       1.0  T
   9   -420.9702956 -0.613408E-04  0.141E-02    0.00       1.0  T
  10   -420.9702537  0.418612E-04  0.136E-02    0.00       1.0  T
  11   -420.9704286 -0.174884E-03  0.557E-03    0.00       1.0  T
  12   -420.9704374 -0.880049E-05  0.472E-03    0.00       1.2  T
  13   -420.9704523 -0.148866E-04  0.906E-04    0.00       6.3  T
  14   -420.9704525 -0.227214E-06  0.628E-04    0.00       9.2  T
  15   -420.9704526 -0.116716E-06  0.408E-04    0.00      14.1  T
     SCC iter.                  ...        0 min,  2.694 sec
     gradient                   ...        0 min,  0.439 sec
 * total energy  :  -414.4354404 Eh     change       -0.3706578E-03 Eh
   gradient norm :     0.0035567 Eh/α   predicted    -0.3210244E-03 ( -13.39%)
   displ. norm   :     0.7436180 α      lambda       -0.3894781E-03
   maximum displ.:     0.4068149 α      in ANC's #8, #7, #6, ...

........................................................................
.............................. CYCLE   20 ..............................
........................................................................

 iter      E             dE          RMSdq      gap      omega  full diag
   1   -420.9711639 -0.420971E+03  0.243E-02    0.00       0.0  T
   2   -420.9563226  0.148413E-01  0.119E-01    0.02       1.0  T
   3   -420.9632448 -0.692221E-02  0.818E-02    0.02       1.0  T
   4   -420.9567937  0.645106E-02  0.124E-01    0.01       1.0  T
   5   -420.9620198 -0.522607E-02  0.119E-01    0.00       1.0  T
   6   -420.9682954 -0.627561E-02  0.629E-02    0.00       1.0  T
   7   -420.9680668  0.228594E-03  0.621E-02    0.00       1.0  T
   8   -420.9710717 -0.300483E-02  0.129E-02    0.00       1.0  T
   9   -420.9711096 -0.378866E-04  0.106E-02    0.00       1.0  T
  10   -420.9711615 -0.519032E-04  0.602E-03    0.00       1.0  T
  11   -420.9711741 -0.126161E-04  0.582E-03    0.00       1.0  T
  12   -420.9711958 -0.216963E-04  0.182E-03    0.00       3.2  T
  13   -420.9711981 -0.231387E-05  0.613E-04    0.00       9.4  T
  14   -420.9711970  0.109419E-05  0.142E-03    0.00       4.0  T
  15   -420.9711980 -0.104149E-05  0.502E-04    0.00      11.5  T
  16   -420.9711983 -0.232879E-06  0.115E-04    0.00      50.1  T
  17   -420.9711983 -0.706171E-08  0.561E-05    0.00     102.5  T
     SCC iter.                  ...        0 min,  2.914 sec
     gradient                   ...        0 min,  0.443 sec
 * total energy  :  -414.4357909 Eh     change       -0.3505070E-03 Eh
   gradient norm :     0.0029499 Eh/α   predicted    -0.3024250E-03 ( -13.72%)
   displ. norm   :     0.7324259 α      lambda       -0.3629492E-03
   maximum displ.:     0.4024287 α      in ANC's #8, #7, #6, ...
 * RMSD in coord.:     0.5786624 α      energy gain  -0.5621906E-02 Eh

generating ANC from model Hessian ...
Using Lindh-Hessian (1995)
 Shifting diagonal of input Hessian by    1.0019313301352958E-002
 Lowest  eigenvalues of input Hessian
    0.010000    0.010009    0.010013    0.000000    0.000000    0.000000
    0.000000    0.000000    0.000000    0.010030    0.010043    0.010052
    0.010081    0.010082    0.010102    0.010105    0.010130    0.010159
 Highest eigenvalues
    2.187788    2.189828    2.191503    2.192388    2.193688    2.193925


........................................................................
.............................. CYCLE   21 ..............................
........................................................................

 iter      E             dE          RMSdq      gap      omega  full diag
   1   -420.9719833 -0.420972E+03  0.239E-02    0.00       0.0  T
   2   -420.9648660  0.711733E-02  0.985E-02    0.00       1.0  T
   3   -420.9693274 -0.446140E-02  0.608E-02    0.00       1.0  T
   4   -420.9599427  0.938466E-02  0.114E-01    0.02       1.0  T
   5   -420.8965593  0.633834E-01  0.249E-01    0.02       1.0  T
   6   -420.9699545 -0.733952E-01  0.551E-02    0.00       1.0  T
   7   -420.9711865 -0.123196E-02  0.303E-02    0.00       1.0  T
   8   -420.9715612 -0.374730E-03  0.231E-02    0.00       1.0  T
   9   -420.9715209  0.403340E-04  0.239E-02    0.00       1.0  T
  10   -420.9719147 -0.393871E-03  0.126E-02    0.00       1.0  T
  11   -420.9719746 -0.598434E-04  0.644E-03    0.00       1.0  T
  12   -420.9720073 -0.326739E-04  0.401E-03    0.00       1.4  T
  13   -420.9720171 -0.979344E-05  0.150E-03    0.00       3.8  T
  14   -420.9720182 -0.117163E-05  0.650E-04    0.00       8.9  T
  15   -420.9720183 -0.561050E-07  0.514E-04    0.00      11.2  T
  16   -420.9720185 -0.183390E-06  0.106E-04    0.00      54.3  T
     SCC iter.                  ...        0 min,  2.679 sec
     gradient                   ...        0 min,  0.439 sec
 * total energy  :  -414.4361137 Eh     change       -0.3227470E-03 Eh
   gradient norm :     0.0027266 Eh/α   predicted     0.0000000E+00 (-100.00%)
   displ. norm   :     0.0656012 α      lambda       -0.6528978E-04
   maximum displ.:     0.0289571 α      in ANC's #12, #9, #10, ...

........................................................................
.............................. CYCLE   22 ..............................
........................................................................

 iter      E             dE          RMSdq      gap      omega  full diag
   1   -420.9726345 -0.420973E+03  0.567E-03    0.00       0.0  T
   2   -420.9702096  0.242496E-02  0.474E-02    0.01       1.0  T
   3   -420.9717825 -0.157292E-02  0.271E-02    0.00       1.0  T
   4   -420.9724851 -0.702651E-03  0.140E-02    0.00       1.0  T
   5   -420.9719723  0.512821E-03  0.283E-02    0.00       1.0  T
   6   -420.9723330 -0.360656E-03  0.174E-02    0.00       1.0  T
   7   -420.9725681 -0.235108E-03  0.939E-03    0.00       1.0  T
   8   -420.9726180 -0.499494E-04  0.572E-03    0.00       1.0  T
   9   -420.9726356 -0.175434E-04  0.231E-03    0.00       2.5  T
  10   -420.9726355  0.176664E-07  0.210E-03    0.00       2.7  T
  11   -420.9726385 -0.300336E-05  0.764E-04    0.00       7.5  T
  12   -420.9726380  0.565785E-06  0.128E-03    0.00       4.5  T
  13   -420.9726390 -0.994725E-06  0.150E-04    0.00      38.4  T
  14   -420.9726390 -0.174501E-07  0.552E-05    0.00     104.2  T
     SCC iter.                  ...        0 min,  2.458 sec
     gradient                   ...        0 min,  0.441 sec
 * total energy  :  -414.4361732 Eh     change       -0.5953367E-04 Eh
   gradient norm :     0.0016755 Eh/α   predicted    -0.3289476E-04 ( -44.75%)
   displ. norm   :     0.4945968 α      lambda       -0.2622589E-03
   maximum displ.:     0.2147381 α      in ANC's #12, #9, #11, ...

........................................................................
.............................. CYCLE   23 ..............................
........................................................................

 iter      E             dE          RMSdq      gap      omega  full diag
   1   -420.9734692 -0.420973E+03  0.391E-02    0.00       0.0  T
   2   -420.8220930  0.151376E+00  0.357E-01    0.03       1.0  T
   3   -420.9551760 -0.133083E+00  0.140E-01    0.02       1.0  T
   4   -420.9715031 -0.163272E-01  0.569E-02    0.00       1.0  T
   5   -420.9229696  0.485335E-01  0.254E-01    0.02       1.0  T
   6   -420.9694150 -0.464454E-01  0.800E-02    0.00       1.0  T
   7   -420.9711401 -0.172510E-02  0.562E-02    0.00       1.0  T
   8   -420.9717246 -0.584503E-03  0.476E-02    0.00       1.0  T
   9   -420.9726035 -0.878887E-03  0.321E-02    0.00       1.0  T
  10   -420.9736348 -0.103126E-02  0.129E-02    0.00       1.0  T
  11   -420.9737262 -0.913762E-04  0.649E-03    0.00       1.0  T
  12   -420.9737047  0.214481E-04  0.884E-03    0.00       1.0  T
  13   -420.9737510 -0.463074E-04  0.186E-03    0.00       3.1  T
  14   -420.9737523 -0.125666E-05  0.106E-03    0.00       5.4  T
  15   -420.9737523  0.244818E-07  0.938E-04    0.00       6.1  T
  16   -420.9737530 -0.721912E-06  0.312E-04    0.00      18.5  T
     SCC iter.                  ...        0 min,  2.853 sec
     gradient                   ...        0 min,  0.443 sec
 * total energy  :  -414.4363846 Eh     change       -0.2113761E-03 Eh
   gradient norm :     0.0047231 Eh/α   predicted    -0.1453883E-03 ( -31.22%)
   displ. norm   :     0.1361772 α      lambda       -0.7700201E-04
   maximum displ.:     0.0666761 α      in ANC's #12, #9, #11, ...

........................................................................
.............................. CYCLE   24 ..............................
........................................................................

 iter      E             dE          RMSdq      gap      omega  full diag
   1   -420.9738080 -0.420974E+03  0.831E-03    0.00       0.0  T
   2   -420.9619066  0.119013E-01  0.986E-02    0.01       1.0  T
   3   -420.9724978 -0.105912E-01  0.389E-02    0.01       1.0  T
   4   -420.9734879 -0.990139E-03  0.214E-02    0.00       1.0  T
   5   -420.9729964  0.491548E-03  0.314E-02    0.00       1.0  T
   6   -420.9734718 -0.475492E-03  0.226E-02    0.00       1.0  T
   7   -420.9735870 -0.115199E-03  0.163E-02    0.00       1.0  T
   8   -420.9738063 -0.219233E-03  0.567E-03    0.00       1.0  T
   9   -420.9738073 -0.978261E-06  0.421E-03    0.00       1.4  T
  10   -420.9738248 -0.175871E-04  0.190E-03    0.00       3.0  T
  11   -420.9738271 -0.221472E-05  0.946E-04    0.00       6.1  T
  12   -420.9738272 -0.117757E-06  0.889E-04    0.00       6.5  T
  13   -420.9738277 -0.512375E-06  0.200E-04    0.00      28.8  T
     SCC iter.                  ...        0 min,  2.242 sec
     gradient                   ...        0 min,  0.444 sec
 * total energy  :  -414.4364569 Eh     change       -0.7236662E-04 Eh
   gradient norm :     0.0039703 Eh/α   predicted    -0.3921527E-04 ( -45.81%)
   displ. norm   :     0.4496775 α      lambda       -0.2808421E-03
   maximum displ.:     0.2153132 α      in ANC's #12, #9, #11, ...

........................................................................
.............................. CYCLE   25 ..............................
........................................................................

 iter      E             dE          RMSdq      gap      omega  full diag
   1   -420.9732537 -0.420973E+03  0.265E-02    0.00       0.0  T
   2   -420.9058368  0.674169E-01  0.243E-01    0.02       1.0  T
   3   -420.9573236 -0.514867E-01  0.138E-01    0.02       1.0  T
   4   -420.9695681 -0.122446E-01  0.715E-02    0.01       1.0  T
   5   -420.9669015  0.266659E-02  0.794E-02    0.01       1.0  T
   6   -420.9527082  0.141933E-01  0.156E-01    0.02       1.0  T
   7   -420.9728493 -0.201411E-01  0.300E-02    0.00       1.0  T
   8   -420.9730325 -0.183182E-03  0.266E-02    0.00       1.0  T
   9   -420.9729426  0.898980E-04  0.210E-02    0.00       1.0  T
  10   -420.9732511 -0.308479E-03  0.151E-02    0.00       1.0  T
  11   -420.9734533 -0.202202E-03  0.387E-03    0.00       1.5  T
  12   -420.9734607 -0.734543E-05  0.170E-03    0.00       3.4  T
  13   -420.9734609 -0.190066E-06  0.194E-03    0.00       3.0  T
  14   -420.9734623 -0.149136E-05  0.993E-04    0.00       5.8  T
  15   -420.9734628 -0.474118E-06  0.658E-04    0.00       8.7  T
  16   -420.9734631 -0.264737E-06  0.301E-04    0.00      19.1  T
     SCC iter.                  ...        0 min,  2.944 sec
     gradient                   ...        0 min,  0.443 sec
 * total energy  :  -414.4366832 Eh     change       -0.2262758E-03 Eh
   gradient norm :     0.0021273 Eh/α   predicted    -0.1688456E-03 ( -25.38%)
   displ. norm   :     0.5504105 α      lambda       -0.2335613E-03
   maximum displ.:     0.2669236 α      in ANC's #12, #9, #11, ...

........................................................................
.............................. CYCLE   26 ..............................
........................................................................

 iter      E             dE          RMSdq      gap      omega  full diag
   1   -420.9721486 -0.420972E+03  0.284E-02    0.00       0.0  T
   2   -420.9089459  0.632028E-01  0.239E-01    0.02       1.0  T
   3   -420.9555977 -0.466519E-01  0.135E-01    0.02       1.0  T
   4   -420.9667852 -0.111875E-01  0.846E-02    0.01       1.0  T
   5   -420.9595053  0.727992E-02  0.111E-01    0.01       1.0  T
   6   -420.9543853  0.511998E-02  0.145E-01    0.01       1.0  T
   7   -420.9714452 -0.170598E-01  0.364E-02    0.00       1.0  T
   8   -420.9719953 -0.550127E-03  0.234E-02    0.00       1.0  T
   9   -420.9717139  0.281455E-03  0.237E-02    0.00       1.0  T
  10   -420.9720199 -0.306075E-03  0.178E-02    0.00       1.0  T
  11   -420.9723038 -0.283886E-03  0.642E-03    0.00       1.0  T
  12   -420.9723253 -0.215236E-04  0.262E-03    0.00       2.2  T
  13   -420.9723267 -0.139520E-05  0.206E-03    0.00       2.8  T
  14   -420.9723292 -0.241419E-05  0.711E-04    0.00       8.1  T
  15   -420.9723290  0.108337E-06  0.786E-04    0.00       7.3  T
  16   -420.9723294 -0.351793E-06  0.320E-04    0.00      18.0  T
     SCC iter.                  ...        0 min,  2.827 sec
     gradient                   ...        0 min,  0.445 sec
 * total energy  :  -414.4368705 Eh     change       -0.1873088E-03 Eh
   gradient norm :     0.0036539 Eh/α   predicted    -0.1521680E-03 ( -18.76%)
   displ. norm   :     0.5237264 α      lambda       -0.1830331E-03
   maximum displ.:     0.2573959 α      in ANC's #12, #9, #11, ...

........................................................................
.............................. CYCLE   27 ..............................
........................................................................

 iter      E             dE          RMSdq      gap      omega  full diag
   1   -420.9719249 -0.420972E+03  0.235E-02    0.00       0.0  T
   2   -420.9327053  0.392195E-01  0.186E-01    0.02       1.0  T
   3   -420.9608691 -0.281638E-01  0.105E-01    0.02       1.0  T
   4   -420.9668593 -0.599021E-02  0.817E-02    0.01       1.0  T
   5   -420.9589320  0.792729E-02  0.119E-01    0.01       1.0  T
   6   -420.9670864 -0.815437E-02  0.772E-02    0.00       1.0  T
   7   -420.9712999 -0.421354E-02  0.312E-02    0.00       1.0  T
   8   -420.9718190 -0.519022E-03  0.173E-02    0.00       1.0  T
   9   -420.9716994  0.119567E-03  0.169E-02    0.00       1.0  T
  10   -420.9718965 -0.197093E-03  0.117E-02    0.00       1.0  T
  11   -420.9719931 -0.965861E-04  0.517E-03    0.00       1.1  T
  12   -420.9720054 -0.123451E-04  0.255E-03    0.00       2.3  T
  13   -420.9720076 -0.221243E-05  0.154E-03    0.00       3.7  T
  14   -420.9720089 -0.128975E-05  0.633E-04    0.00       9.1  T
  15   -420.9720091 -0.150563E-06  0.499E-04    0.00      11.5  T
  16   -420.9720093 -0.201261E-06  0.187E-04    0.00      30.8  T
     SCC iter.                  ...        0 min,  2.881 sec
     gradient                   ...        0 min,  0.445 sec
 * total energy  :  -414.4370290 Eh     change       -0.1584929E-03 Eh
   gradient norm :     0.0040808 Eh/α   predicted    -0.1166230E-03 ( -26.42%)
   displ. norm   :     0.5469767 α      lambda       -0.2074295E-03
   maximum displ.:     0.2723522 α      in ANC's #12, #9, #10, ...

........................................................................
.............................. CYCLE   28 ..............................
........................................................................

 iter      E             dE          RMSdq      gap      omega  full diag
   1   -420.9729198 -0.420973E+03  0.216E-02    0.00       0.0  T
   2   -420.9505862  0.223336E-01  0.139E-01    0.02       1.0  T
   3   -420.9639103 -0.133241E-01  0.894E-02    0.02       1.0  T
   4   -420.9664035 -0.249319E-02  0.917E-02    0.01       1.0  T
   5   -420.9541690  0.122345E-01  0.154E-01    0.01       1.0  T
   6   -420.9726852 -0.185161E-01  0.216E-02    0.00       1.0  T
   7   -420.9727903 -0.105158E-03  0.151E-02    0.00       1.0  T
   8   -420.9727199  0.704696E-04  0.180E-02    0.00       1.0  T
   9   -420.9727644 -0.445109E-04  0.150E-02    0.00       1.0  T
  10   -420.9728970 -0.132598E-03  0.930E-03    0.00       1.0  T
  11   -420.9729436 -0.466452E-04  0.457E-03    0.00       1.3  T
  12   -420.9729537 -0.100468E-04  0.238E-03    0.00       2.4  T
  13   -420.9729559 -0.229241E-05  0.127E-03    0.00       4.5  T
  14   -420.9729568 -0.874880E-06  0.468E-04    0.00      12.3  T
  15   -420.9729569 -0.558040E-07  0.342E-04    0.00      16.8  T
     SCC iter.                  ...        0 min,  2.690 sec
     gradient                   ...        0 min,  0.440 sec
 * total energy  :  -414.4372133 Eh     change       -0.1842524E-03 Eh
   gradient norm :     0.0032610 Eh/α   predicted    -0.1347505E-03 ( -26.87%)
   displ. norm   :     0.6036365 α      lambda       -0.2478135E-03
   maximum displ.:     0.3039249 α      in ANC's #12, #9, #10, ...

........................................................................
.............................. CYCLE   29 ..............................
........................................................................

 iter      E             dE          RMSdq      gap      omega  full diag
   1   -420.9746003 -0.420975E+03  0.222E-02    0.00       0.0  T
   2   -420.9598841  0.147162E-01  0.118E-01    0.02       1.0  T
   3   -420.9663258 -0.644167E-02  0.829E-02    0.01       1.0  T
   4   -420.9641703  0.215545E-02  0.109E-01    0.00       1.0  T
   5   -420.9561559  0.801443E-02  0.154E-01    0.01       1.0  T
   6   -420.9734535 -0.172976E-01  0.404E-02    0.00       1.0  T
   7   -420.9743008 -0.847285E-03  0.205E-02    0.00       1.0  T
   8   -420.9742387  0.620989E-04  0.224E-02    0.00       1.0  T
   9   -420.9745801 -0.341462E-03  0.767E-03    0.00       1.0  T
  10   -420.9746032 -0.230910E-04  0.553E-03    0.00       1.0  T
  11   -420.9746122 -0.901143E-05  0.392E-03    0.00       1.5  T
  12   -420.9746184 -0.619894E-05  0.243E-03    0.00       2.4  T
  13   -420.9746214 -0.301209E-05  0.111E-03    0.00       5.2  T
  14   -420.9746223 -0.897673E-06  0.446E-04    0.00      12.9  T
  15   -420.9746225 -0.167522E-06  0.219E-04    0.00      26.3  T
     SCC iter.                  ...        0 min,  2.589 sec
     gradient                   ...        0 min,  0.447 sec
 * total energy  :  -414.4374265 Eh     change       -0.2131794E-03 Eh
   gradient norm :     0.0023875 Eh/α   predicted    -0.1690560E-03 ( -20.70%)
   displ. norm   :     0.6253658 α      lambda       -0.2323898E-03
   maximum displ.:     0.3170629 α      in ANC's #12, #9, #10, ...

........................................................................
.............................. CYCLE   30 ..............................
........................................................................

 iter      E             dE          RMSdq      gap      omega  full diag
   1   -420.9755295 -0.420976E+03  0.224E-02    0.00       0.0  T
   2   -420.9617093  0.138201E-01  0.120E-01    0.02       1.0  T
   3   -420.9691468 -0.743750E-02  0.731E-02    0.01       1.0  T
   4   -420.9609206  0.822625E-02  0.119E-01    0.01       1.0  T
   5   -420.9644214 -0.350079E-02  0.122E-01    0.01       1.0  T
   6   -420.9727378 -0.831640E-02  0.627E-02    0.00       1.0  T
   7   -420.9748080 -0.207020E-02  0.312E-02    0.00       1.0  T
   8   -420.9754633 -0.655389E-03  0.116E-02    0.00       1.0  T
   9   -420.9755230 -0.597035E-04  0.726E-03    0.00       1.0  T
  10   -420.9754961  0.269761E-04  0.838E-03    0.00       1.0  T
  11   -420.9755444 -0.483686E-04  0.374E-03    0.00       1.5  T
  12   -420.9755507 -0.623376E-05  0.270E-03    0.00       2.1  T
  13   -420.9755550 -0.432077E-05  0.585E-04    0.00       9.8  T
  14   -420.9755547  0.263455E-06  0.619E-04    0.00       9.3  T
  15   -420.9755551 -0.334722E-06  0.290E-04    0.00      19.8  T
     SCC iter.                  ...        0 min,  2.628 sec
     gradient                   ...        0 min,  0.441 sec
 * total energy  :  -414.4376191 Eh     change       -0.1926483E-03 Eh
   gradient norm :     0.0028025 Eh/α   predicted    -0.1616429E-03 ( -16.09%)
   displ. norm   :     0.5885684 α      lambda       -0.1800943E-03
   maximum displ.:     0.3002725 α      in ANC's #12, #9, #10, ...

........................................................................
.............................. CYCLE   31 ..............................
........................................................................

 iter      E             dE          RMSdq      gap      omega  full diag
   1   -420.9756871 -0.420976E+03  0.203E-02    0.00       0.0  T
   2   -420.9596503  0.160368E-01  0.125E-01    0.02       1.0  T
   3   -420.9710006 -0.113502E-01  0.637E-02    0.01       1.0  T
   4   -420.9666238  0.437675E-02  0.979E-02    0.01       1.0  T
   5   -420.9674971 -0.873304E-03  0.103E-01    0.00       1.0  T
   6   -420.9731165 -0.561938E-02  0.597E-02    0.00       1.0  T
   7   -420.9750205 -0.190400E-02  0.288E-02    0.00       1.0  T
   8   -420.9756289 -0.608397E-03  0.117E-02    0.00       1.0  T
   9   -420.9756940 -0.651410E-04  0.562E-03    0.00       1.0  T
  10   -420.9756753  0.187571E-04  0.636E-03    0.00       1.0  T
  11   -420.9757071 -0.318183E-04  0.321E-03    0.00       1.8  T
  12   -420.9757137 -0.658414E-05  0.671E-04    0.00       8.6  T
  13   -420.9757132  0.489260E-06  0.106E-03    0.00       5.5  T
  14   -420.9757137 -0.523270E-06  0.498E-04    0.00      11.6  T
  15   -420.9757137  0.149192E-07  0.423E-04    0.00      13.6  T
     SCC iter.                  ...        0 min,  2.610 sec
     gradient                   ...        0 min,  0.446 sec
 * total energy  :  -414.4377677 Eh     change       -0.1486308E-03 Eh
   gradient norm :     0.0029337 Eh/α   predicted    -0.1212408E-03 ( -18.43%)
   displ. norm   :     0.5353254 α      lambda       -0.1445672E-03
   maximum displ.:     0.2746875 α      in ANC's #12, #9, #10, ...

........................................................................
.............................. CYCLE   32 ..............................
........................................................................

 iter      E             dE          RMSdq      gap      omega  full diag
   1   -420.9758255 -0.420976E+03  0.177E-02    0.00       0.0  T
   2   -420.9611102  0.147153E-01  0.115E-01    0.02       1.0  T
   3   -420.9718775 -0.107673E-01  0.600E-02    0.01       1.0  T
   4   -420.9716322  0.245331E-03  0.721E-02    0.00       1.0  T
   5   -420.9672890  0.434314E-02  0.990E-02    0.00       1.0  T
   6   -420.9741269 -0.683782E-02  0.471E-02    0.00       1.0  T
   7   -420.9750750 -0.948173E-03  0.295E-02    0.00       1.0  T
   8   -420.9757436 -0.668553E-03  0.128E-02    0.00       1.0  T
   9   -420.9758202 -0.766479E-04  0.576E-03    0.00       1.0  T
  10   -420.9757795  0.407104E-04  0.901E-03    0.00       1.0  T
  11   -420.9758445 -0.650043E-04  0.247E-03    0.00       2.3  T
  12   -420.9758455 -0.953475E-06  0.220E-03    0.00       2.6  T
  13   -420.9758484 -0.290479E-05  0.518E-04    0.00      11.1  T
  14   -420.9758485 -0.116149E-06  0.283E-04    0.00      20.4  T
  15   -420.9758483  0.211194E-06  0.440E-04    0.00      13.1  T
     SCC iter.                  ...        0 min,  2.560 sec
     gradient                   ...        0 min,  0.446 sec
 * total energy  :  -414.4378890 Eh     change       -0.1213150E-03 Eh
   gradient norm :     0.0022890 Eh/α   predicted    -0.9299832E-04 ( -23.34%)
   displ. norm   :     0.5182678 α      lambda       -0.1354148E-03
   maximum displ.:     0.2660062 α      in ANC's #12, #9, #10, ...

........................................................................
.............................. CYCLE   33 ..............................
........................................................................

 iter      E             dE          RMSdq      gap      omega  full diag
   1   -420.9761318 -0.420976E+03  0.170E-02    0.00       0.0  T
   2   -420.9616367  0.144951E-01  0.112E-01    0.02       1.0  T
   3   -420.9714072 -0.977043E-02  0.662E-02    0.01       1.0  T
   4   -420.9745488 -0.314164E-02  0.477E-02    0.00       1.0  T
   5   -420.9660747  0.847409E-02  0.108E-01    0.01       1.0  T
   6   -420.9741795 -0.810478E-02  0.506E-02    0.00       1.0  T
   7   -420.9753191 -0.113964E-02  0.320E-02    0.00       1.0  T
   8   -420.9759565 -0.637362E-03  0.164E-02    0.00       1.0  T
   9   -420.9761342 -0.177738E-03  0.442E-03    0.00       1.3  T
  10   -420.9761107  0.235775E-04  0.837E-03    0.00       1.0  T
  11   -420.9761538 -0.430994E-04  0.184E-03    0.00       3.1  T
  12   -420.9761526  0.117398E-05  0.237E-03    0.00       2.4  T
  13   -420.9761560 -0.337089E-05  0.565E-04    0.00      10.2  T
  14   -420.9761559  0.100122E-06  0.496E-04    0.00      11.6  T
  15   -420.9761561 -0.253556E-06  0.220E-04    0.00      26.1  T
     SCC iter.                  ...        0 min,  2.606 sec
     gradient                   ...        0 min,  0.444 sec
 * total energy  :  -414.4380034 Eh     change       -0.1143958E-03 Eh
   gradient norm :     0.0016976 Eh/α   predicted    -0.8589398E-04 ( -24.92%)
   displ. norm   :     0.7974722 α      lambda       -0.1367730E-03
   maximum displ.:     0.4052439 α      in ANC's #12, #9, #10, ...

........................................................................
.............................. CYCLE   34 ..............................
........................................................................

 iter      E             dE          RMSdq      gap      omega  full diag
   1   -420.9763023 -0.420976E+03  0.274E-02    0.00       0.0  T
   2   -420.9388722  0.374301E-01  0.183E-01    0.03       1.0  T
   3   -420.9608954 -0.220232E-01  0.118E-01    0.02       1.0  T
   4   -420.9720419 -0.111465E-01  0.748E-02    0.01       1.0  T
   5   -420.9627981  0.924374E-02  0.128E-01    0.01       1.0  T
   6   -420.9659574 -0.315928E-02  0.114E-01    0.00       1.0  T
   7   -420.9740609 -0.810355E-02  0.548E-02    0.00       1.0  T
   8   -420.9754163 -0.135531E-02  0.366E-02    0.00       1.0  T
   9   -420.9762834 -0.867159E-03  0.112E-02    0.00       1.0  T
  10   -420.9762038  0.795919E-04  0.156E-02    0.00       1.0  T
  11   -420.9763657 -0.161824E-03  0.474E-03    0.00       1.2  T
  12   -420.9763734 -0.773776E-05  0.297E-03    0.00       1.9  T
  13   -420.9763771 -0.370245E-05  0.198E-03    0.00       2.9  T
  14   -420.9763778 -0.740528E-06  0.120E-03    0.00       4.8  T
  15   -420.9763790 -0.113792E-05  0.685E-04    0.00       8.4  T
  16   -420.9763795 -0.515933E-06  0.727E-05    0.00      79.2  T
  17   -420.9763795  0.159292E-08  0.728E-05    0.00      79.1  T
     SCC iter.                  ...        0 min,  2.988 sec
     gradient                   ...        0 min,  0.448 sec
 * total energy  :  -414.4381558 Eh     change       -0.1523888E-03 Eh
   gradient norm :     0.0029259 Eh/α   predicted    -0.8771763E-04 ( -42.44%)
   displ. norm   :     0.3944139 α      lambda       -0.8972432E-04
   maximum displ.:     0.1961886 α      in ANC's #12, #9, #10, ...

........................................................................
.............................. CYCLE   35 ..............................
........................................................................

 iter      E             dE          RMSdq      gap      omega  full diag
   1   -420.9764380 -0.420976E+03  0.141E-02    0.00       0.0  T
   2   -420.9726168  0.382115E-02  0.701E-02    0.01       1.0  T
   3   -420.9722370  0.379821E-03  0.629E-02    0.01       1.0  T
   4   -420.9736185 -0.138148E-02  0.498E-02    0.01       1.0  T
   5   -420.9714565  0.216200E-02  0.728E-02    0.01       1.0  T
   6   -420.9733473 -0.189082E-02  0.638E-02    0.00       1.0  T
   7   -420.9751760 -0.182871E-02  0.419E-02    0.00       1.0  T
   8   -420.9762972 -0.112117E-02  0.158E-02    0.00       1.0  T
   9   -420.9764549 -0.157720E-03  0.218E-03    0.00       2.6  T
  10   -420.9764328  0.221015E-04  0.585E-03    0.00       1.0  T
  11   -420.9764537 -0.209159E-04  0.230E-03    0.00       2.5  T
  12   -420.9764569 -0.318946E-05  0.142E-03    0.00       4.1  T
  13   -420.9764580 -0.109041E-05  0.611E-04    0.00       9.4  T
  14   -420.9764580  0.243103E-07  0.484E-04    0.00      11.9  T
  15   -420.9764581 -0.188072E-06  0.263E-04    0.00      21.9  T
     SCC iter.                  ...        0 min,  3.030 sec
     gradient                   ...        0 min,  0.445 sec
 * total energy  :  -414.4382320 Eh     change       -0.7619600E-04 Eh
   gradient norm :     0.0027431 Eh/α   predicted    -0.5184675E-04 ( -31.96%)
   displ. norm   :     0.4696843 α      lambda       -0.1123515E-03
   maximum displ.:     0.2226385 α      in ANC's #12, #9, #10, ...

........................................................................
.............................. CYCLE   36 ..............................
........................................................................

 iter      E             dE          RMSdq      gap      omega  full diag
   1   -420.9769209 -0.420977E+03  0.186E-02    0.00       0.0  T
   2   -420.9705066  0.641431E-02  0.970E-02    0.00       1.0  T
   3   -420.9741419 -0.363529E-02  0.592E-02    0.00       1.0  T
   4   -420.9735390  0.602849E-03  0.574E-02    0.01       1.0  T
   5   -420.9475640  0.259750E-01  0.157E-01    0.03       1.0  T
   6   -420.9717215 -0.241575E-01  0.801E-02    0.01       1.0  T
   7   -420.9759436 -0.422207E-02  0.369E-02    0.00       1.0  T
   8   -420.9760053 -0.617443E-04  0.360E-02    0.00       1.0  T
   9   -420.9769448 -0.939447E-03  0.479E-03    0.00       1.2  T
  10   -420.9768786  0.662278E-04  0.110E-02    0.00       1.0  T
  11   -420.9769524 -0.738856E-04  0.344E-03    0.00       1.7  T
  12   -420.9769579 -0.547323E-05  0.276E-03    0.00       2.1  T
  13   -420.9769619 -0.401107E-05  0.930E-04    0.00       6.2  T
  14   -420.9769621 -0.177380E-06  0.600E-04    0.00       9.6  T
  15   -420.9769622 -0.133265E-06  0.448E-04    0.00      12.8  T
     SCC iter.                  ...        0 min,  2.607 sec
     gradient                   ...        0 min,  0.445 sec
 * total energy  :  -414.4383148 Eh     change       -0.8275843E-04 Eh
   gradient norm :     0.0018980 Eh/α   predicted    -0.6857008E-04 ( -17.14%)
   displ. norm   :     0.5186587 α      lambda       -0.5561011E-04
   maximum displ.:     0.2380934 α      in ANC's #12, #9, #10, ...

........................................................................
.............................. CYCLE   37 ..............................
........................................................................

 iter      E             dE          RMSdq      gap      omega  full diag
   1   -420.9767978 -0.420977E+03  0.200E-02    0.00       0.0  T
   2   -420.9703443  0.645347E-02  0.983E-02    0.01       1.0  T
   3   -420.9733766 -0.303227E-02  0.611E-02    0.01       1.0  T
   4   -420.9693944  0.398222E-02  0.793E-02    0.01       1.0  T
   5   -420.9520972  0.172972E-01  0.155E-01    0.03       1.0  T
   6   -420.9732240 -0.211268E-01  0.705E-02    0.00       1.0  T
   7   -420.9755380 -0.231404E-02  0.420E-02    0.00       1.0  T
   8   -420.9758823 -0.344330E-03  0.348E-02    0.00       1.0  T
   9   -420.9768238 -0.941511E-03  0.485E-03    0.00       1.2  T
  10   -420.9767508  0.730773E-04  0.111E-02    0.00       1.0  T
  11   -420.9768273 -0.765489E-04  0.383E-03    0.00       1.5  T
  12   -420.9768378 -0.105160E-04  0.170E-03    0.00       3.4  T
  13   -420.9768386 -0.806872E-06  0.117E-03    0.00       4.9  T
  14   -420.9768392 -0.617634E-06  0.589E-04    0.00       9.8  T
  15   -420.9768390  0.247478E-06  0.664E-04    0.00       8.7  T
     SCC iter.                  ...        0 min,  2.682 sec
     gradient                   ...        0 min,  0.447 sec
 * total energy  :  -414.4383611 Eh     change       -0.4629334E-04 Eh
   gradient norm :     0.0013668 Eh/α   predicted    -0.3113150E-04 ( -32.75%)
   displ. norm   :     0.1293151 α      lambda       -0.1876020E-04
   maximum displ.:     0.0542500 α      in ANC's #9, #12, #10, ...

........................................................................
.............................. CYCLE   38 ..............................
........................................................................

 iter      E             dE          RMSdq      gap      omega  full diag
   1   -420.9775348 -0.420978E+03  0.480E-03    0.00       0.0  T
   2   -420.9765017  0.103304E-02  0.325E-02    0.01       1.0  T
   3   -420.9772433 -0.741535E-03  0.157E-02    0.00       1.0  T
   4   -420.9770837  0.159556E-03  0.203E-02    0.00       1.0  T
   5   -420.9770833  0.356849E-06  0.247E-02    0.00       1.0  T
   6   -420.9772714 -0.188093E-03  0.172E-02    0.00       1.0  T
   7   -420.9773678 -0.963643E-04  0.127E-02    0.00       1.0  T
   8   -420.9775242 -0.156369E-03  0.422E-03    0.00       1.4  T
   9   -420.9775361 -0.118875E-04  0.117E-03    0.00       4.9  T
  10   -420.9775354  0.622705E-06  0.142E-03    0.00       4.0  T
  11   -420.9775366 -0.120495E-05  0.533E-04    0.00      10.8  T
  12   -420.9775364  0.285130E-06  0.852E-04    0.00       6.8  T
  13   -420.9775368 -0.442083E-06  0.164E-04    0.00      35.1  T
     SCC iter.                  ...        0 min,  2.259 sec
[...]
    60   6 C       62   6 C                                       1.5292855
    60   6 C       63   6 C                                       1.5344310
    64   6 C       65   6 C                                       1.5345922
    64   6 C       66   6 C                                       1.5349275
    64   6 C       67   6 C                                       1.5299614
    68   6 C       69   6 C                                       1.5306698
    68   6 C       70   6 C                                       1.5349368
    68   6 C       71   6 C                                       1.5348016
    72   6 C       73   6 C                                       1.5344506
    73   6 C       74   1 H                                       1.0863674
    73   6 C       75   1 H                                       1.0873637
    73   6 C       76   1 H                                       1.0873758
    72   6 C       77   6 C                                       1.5322133
    77   6 C       78   1 H                                       1.0868011
    77   6 C       79   1 H                                       1.0882150
    77   6 C       80   1 H                                       1.0858886
    72   6 C       81   6 C                                       1.5343210
    81   6 C       82   1 H                                       1.0868487
    81   6 C       83   1 H                                       1.0879782
    81   6 C       84   1 H                                       1.0879395
    69   6 C       85   1 H                                       1.0872105
    69   6 C       86   1 H                                       1.0874126
    69   6 C       87   1 H                                       1.0880505
    70   6 C       88   1 H                                       1.0880007
    70   6 C       89   1 H                                       1.0878130
    70   6 C       90   1 H                                       1.0863841
    59   6 C       91   1 H                                       1.0876815
    59   6 C       92   1 H                                       1.0863671
    59   6 C       93   1 H                                       1.0882064
    58   6 C       94   1 H                                       1.0860708
    58   6 C       95   1 H                                       1.0881101
    58   6 C       96   1 H                                       1.0856975
    57   6 C       97   1 H                                       1.0871409
    57   6 C       98   1 H                                       1.0883037
    57   6 C       99   1 H                                       1.0879295
    55   6 C      100   1 H                                       1.0880194
    55   6 C      101   1 H                                       1.0862143
    55   6 C      102   1 H                                       1.0878335
    54   6 C      103   1 H                                       1.0880265
    54   6 C      104   1 H                                       1.0878106
    54   6 C      105   1 H                                       1.0863542
    53   6 C      106   1 H                                       1.0872936
    53   6 C      107   1 H                                       1.0874037
    53   6 C      108   1 H                                       1.0880604
    62   6 C      109   1 H                                       1.0876346
    62   6 C      110   1 H                                       1.0882359
    62   6 C      111   1 H                                       1.0869348
    63   6 C      112   1 H                                       1.0863371
    63   6 C      113   1 H                                       1.0878295
    63   6 C      114   1 H                                       1.0880292
    61   6 C      115   1 H                                       1.0883452
    61   6 C      116   1 H                                       1.0855867
    61   6 C      117   1 H                                       1.0880454
    71   6 C      118   1 H                                       1.0880570
    71   6 C      119   1 H                                       1.0862649
    71   6 C      120   1 H                                       1.0878405
    17   6 C      121   1 H                                       1.0765645
    15   6 C      122   1 H                                       1.0779642
     5   6 C      123   1 H                                       1.0772110
    21   6 C      124   1 H                                       1.0775266
     1   6 C      125   1 H                                       1.0775256
    19   6 C      126   1 H                                       1.0769187
    23   6 C      127   1 H                                       1.0780776
    41   6 C      128   1 H                                       1.0752999
    27   6 C      129   1 H                                       1.0775406
    43   6 C      130   1 H                                       1.0773880
    39   6 C      131   1 H                                       1.0765659
    37   6 C      132   1 H                                       1.0780645
    66   6 C      133   1 H                                       1.0859269
    66   6 C      134   1 H                                       1.0879520
    66   6 C      135   1 H                                       1.0878909
    67   6 C      136   1 H                                       1.0864336
    67   6 C      137   1 H                                       1.0874927
    67   6 C      138   1 H                                       1.0881106
    65   6 C      139   1 H                                       1.0863360
    65   6 C      140   1 H                                       1.0882491
    65   6 C      141   1 H                                       1.0879487
    51   6 C      142   1 H                                       1.0886581
    51   6 C      143   1 H                                       1.0988840
    50   6 C      144   1 H                                       1.0877326
    50   6 C      145   1 H                                       1.0874702
    50   6 C      146   1 H                                       1.0879831
    48   6 C      147   1 H                                       1.0924355
    48   6 C      148   1 H                                       1.0985649
    47   6 C      149   1 H                                       1.0876848
    47   6 C      150   1 H                                       1.0873545
    47   6 C      151   1 H                                       1.0877201
   152   6 C      153   6 C                                       1.3888430
   153   6 C      154   6 C                                       1.4174128
   154   6 C      155   6 C                                       1.4360668
   155   6 C      156   6 C                                       1.4146597
   152   6 C      157   6 C                                       1.3985612
   156   6 C      157   6 C                                       1.3732505
   158   6 C      159   6 C                                       1.4120710
   159   6 C      160   6 C                                       1.4224564
   155   6 C      161   7 N                                       1.3353068
   160   6 C      161   7 N                                       1.3281414
   163   6 C      164   7 N                                       1.3307080
   159   6 C      165   6 C                                       1.4203219
   164   7 N      165   6 C                                       1.3308891
   165   6 C      166   6 C                                       1.4063054
   166   6 C      167   6 C                                       1.3910938
   160   6 C      168   6 C                                       1.4128259
   167   6 C      168   6 C                                       1.3852202
   162   6 C      169   6 C                                       1.4244969
   169   6 C      170   6 C                                       1.3964922
   170   6 C      171   6 C                                       1.3954495
   163   6 C      172   6 C                                       1.4130766
   171   6 C      172   6 C                                       1.3735174
   153   6 C      173   8 O                                       1.3276844
   174   6 C      175   6 C                                       1.3965947
   175   6 C      176   6 C                                       1.4109998
   176   6 C      177   6 C                                       1.4365963
   177   6 C      178   6 C                                       1.4129233
   174   6 C      179   6 C                                       1.3970772
   178   6 C      179   6 C                                       1.3728698
   180   6 C      181   6 C                                       1.4155592
   181   6 C      182   6 C                                       1.4215931
   177   6 C      183   7 N                                       1.3317749
   182   6 C      183   7 N                                       1.3303949
   185   6 C      186   7 N                                       1.3354644
   181   6 C      187   6 C                                       1.4188624
   186   7 N      187   6 C                                       1.3282724
   187   6 C      188   6 C                                       1.4086083
   188   6 C      189   6 C                                       1.3882142
   182   6 C      190   6 C                                       1.4105773
   189   6 C      190   6 C                                       1.3860505
   184   6 C      191   6 C                                       1.4309718
   191   6 C      192   6 C                                       1.4038320
   192   6 C      193   6 C                                       1.3941015
   185   6 C      194   6 C                                       1.4131881
   193   6 C      194   6 C                                       1.3710915
   175   6 C      195   8 O                                       1.3313011
   173   8 O      196   5 B                                       1.4541071
   195   8 O      196   5 B                                       1.4519508
   169   6 C      197   7 N                                       1.3852743
   196   5 B      197   7 N                                       1.5376624
   197   7 N      199   6 C                                       1.4471177
   198   6 C      199   6 C                                       1.5301865
   191   6 C      200   7 N                                       1.3816579
   196   5 B      200   7 N                                       1.5563417 (max)
   200   7 N      202   6 C                                       1.4544700
   201   6 C      202   6 C                                       1.5265189
   203   6 C      204   6 C                                       1.5304655
   203   6 C      205   6 C                                       1.5352438
   203   6 C      206   6 C                                       1.5346459
   207   6 C      208   6 C                                       1.5390506
   207   6 C      209   6 C                                       1.5325024
   207   6 C      210   6 C                                       1.5308084
   211   6 C      212   6 C                                       1.5352014
   211   6 C      213   6 C                                       1.5301449
   211   6 C      214   6 C                                       1.5343963
   215   6 C      216   6 C                                       1.5347479
   215   6 C      217   6 C                                       1.5348024
   215   6 C      218   6 C                                       1.5304774
   219   6 C      220   6 C                                       1.5306861
   219   6 C      221   6 C                                       1.5346582
   219   6 C      222   6 C                                       1.5350722
   223   6 C      224   6 C                                       1.5370525
   224   6 C      225   1 H                                       1.0879836
   224   6 C      226   1 H                                       1.0880651
   224   6 C      227   1 H                                       1.0873678
   223   6 C      228   6 C                                       1.5315184
   228   6 C      229   1 H                                       1.0868927
   228   6 C      230   1 H                                       1.0882322
   228   6 C      231   1 H                                       1.0865125
   223   6 C      232   6 C                                       1.5357938
   232   6 C      233   1 H                                       1.0863717
   232   6 C      234   1 H                                       1.0873456
   232   6 C      235   1 H                                       1.0880632
   220   6 C      236   1 H                                       1.0871922
   220   6 C      237   1 H                                       1.0874190
   220   6 C      238   1 H                                       1.0880756
   221   6 C      239   1 H                                       1.0879834
   221   6 C      240   1 H                                       1.0878685
   221   6 C      241   1 H                                       1.0863473
   210   6 C      242   1 H                                       1.0874604
   210   6 C      243   1 H                                       1.0866343
   210   6 C      244   1 H                                       1.0881016
   209   6 C      245   1 H                                       1.0860074
   209   6 C      246   1 H                                       1.0881980
   209   6 C      247   1 H                                       1.0856336
   208   6 C      248   1 H                                       1.0875660
   208   6 C      249   1 H                                       1.0883955
   208   6 C      250   1 H                                       1.0879425
   206   6 C      251   1 H                                       1.0878813
   206   6 C      252   1 H                                       1.0865440
   206   6 C      253   1 H                                       1.0877693
   205   6 C      254   1 H                                       1.0880653
   205   6 C      255   1 H                                       1.0877987
   205   6 C      256   1 H                                       1.0863943
   204   6 C      257   1 H                                       1.0873541
   204   6 C      258   1 H                                       1.0873149
   204   6 C      259   1 H                                       1.0880296
   213   6 C      260   1 H                                       1.0880588
   213   6 C      261   1 H                                       1.0883260
   213   6 C      262   1 H                                       1.0871375
   214   6 C      263   1 H                                       1.0862064
   214   6 C      264   1 H                                       1.0878932
   214   6 C      265   1 H                                       1.0880492
   212   6 C      266   1 H                                       1.0883752
   212   6 C      267   1 H                                       1.0856255
   212   6 C      268   1 H                                       1.0880730
   222   6 C      269   1 H                                       1.0880421
   222   6 C      270   1 H                                       1.0862335
   222   6 C      271   1 H                                       1.0878528
   168   6 C      272   1 H                                       1.0765840
   166   6 C      273   1 H                                       1.0779473
   156   6 C      274   1 H                                       1.0772289
   172   6 C      275   1 H                                       1.0775249
   152   6 C      276   1 H                                       1.0776446
   170   6 C      277   1 H                                       1.0767411
   174   6 C      278   1 H                                       1.0779073
   192   6 C      279   1 H                                       1.0745947 (min)
   178   6 C      280   1 H                                       1.0775239
   194   6 C      281   1 H                                       1.0770700
   190   6 C      282   1 H                                       1.0765380
   188   6 C      283   1 H                                       1.0782898
   217   6 C      284   1 H                                       1.0860646
   217   6 C      285   1 H                                       1.0879970
   217   6 C      286   1 H                                       1.0878826
   218   6 C      287   1 H                                       1.0869088
   218   6 C      288   1 H                                       1.0875545
   218   6 C      289   1 H                                       1.0880586
   216   6 C      290   1 H                                       1.0864118
   216   6 C      291   1 H                                       1.0882594
   216   6 C      292   1 H                                       1.0878848
   202   6 C      293   1 H                                       1.0877166
   202   6 C      294   1 H                                       1.0988771
   201   6 C      295   1 H                                       1.0876256
   201   6 C      296   1 H                                       1.0875675
   201   6 C      297   1 H                                       1.0871194
   199   6 C      298   1 H                                       1.0923561
   199   6 C      299   1 H                                       1.0981633
   198   6 C      300   1 H                                       1.0876313
   198   6 C      301   1 H                                       1.0872815
   198   6 C      302   1 H                                       1.0877002

 * 6 distinct bonds (by element types)

   Z      Z             #   av. dist./Å        max./Å        min./Å
   1 H    6 C         152     1.0861719     1.0988840     1.0745947
   6 C    6 C         112     1.4505939     1.5390506     1.3705849
   5 B    7 N           4     1.5454778     1.5563417     1.5363653
   6 C    7 N          24     1.3599117     1.4544700     1.3268984
   5 B    8 O           4     1.4539769     1.4549534     1.4519508
   6 C    8 O           4     1.3290072     1.3313011     1.3264935


optimized geometry written to: xtbopt.mol


           -------------------------------------------------
          | TOTAL ENERGY             -414.439030855990 Eh   |
          | GRADIENT NORM               0.000802068188 Eh/α |
          | HOMO-LUMO GAP               0.000254862276 eV   |
           -------------------------------------------------
########################################################################
[WARNING] Runtime exception occurred
-2- restart_readRestart: Dimension missmatch in restart file.
-1- restart_readRestart: Number of electron missmatch in restart file.
########################################################################

------------------------------------------------------------------------
 * finished run on 2024/11/07 at 16:00:29.667     
------------------------------------------------------------------------
Note: The following floating-point exceptions are signalling: IEEE_UNDERFLOW_FLAG
normal termination of xtb
 total:
 * wall-time:     0 d,  0 h,  3 min, 50.559 sec
 *  cpu-time:     0 d,  0 h, 12 min, 59.024 sec
 * ratio c/w:     3.379 speedup
 SCF:
 * wall-time:     0 d,  0 h,  0 min,  8.361 sec
 *  cpu-time:     0 d,  0 h,  0 min, 33.080 sec
 * ratio c/w:     3.956 speedup
 ANC optimizer:
 * wall-time:     0 d,  0 h,  3 min, 42.073 sec
 *  cpu-time:     0 d,  0 h, 12 min, 25.779 sec
 * ratio c/w:     3.358 speedup

