302
 energy: -414.375256407403 gnorm: 0.186261499531 xtb: 6.7.1 (edcfbbe)
C            2.99050000000000        1.22340000000000        3.56950000000000
C            2.55190000000000        0.08770000000000        2.88810000000000
C            3.41940000000000       -0.53470000000000        1.92490000000000
C            4.59670000000000        0.18540000000000        1.56730000000000
C            4.92520000000000        1.37920000000000        2.23730000000000
C            4.17170000000000        1.88480000000000        3.26260000000000
C            3.29230000000000       -1.88170000000000        1.41280000000000
C            4.39210000000000       -2.37730000000000        0.68350000000000
C            5.41430000000000       -1.50180000000000        0.23110000000000
N            5.49160000000000       -0.22420000000000        0.63730000000000
C            2.27060000000000       -2.84940000000000        1.69240000000000
C            2.61730000000000       -4.23340000000000        1.61240000000000
N            3.71590000000000       -4.69070000000000        0.97620000000000
C            4.52040000000000       -3.76920000000000        0.41690000000000
C            5.60060000000000       -4.21530000000000       -0.36090000000000
C            6.55800000000000       -3.35730000000000       -0.87000000000000
C            6.45150000000000       -2.01130000000000       -0.56510000000000
C            0.86480000000000       -2.54580000000000        1.87830000000000
C            0.01760000000000       -3.57450000000000        2.35030000000000
C            0.45380000000000       -4.87130000000000        2.55450000000000
C            1.73100000000000       -5.19370000000000        2.13460000000000
O            1.25040000000000       -0.29970000000000        3.16970000000000
C           -3.08680000000000       -1.51590000000000        2.86500000000000
C           -2.38310000000000       -0.50700000000000        2.20230000000000
C           -2.88780000000000       -0.00690000000000        0.95000000000000
C           -3.89550000000000       -0.79290000000000        0.31510000000000
C           -4.48950000000000       -1.86680000000000        1.00560000000000
C           -4.15100000000000       -2.20230000000000        2.29040000000000
C           -2.61280000000000        1.29270000000000        0.37260000000000
C           -3.38230000000000        1.64870000000000       -0.75400000000000
C           -4.16500000000000        0.67770000000000       -1.43490000000000
N           -4.40040000000000       -0.53810000000000       -0.91590000000000
C           -1.81040000000000        2.35290000000000        0.91270000000000
C           -2.14840000000000        3.69680000000000        0.55920000000000
N           -2.91510000000000        4.01810000000000       -0.50320000000000
C           -3.42620000000000        2.99610000000000       -1.21130000000000
C           -4.12370000000000        3.29060000000000       -2.39310000000000
C           -4.79320000000000        2.32640000000000       -3.12390000000000
C           -4.81750000000000        1.03500000000000       -2.62520000000000
C           -0.57220000000000        2.17560000000000        1.65110000000000
C           -0.03710000000000        3.30160000000000        2.32370000000000
C           -0.58810000000000        4.56720000000000        2.22490000000000
C           -1.59190000000000        4.75920000000000        1.29410000000000
O           -1.19810000000000       -0.12130000000000        2.80770000000000
B            0.14810000000000       -0.18040000000000        2.16600000000000
N            0.29640000000000       -1.41610000000000        1.27860000000000
C            0.35830000000000       -2.09770000000000       -1.07040000000000
C           -0.43680000000000       -1.46200000000000        0.04970000000000
N            0.27400000000000        1.10320000000000        1.34370000000000
C            1.03480000000000        1.91170000000000       -0.84290000000000
C            1.39270000000000        1.22100000000000        0.45610000000000
C           -5.52460000000000        2.72680000000000       -4.41330000000000
C           -6.15280000000000        1.50760000000000       -5.11510000000000
C           -6.64440000000000        3.72540000000000       -4.07000000000000
C           -4.52470000000000        3.38120000000000       -5.38490000000000
C           -0.03690000000000        5.72470000000000        3.06870000000000
C           -0.87950000000000        7.00450000000000        2.90120000000000
C           -0.07540000000000        5.32860000000000        4.55450000000000
C            1.40710000000000        6.02460000000000        2.64060000000000
C           -4.98410000000000       -3.24720000000000        3.05130000000000
C           -5.23770000000000       -4.48160000000000        2.16280000000000
C           -4.27350000000000       -3.70590000000000        4.33620000000000
C           -6.33880000000000       -2.62620000000000        3.43210000000000
C           -0.48520000000000       -5.91390000000000        3.17710000000000
C           -1.76530000000000       -6.00930000000000        2.33190000000000
C            0.16230000000000       -7.31060000000000        3.23680000000000
C           -0.82780000000000       -5.48520000000000        4.61530000000000
C            7.73170000000000       -3.92560000000000       -1.68040000000000
C            8.65570000000000       -2.80990000000000       -2.20510000000000
C            8.55920000000000       -4.86110000000000       -0.78050000000000
C            7.18720000000000       -4.71180000000000       -2.88700000000000
C            4.65380000000000        3.12780000000000        4.02410000000000
C            5.96220000000000        2.79120000000000        4.76070000000000
H            6.32050000000000        3.64680000000000        5.33250000000000
H            6.74530000000000        2.50180000000000        4.06110000000000
H            5.81130000000000        1.96250000000000        5.44970000000000
C            4.91010000000000        4.27340000000000        3.02740000000000
H            5.74150000000000        4.04180000000000        2.36310000000000
H            5.15160000000000        5.19910000000000        3.54920000000000
H            4.03350000000000        4.45020000000000        2.40690000000000
C            3.61520000000000        3.59520000000000        5.05990000000000
H            3.43970000000000        2.82630000000000        5.81010000000000
H            2.66710000000000        3.83010000000000        4.58160000000000
H            3.95660000000000        4.49020000000000        5.57930000000000
H            9.10620000000000       -2.25380000000000       -1.38340000000000
H            8.10690000000000       -2.11190000000000       -2.83680000000000
H            9.46680000000000       -3.22820000000000       -2.80070000000000
H            8.94420000000000       -4.32150000000000        0.08440000000000
H            9.40770000000000       -5.27590000000000       -1.32410000000000
H            7.95770000000000       -5.69250000000000       -0.41540000000000
H            1.44620000000000        6.31750000000000        1.59170000000000
H            2.03580000000000        5.14630000000000        2.76450000000000
H            1.83350000000000        6.83190000000000        3.23560000000000
H           -1.09150000000000        5.06970000000000        4.84860000000000
H            0.26060000000000        6.15080000000000        5.18470000000000
H            0.56130000000000        4.47060000000000        4.75850000000000
H           -1.92210000000000        6.82000000000000        3.15950000000000
H           -0.83510000000000        7.37660000000000        1.87820000000000
H           -0.51180000000000        7.79680000000000        3.55280000000000
H           -3.70900000000000        2.69660000000000       -5.61590000000000
H           -4.09180000000000        4.28600000000000       -4.96030000000000
H           -5.01160000000000        3.65400000000000       -6.32080000000000
H           -7.35130000000000        3.28420000000000       -3.36770000000000
H           -7.19400000000000        4.01800000000000       -4.96430000000000
H           -6.24180000000000        4.62940000000000       -3.61480000000000
H           -6.90700000000000        1.03650000000000       -4.48540000000000
H           -5.39460000000000        0.76520000000000       -5.36280000000000
H           -6.64020000000000        1.80490000000000       -6.04340000000000
H           -3.30230000000000       -4.13650000000000        4.10720000000000
H           -4.85970000000000       -4.46260000000000        4.85700000000000
H           -4.12710000000000       -2.87450000000000        5.02300000000000
H           -6.87280000000000       -2.27960000000000        2.54790000000000
H           -6.19910000000000       -1.77490000000000        4.09410000000000
H           -6.97010000000000       -3.35020000000000        3.94660000000000
H           -4.30680000000000       -4.87490000000000        1.76050000000000
H           -5.88680000000000       -4.24110000000000        1.32210000000000
H           -5.72220000000000       -5.27560000000000        2.73070000000000
H            6.57360000000000       -4.06990000000000       -3.51860000000000
H            6.57390000000000       -5.55360000000000       -2.56890000000000
H            8.00130000000000       -5.10530000000000       -3.49520000000000
H            7.20220000000000       -1.31780000000000       -0.89370000000000
H            5.68230000000000       -5.27190000000000       -0.53650000000000
H            5.84250000000000        1.86420000000000        1.95850000000000
H            2.07120000000000       -6.21190000000000        2.15740000000000
H            2.36200000000000        1.60560000000000        4.34780000000000
H           -1.01550000000000       -3.32970000000000        2.51310000000000
H           -2.76750000000000       -1.76910000000000        3.85660000000000
H            0.86870000000000        3.16620000000000        2.88530000000000
H           -5.29730000000000       -2.37620000000000        0.51380000000000
H           -1.95390000000000        5.74670000000000        1.07760000000000
H           -5.38230000000000        0.27020000000000       -3.12380000000000
H           -4.13670000000000        4.31410000000000       -2.71900000000000
H            0.41060000000000       -7.67180000000000        2.23920000000000
H           -0.51850000000000       -8.03190000000000        3.68850000000000
H            1.07150000000000       -7.29530000000000        3.83720000000000
H           -1.28310000000000       -4.49790000000000        4.63490000000000
H            0.07110000000000       -5.44790000000000        5.23040000000000
H           -1.52380000000000       -6.18530000000000        5.07620000000000
H           -1.53500000000000       -6.34120000000000        1.31980000000000
H           -2.25470000000000       -5.04110000000000        2.25790000000000
H           -2.47260000000000       -6.71450000000000        2.76780000000000
H            1.78440000000000        0.21710000000000        0.26660000000000
H            2.18430000000000        1.76860000000000        0.97850000000000
H            0.24000000000000        1.37790000000000       -1.36570000000000
H            1.88940000000000        1.98390000000000       -1.51880000000000
H            0.66960000000000        2.92350000000000       -0.65900000000000
H           -0.73070000000000       -0.44110000000000       -0.21150000000000
H           -1.36530000000000       -2.01480000000000        0.22900000000000
H            1.28890000000000       -1.55650000000000       -1.24660000000000
H           -0.19910000000000       -2.11890000000000       -2.00930000000000
H            0.63060000000000       -3.12440000000000       -0.82050000000000
C            2.35660000000000        1.56140000000000        9.52540000000000
C            1.92940000000000        0.42340000000000        8.83990000000000
C            2.76000000000000       -0.14280000000000        7.80770000000000
C            3.87190000000000        0.64860000000000        7.39330000000000
C            4.20990000000000        1.81980000000000        8.09920000000000
C            3.50850000000000        2.26180000000000        9.18920000000000
C            2.68950000000000       -1.49360000000000        7.28370000000000
C            3.74330000000000       -1.89470000000000        6.43740000000000
C            4.67380000000000       -0.94470000000000        5.93900000000000
N            4.71350000000000        0.31950000000000        6.38590000000000
C            1.78740000000000       -2.54330000000000        7.65520000000000
C            2.18570000000000       -3.89870000000000        7.44630000000000
N            3.21840000000000       -4.25880000000000        6.65880000000000
C            3.92730000000000       -3.26510000000000        6.09700000000000
C            4.96320000000000       -3.61620000000000        5.21710000000000
C            5.82570000000000       -2.68470000000000        4.66910000000000
C            5.66850000000000       -1.36140000000000        5.04100000000000
C            0.41780000000000       -2.33460000000000        8.08630000000000
C           -0.26880000000000       -3.42290000000000        8.67830000000000
C            0.24240000000000       -4.70760000000000        8.69440000000000
C            1.42970000000000       -4.93590000000000        8.02370000000000
O            0.67900000000000       -0.03230000000000        9.22710000000000
C           -3.51110000000000       -1.48000000000000        8.97080000000000
C           -2.94430000000000       -0.37400000000000        8.33750000000000
C           -3.53770000000000        0.13960000000000        7.12950000000000
C           -4.55870000000000       -0.66270000000000        6.54040000000000
C           -5.05070000000000       -1.79410000000000        7.21980000000000
C           -4.57710000000000       -2.19450000000000        8.44050000000000
C           -3.30450000000000        1.43920000000000        6.53090000000000
C           -4.10580000000000        1.77950000000000        5.42370000000000
C           -4.93210000000000        0.80550000000000        4.80510000000000
N           -5.14760000000000       -0.40060000000000        5.35130000000000
C           -2.46290000000000        2.49780000000000        7.00340000000000
C           -2.74650000000000        3.83700000000000        6.59550000000000
N           -3.53190000000000        4.14000000000000        5.54150000000000
C           -4.11880000000000        3.10820000000000        4.90930000000000
C           -4.84970000000000        3.37760000000000        3.74070000000000
C           -5.57990000000000        2.40760000000000        3.07750000000000
C           -5.62510000000000        1.14150000000000        3.63250000000000
C           -1.22270000000000        2.29220000000000        7.72570000000000
C           -0.62950000000000        3.41080000000000        8.36030000000000
C           -1.07530000000000        4.70450000000000        8.15900000000000
C           -2.09330000000000        4.90270000000000        7.24390000000000
O           -1.78920000000000        0.08730000000000        8.95080000000000
B           -0.46600000000000       -0.01510000000000        8.27930000000000
N           -0.33800000000000       -1.31660000000000        7.49040000000000
C           -0.17160000000000       -1.99860000000000        5.15510000000000
C           -1.06940000000000       -1.52660000000000        6.27910000000000
N           -0.40630000000000        1.20910000000000        7.37320000000000
C           -0.31480000000000        1.55390000000000        4.95920000000000
C            0.44830000000000        1.22970000000000        6.22760000000000
C           -6.43060000000000        2.74960000000000        1.84550000000000
C           -6.51720000000000        1.53980000000000        0.89440000000000
C           -7.84510000000000        3.13180000000000        2.30940000000000
C           -5.81600000000000        3.92720000000000        1.06510000000000
C           -0.36140000000000        5.87040000000000        8.85360000000000
C           -1.00890000000000        7.22750000000000        8.51840000000000
C           -0.43470000000000        5.66400000000000       10.37760000000000
C            1.10460000000000        5.90450000000000        8.38940000000000
C           -5.26820000000000       -3.34530000000000        9.18630000000000
C           -5.41730000000000       -4.56200000000000        8.25170000000000
C           -4.47150000000000       -3.77320000000000       10.43160000000000
C           -6.66230000000000       -2.87570000000000        9.63760000000000
C           -0.55790000000000       -5.84120000000000        9.34800000000000
C           -1.86290000000000       -6.04580000000000        8.56210000000000
C            0.22350000000000       -7.16920000000000        9.35330000000000
C           -0.86760000000000       -5.46280000000000       10.80860000000000
C            7.01180000000000       -3.13030000000000        3.80230000000000
C            7.44190000000000       -2.00210000000000        2.84510000000000
C            8.19230000000000       -3.48830000000000        4.71950000000000
C            6.63050000000000       -4.36470000000000        2.96220000000000
C            4.07580000000000        3.40520000000000       10.04430000000000
C            5.29140000000000        2.87390000000000       10.82420000000000
H            5.72800000000000        3.65390000000000       11.44740000000000
H            6.06350000000000        2.51290000000000       10.14540000000000
H            5.00220000000000        2.04540000000000       11.47030000000000
C            4.52490000000000        4.57400000000000        9.14410000000000
H            5.37590000000000        4.29620000000000        8.52380000000000
H            4.82600000000000        5.43290000000000        9.74350000000000
H            3.72260000000000        4.89050000000000        8.48080000000000
C            3.03890000000000        3.92700000000000       11.05440000000000
H            2.76230000000000        3.15440000000000       11.77100000000000
H            2.13750000000000        4.26280000000000       10.54860000000000
H            3.43700000000000        4.76970000000000       11.61930000000000
H            7.89770000000000       -1.17210000000000        3.38320000000000
H            6.58350000000000       -1.61800000000000        2.29920000000000
H            8.17220000000000       -2.36000000000000        2.11980000000000
H            8.48970000000000       -2.62920000000000        5.32020000000000
H            9.05540000000000       -3.81080000000000        4.13750000000000
H            7.92250000000000       -4.29440000000000        5.40120000000000
H            1.16990000000000        6.13240000000000        7.32640000000000
H            1.58290000000000        4.94040000000000        8.54440000000000
H            1.67200000000000        6.66060000000000        8.93160000000000
H           -1.47020000000000        5.68270000000000       10.71640000000000
H            0.10780000000000        6.44760000000000       10.90600000000000
H           -0.01260000000000        4.70450000000000       10.67070000000000
H           -2.05900000000000        7.24270000000000        8.80910000000000
H           -0.94180000000000        7.44390000000000        7.45250000000000
H           -0.50590000000000        8.03580000000000        9.04890000000000
H           -4.76880000000000        3.73270000000000        0.84340000000000
H           -5.87770000000000        4.85740000000000        1.62790000000000
H           -6.33570000000000        4.08350000000000        0.12010000000000
H           -8.31040000000000        2.30860000000000        2.85090000000000
H           -8.48100000000000        3.38140000000000        1.46040000000000
H           -7.81380000000000        3.99370000000000        2.97530000000000
H           -7.09270000000000        0.72410000000000        1.32930000000000
H           -5.52230000000000        1.16570000000000        0.66470000000000
H           -6.99850000000000        1.81300000000000       -0.04430000000000
H           -3.46170000000000       -4.07280000000000       10.16230000000000
H           -4.94840000000000       -4.61880000000000       10.92680000000000
H           -4.40730000000000       -2.96220000000000       11.15640000000000
H           -7.27430000000000       -2.58790000000000        8.78340000000000
H           -6.58240000000000       -2.01170000000000       10.29680000000000
H           -7.18550000000000       -3.66550000000000       10.17610000000000
H           -4.45870000000000       -4.84100000000000        7.81810000000000
H           -6.10270000000000       -4.35270000000000        7.43160000000000
H           -5.80790000000000       -5.42350000000000        8.79300000000000
H            5.69290000000000       -4.19410000000000        2.43790000000000
H            6.51090000000000       -5.25110000000000        3.58330000000000
H            7.39840000000000       -4.58810000000000        2.22230000000000
H            6.35560000000000       -0.61620000000000        4.68740000000000
H            5.08930000000000       -4.66020000000000        5.00080000000000
H            5.11090000000000        2.32600000000000        7.80610000000000
H            1.80340000000000       -5.93570000000000        7.90720000000000
H            1.73940000000000        1.89760000000000       10.33690000000000
H           -1.26130000000000       -3.24020000000000        9.04680000000000
H           -3.06630000000000       -1.78510000000000        9.89900000000000
H            0.25630000000000        3.23640000000000        8.94230000000000
H           -5.87390000000000       -2.31860000000000        6.77070000000000
H           -2.39090000000000        5.89780000000000        6.97160000000000
H           -6.24190000000000        0.38500000000000        3.18690000000000
H           -4.84230000000000        4.38880000000000        3.38010000000000
H            0.41430000000000       -7.51940000000000        8.33930000000000
H           -0.34150000000000       -7.94700000000000        9.86670000000000
H            1.17840000000000       -7.05870000000000        9.86660000000000
H           -1.41350000000000       -4.52360000000000       10.87190000000000
H            0.05480000000000       -5.34460000000000       11.37660000000000
H           -1.46660000000000       -6.23290000000000       11.29410000000000
H           -1.65240000000000       -6.38090000000000        7.54710000000000
H           -2.42170000000000       -5.11570000000000        8.49120000000000
H           -2.49830000000000       -6.79130000000000        9.03990000000000
H            0.95290000000000        0.26360000000000        6.16090000000000
H            1.23620000000000        1.96780000000000        6.41140000000000
H           -1.18310000000000        0.91000000000000        4.83070000000000
H            0.29180000000000        1.42300000000000        4.06500000000000
H           -0.69310000000000        2.57570000000000        4.97280000000000
H           -1.57940000000000       -0.59810000000000        6.01960000000000
H           -1.85990000000000       -2.25790000000000        6.48150000000000
H            0.65280000000000       -1.31030000000000        4.97590000000000
H           -0.70930000000000       -2.08700000000000        4.21370000000000
H            0.27960000000000       -2.96370000000000        5.38680000000000
302
 energy: -414.417259457587 gnorm: 0.093851289005 xtb: 6.7.1 (edcfbbe)
C            2.98885126783807        1.21969260571974        3.56800558859118
C            2.53384698729517        0.09941650808644        2.87183359891671
C            3.40446642989017       -0.54162914446911        1.93354785835798
C            4.59208353316860        0.17851508722247        1.57649031717145
C            4.93055477342375        1.37937187709897        2.23517907775415
C            4.18299230062403        1.87999538738647        3.27227239395356
C            3.28133363311561       -1.87978838738825        1.41504056033503
C            4.38292287703805       -2.37531375896857        0.68528617120210
C            5.41109335958399       -1.50237716616889        0.23790948373278
N            5.47853819444399       -0.23325152141398        0.65058531183471
C            2.25148987628562       -2.84167259141502        1.67676916052277
C            2.61097951588877       -4.22561771381126        1.61441748200729
N            3.70621552714975       -4.67228309637667        0.98120471322763
C            4.51599761793500       -3.76675487020810        0.41750901275265
C            5.59919488085051       -4.21885307550533       -0.36239323057896
C            6.56165130063485       -3.35658831782867       -0.87133830978891
C            6.45228251495566       -2.00740635619155       -0.56792226934514
C            0.85637751341454       -2.56882850789017        1.82981693600516
C            0.02032319987578       -3.57620185957552        2.32338527550274
C            0.46375359776216       -4.87813036438757        2.56645161275717
C            1.73380842250781       -5.19793593116324        2.14125248192474
O            1.25769493984577       -0.29459841176160        3.16351226334910
C           -3.08312761252777       -1.51374867225585        2.86241600708533
C           -2.35899064526677       -0.52408895722525        2.19288394157907
C           -2.87740127469004        0.00152660438527        0.96323873511096
C           -3.89629400582274       -0.78256362603872        0.32562368162909
C           -4.49488301302846       -1.86562731794972        1.00276950650270
C           -4.16786835153693       -2.19131725100864        2.29690106248394
C           -2.60313678803666        1.29101598537654        0.37865988063375
C           -3.37560733346130        1.64720658633104       -0.74897264944996
C           -4.16528672105204        0.67909264392073       -1.42785546877549
N           -4.39408795616205       -0.52573378269786       -0.89947102883986
C           -1.78724394550419        2.34508572916288        0.90636053656600
C           -2.14300694811193        3.68894639921820        0.56451137721207
N           -2.90854463332589        3.99937798220533       -0.49265072474060
C           -3.42272783681922        2.99290177193423       -1.20971308415262
C           -4.12233764104023        3.29374959397156       -2.39425637600320
C           -4.79477177947681        2.32491277160744       -3.12769478405760
C           -4.81755851284917        1.03068336834199       -2.62759786809336
C           -0.54587918348524        2.20028858041345        1.60565347142647
C           -0.02802598397626        3.30347891845705        2.29564218449347
C           -0.60126005473181        4.57531330459923        2.23020654591257
C           -1.59733850333475        4.76353159542267        1.29880551891681
O           -1.20283935401430       -0.13307750523452        2.80291473717864
B            0.14622266691431       -0.18234885488857        2.16507140589751
N            0.30966243978265       -1.40657293338847        1.27669411279020
C            0.36538440244769       -2.11046311677663       -1.07358598177046
C           -0.43869085714014       -1.48345759604047        0.05293964271837
N            0.26365588400017        1.09099647327523        1.34056524803680
C            1.02857446141235        1.92411635018607       -0.84749151218606
C            1.39153530207315        1.24085583899827        0.46064116597701
C           -5.52435670183933        2.72283191577389       -4.41306392993072
C           -6.15166700475038        1.50888919964263       -5.11331602984441
C           -6.64027350732788        3.72247767479092       -4.06743485604314
C           -4.52479082427800        3.37905340285412       -5.38005010943659
C           -0.04257033769125        5.72782929626112        3.06639634993228
C           -0.87983133893212        7.00393580847657        2.90046667538038
C           -0.07714288216427        5.32828357663398        4.54853040254332
C            1.40187718049010        6.02274070230469        2.63788230272923
C           -4.98353122805195       -3.24709195614161        3.05119385765884
C           -5.23662949989440       -4.47737209962970        2.16143181426933
C           -4.27502190432345       -3.70466354466972        4.33257320302491
C           -6.33616802759719       -2.62405576756105        3.42924052501946
C           -0.47896976218277       -5.91768957511601        3.17645061397914
C           -1.75860810508725       -6.00869116367515        2.33176582005245
C            0.16341180192842       -7.31025499668790        3.23641665458847
C           -0.82414735129083       -5.48592211965663        4.61069745234164
C            7.73105544626872       -3.92147965448735       -1.68128702488189
C            8.65370816011871       -2.81097218218543       -2.20414795619357
C            8.55416666193840       -4.85778635448612       -0.78085080349800
C            7.18558730610985       -4.70911837174745       -2.88345726776386
C            4.65400164873034        3.12604561899654        4.02573034163396
C            5.96127093762284        2.78843941978506        4.75854343636504
H            6.31245514106794        3.65018925685556        5.32469027493610
H            6.74213304131261        2.50392891665776        4.05624232930489
H            5.80207662703119        1.96022961110521        5.44614581340455
C            4.90941953575521        4.26787592741797        3.02671401574892
H            5.74150738189315        4.03819505415936        2.36554322600707
H            5.14857902789627        5.19010872216240        3.55397697924243
H            4.03305344509150        4.44662918917217        2.40726340541369