      -----------------------------------------------------------      
     |                   =====================                   |     
     |                           x T B                           |     
     |                   =====================                   |     
     |                         S. Grimme                         |     
     |          Mulliken Center for Theoretical Chemistry        |     
     |                    University of Bonn                     |     
      -----------------------------------------------------------      

   * xtb version 6.6.1 (8d0f1dd) compiled by 'runner@Mac-1690902418499.local' on 2023-08-01

   xtb is free software: you can redistribute it and/or modify it under
   the terms of the GNU Lesser General Public License as published by
   the Free Software Foundation, either version 3 of the License, or
   (at your option) any later version.
   
   xtb is distributed in the hope that it will be useful,
   but WITHOUT ANY WARRANTY; without even the implied warranty of
   MERCHANTABILITY or FITNESS FOR A PARTICULAR PURPOSE.  See the
   GNU Lesser General Public License for more details.
   
   Cite this work as:
   * C. Bannwarth, E. Caldeweyher, S. Ehlert, A. Hansen, P. Pracht,
     J. Seibert, S. Spicher, S. Grimme, WIREs Comput. Mol. Sci., 2020, 11,
     e01493. DOI: 10.1002/wcms.1493
   
   for GFN2-xTB:
   * C. Bannwarth, S. Ehlert and S. Grimme., J. Chem. Theory Comput., 2019,
     15, 1652-1671. DOI: 10.1021/acs.jctc.8b01176
   for GFN1-xTB:
   * S. Grimme, C. Bannwarth, P. Shushkov, J. Chem. Theory Comput., 2017,
     13, 1989-2009. DOI: 10.1021/acs.jctc.7b00118
   for GFN0-xTB:
   * P. Pracht, E. Caldeweyher, S. Ehlert, S. Grimme, ChemRxiv, 2019, preprint.
     DOI: 10.26434/chemrxiv.8326202.v1
   for GFN-FF:
   * S. Spicher and S. Grimme, Angew. Chem. Int. Ed., 2020, 59, 15665-15673.
     DOI: 10.1002/anie.202004239
   
   for ALPB and GBSA implicit solvation:
   * S. Ehlert, M. Stahn, S. Spicher, S. Grimme, J. Chem. Theory Comput.,
     2021, 17, 4250-4261. DOI: 10.1021/acs.jctc.1c00471
   
   for DFT-D4:
   * E. Caldeweyher, C. Bannwarth and S. Grimme, J. Chem. Phys., 2017,
     147, 034112. DOI: 10.1063/1.4993215
   * E. Caldeweyher, S. Ehlert, A. Hansen, H. Neugebauer, S. Spicher,
     C. Bannwarth and S. Grimme, J. Chem. Phys., 2019, 150, 154122.
     DOI: 10.1063/1.5090222
   * E. Caldeweyher, J.-M. Mewes, S. Ehlert and S. Grimme, Phys. Chem. Chem. Phys.
     2020, 22, 8499-8512. DOI: 10.1039/D0CP00502A
   
   for sTDA-xTB:
   * S. Grimme and C. Bannwarth, J. Chem. Phys., 2016, 145, 054103.
     DOI: 10.1063/1.4959605
   
   in the mass-spec context:
   * V. Asgeirsson, C. Bauer and S. Grimme, Chem. Sci., 2017, 8, 4879.
     DOI: 10.1039/c7sc00601b
   * J. Koopman and S. Grimme, ACS Omega 2019, 4, 12, 15120-15133.
     DOI: 10.1021/acsomega.9b02011
   
   for metadynamics refer to:
   * S. Grimme, J. Chem. Theory Comput., 2019, 155, 2847-2862
     DOI: 10.1021/acs.jctc.9b00143
   
   for SPH calculations refer to:
   * S. Spicher and S. Grimme, J. Chem. Theory Comput., 2021, 17, 1701-1714
     DOI: 10.1021/acs.jctc.0c01306
   
   with help from (in alphabetical order)
   P. Atkinson, C. Bannwarth, F. Bohle, G. Brandenburg, E. Caldeweyher
   M. Checinski, S. Dohm, S. Ehlert, S. Ehrlich, I. Gerasimov, C. Hölzer
   A. Katbashev, J. Koopman, C. Lavigne, S. Lehtola, F. März, M. Müller,
   F. Musil, H. Neugebauer, J. Pisarek, C. Plett, P. Pracht, F. Pultar,
   J. Seibert, P. Shushkov, S. Spicher, M. Stahn, M. Steiner, T. Strunk,
   J. Stückrath, T. Rose, and J. Unsleber
   
 * started run on 2024/11/08 at 11:55:01.268     

           -------------------------------------------------
          |                Calculation Setup                |
           -------------------------------------------------

          program call               : xtb opt_radical_Base2SF5.mol --gfn2 --sp --chrg -1 --uhf 1
          coordinate file            : opt_radical_Base2SF5.mol
          omp threads                :                     8

   ID    Z sym.   atoms
    1    6 C      1-9, 11, 12, 14-21, 23-31, 33, 34, 36-43, 47, 48, 50, 51
    2    7 N      10, 13, 32, 35, 46, 49
    3    8 O      22, 44
    4    5 B      45
    5   16 S      52, 58, 64, 70, 76, 82
    6    9 F      53-57, 59-63, 65-69, 71-75, 77-81, 83-87
    7    1 H      88-109

           -------------------------------------------------
          |                 G F N 2 - x T B                 |
           -------------------------------------------------

        Reference                      10.1021/acs.jctc.8b01176
      * Hamiltonian:
        H0-scaling (s, p, d)           1.850000    2.230000    2.230000
        zeta-weighting                 0.500000
      * Dispersion:
        s8                             2.700000
        a1                             0.520000
        a2                             5.000000
        s9                             5.000000
      * Repulsion:
        kExp                           1.500000    1.000000
        rExp                           1.000000
      * Coulomb:
        alpha                          2.000000
        third order                    shell-resolved
        anisotropic                    true
        a3                             3.000000
        a5                             4.000000
        cn-shift                       1.200000
        cn-exp                         4.000000
        max-rad                        5.000000

q/qsh data taken from xtbrestart
CAMM data taken from xtbrestart

          ...................................................
          :                      SETUP                      :
          :.................................................:
          :  # basis functions                 406          :
          :  # atomic orbitals                 400          :
          :  # shells                          202          :
          :  # electrons                       482          :
          :  max. iterations                   250          :
          :  Hamiltonian                  GFN2-xTB          :
          :  restarted?                       true          :
          :  GBSA solvation                  false          :
          :  PC potential                    false          :
          :  electronic temp.          300.0000000     K    :
          :  accuracy                    1.0000000          :
          :  -> integral cutoff          0.2500000E+02      :
          :  -> integral neglect         0.1000000E-07      :
          :  -> SCF convergence          0.1000000E-05 Eh   :
          :  -> wf. convergence          0.1000000E-03 e    :
          :  Broyden damping             0.4000000          :
          ...................................................

 iter      E             dE          RMSdq      gap      omega  full diag
   1   -292.6852577 -0.292685E+03  0.362E-01    0.05       0.0  T
   2   -292.6766789  0.857882E-02  0.396E-01    0.05       1.0  T
   3   -292.5229778  0.153701E+00  0.933E-01    0.15       1.0  T
   4   -292.6486835 -0.125706E+00  0.479E-01    0.08       1.0  T
   5   -292.6243154  0.243681E-01  0.563E-01    0.07       1.0  T
   6   -292.6360384 -0.117230E-01  0.579E-01    0.05       1.0  T
   7   -292.6925791 -0.565408E-01  0.237E-01    0.04       1.0  T
   8   -292.6809448  0.116343E-01  0.306E-01    0.03       1.0  T
   9   -292.6864605 -0.551571E-02  0.238E-01    0.05       1.0  T
  10   -292.6991127 -0.126522E-01  0.800E-02    0.05       1.0  T
  11   -292.7002295 -0.111681E-02  0.357E-02    0.04       1.0  T
  12   -292.6997475  0.482033E-03  0.532E-02    0.04       1.0  T
  13   -292.7003774 -0.629929E-03  0.153E-02    0.04       1.0  T
  14   -292.7004335 -0.561290E-04  0.341E-03    0.04       2.8  T
  15   -292.7004335  0.947481E-07  0.304E-03    0.04       3.1  T
  16   -292.7004353 -0.185735E-05  0.142E-03    0.04       6.8  T
  17   -292.7004356 -0.314626E-06  0.800E-04    0.04      12.0  T
  18   -292.7004356  0.427332E-08  0.772E-04    0.04      12.4  T

   *** convergence criteria satisfied after 18 iterations ***

         #    Occupation            Energy/Eh            Energy/eV
      -------------------------------------------------------------
         1        2.0000           -0.8193188             -22.2948
       ...           ...                  ...                  ...
       235        2.0000           -0.3630313              -9.8786
       236        2.0000           -0.3621854              -9.8556
       237        2.0000           -0.3460513              -9.4165
       238        2.0000           -0.3453351              -9.3970
       239        2.0000           -0.3446717              -9.3790
       240        1.7347           -0.3352356              -9.1222
       241        1.5004           -0.3344963              -9.1021 (HOMO)
       242        0.7649           -0.3329962              -9.0613 (LUMO)
       243                         -0.2740411              -7.4570
       244                         -0.2699649              -7.3461
       245                         -0.2401025              -6.5335
       246                         -0.2392600              -6.5106
       ...                                ...                  ...
       400                          1.1158134              30.3628
      -------------------------------------------------------------
                  HL-Gap            0.0015000 Eh            0.0408 eV
             Fermi-level           -0.3334515 Eh           -9.0737 eV

 SCC (total)                   0 d,  0 h,  0 min,  2.586 sec
 SCC setup                      ...        0 min,  0.000 sec (  0.014%)
 Dispersion                     ...        0 min,  0.001 sec (  0.041%)
 classical contributions        ...        0 min,  0.000 sec (  0.009%)
 integral evaluation            ...        0 min,  0.009 sec (  0.357%)
 iterations                     ...        0 min,  2.522 sec ( 97.536%)
 molecular gradient             ...        0 min,  0.042 sec (  1.640%)
 printout                       ...        0 min,  0.010 sec (  0.402%)

         :::::::::::::::::::::::::::::::::::::::::::::::::::::
         ::                     SUMMARY                     ::
         :::::::::::::::::::::::::::::::::::::::::::::::::::::
         :: total energy            -290.540572282823 Eh    ::
         :: gradient norm              0.051586673813 Eh/a0 ::
         :: HOMO-LUMO gap              0.040817684288 eV    ::
         ::.................................................::
         :: SCC energy              -292.700435620170 Eh    ::
         :: -> isotropic ES            0.039159570172 Eh    ::
         :: -> anisotropic ES         -0.094289544854 Eh    ::
         :: -> anisotropic XC         -0.004659523102 Eh    ::
         :: -> dispersion             -0.200863210518 Eh    ::
         :: repulsion energy           2.154794819619 Eh    ::
         :: add. restraining           0.000000000000 Eh    ::
         :: total charge              -0.999982596578 e     ::
         :::::::::::::::::::::::::::::::::::::::::::::::::::::

           -------------------------------------------------
          |                Property Printout                |
           -------------------------------------------------

    * Orbital Energies and Occupations

         #    Occupation            Energy/Eh            Energy/eV
      -------------------------------------------------------------
         1        2.0000           -0.8193188             -22.2948
       ...           ...                  ...                  ...
       229        2.0000           -0.3970336             -10.8038
       230        2.0000           -0.3960012             -10.7757
       231        2.0000           -0.3860278             -10.5044
       232        2.0000           -0.3760897             -10.2339
       233        2.0000           -0.3703126             -10.0767
       234        2.0000           -0.3684037             -10.0248
       235        2.0000           -0.3630313              -9.8786
       236        2.0000           -0.3621854              -9.8556
       237        2.0000           -0.3460513              -9.4165
       238        2.0000           -0.3453351              -9.3970
       239        2.0000           -0.3446717              -9.3790
       240        1.7347           -0.3352356              -9.1222
       241        1.5004           -0.3344963              -9.1021 (HOMO)
       242        0.7649           -0.3329962              -9.0613 (LUMO)
       243                         -0.2740411              -7.4570
       244                         -0.2699649              -7.3461
       245                         -0.2401025              -6.5335
       246                         -0.2392600              -6.5106
       247                         -0.2388815              -6.5003
       248                         -0.2364400              -6.4339
       249                         -0.2362975              -6.4300
       250                         -0.2354181              -6.4061
       251                         -0.2327594              -6.3337
       252                         -0.2312176              -6.2918
       ...                                ...                  ...
       400                          1.1158134              30.3628
      -------------------------------------------------------------
                  HL-Gap            0.0015000 Eh            0.0408 eV
             Fermi-level           -0.3334515 Eh           -9.0737 eV

     #   Z          covCN         q      C6AA      α(0)
     1   6 C        2.958    -0.070    29.736     8.944
     2   6 C        2.854     0.174    24.264     8.074
     3   6 C        2.973    -0.033    28.817     8.805
     4   6 C        2.975     0.104    25.706     8.317
     5   6 C        2.946    -0.041    29.026     8.836
     6   6 C        2.961    -0.125    31.193     9.161
     7   6 C        2.969     0.042    27.053     8.531
     8   6 C        2.994    -0.019    28.476     8.753
     9   6 C        2.969     0.106    25.650     8.307
    10   7 N        1.859    -0.215    26.533     7.635
    11   6 C        2.965    -0.014    28.362     8.735
    12   6 C        2.977     0.105    25.670     8.311
    13   7 N        1.868    -0.214    26.505     7.631
    14   6 C        2.965     0.105    25.674     8.311
    15   6 C        2.947    -0.046    29.130     8.852
    16   6 C        2.961    -0.120    31.046     9.139
    17   6 C        2.949    -0.044    29.092     8.846
    18   6 C        2.909     0.102    25.732     8.318
    19   6 C        2.967    -0.055    29.375     8.890
    20   6 C        2.959    -0.129    31.283     9.174
    21   6 C        2.957    -0.037    28.907     8.819
    22   8 O        1.641    -0.349    19.897     6.021
    23   6 C        2.950    -0.071    29.757     8.947
    24   6 C        2.856     0.174    24.255     8.072
    25   6 C        2.975    -0.032    28.783     8.800
    26   6 C        2.982     0.104    25.695     8.315
    27   6 C        2.953    -0.046    29.132     8.853
    28   6 C        2.962    -0.132    31.369     9.187
    29   6 C        2.967     0.047    26.941     8.514
    30   6 C        2.993    -0.017    28.422     8.745
    31   6 C        2.975     0.106    25.658     8.309
    32   7 N        1.863    -0.219    26.619     7.647
    33   6 C        2.963    -0.014    28.349     8.733
    34   6 C        2.976     0.107    25.624     8.303
    35   7 N        1.878    -0.211    26.441     7.623
    36   6 C        2.967     0.106    25.654     8.308
    37   6 C        2.949    -0.043    29.057     8.841
    38   6 C        2.960    -0.120    31.052     9.140
    39   6 C        2.950    -0.043    29.069     8.843
    40   6 C        2.905     0.101    25.773     8.324
    41   6 C        2.976    -0.060    29.495     8.909
    42   6 C        2.959    -0.121    31.075     9.143
    43   6 C        2.965    -0.033    28.829     8.807
    44   8 O        1.640    -0.345    19.812     6.008
    45   5 B        3.267     0.467    14.853     6.427
    46   7 N        2.664    -0.193    25.192     7.454
    47   6 C        3.751    -0.124    22.943     6.831
    48   6 C        3.746    -0.013    20.884     6.519
    49   7 N        2.663    -0.205    25.465     7.495
    50   6 C        3.752    -0.127    23.004     6.840
    51   6 C        3.747    -0.011    20.842     6.512
    52  16 S        4.957     2.015    81.974    15.238
    53   9 F        0.786    -0.455    14.241     4.458
    54   9 F        0.787    -0.455    14.236     4.457
    55   9 F        0.789    -0.390    13.402     4.324
    56   9 F        0.786    -0.456    14.251     4.459
    57   9 F        0.786    -0.455    14.241     4.458
    58  16 S        4.958     2.100    80.273    15.079
    59   9 F        0.786    -0.497    14.802     4.545
    60   9 F        0.787    -0.448    14.142     4.442
    61   9 F        0.789    -0.401    13.540     4.347
    62   9 F        0.786    -0.468    14.408     4.484
    63   9 F        0.785    -0.488    14.677     4.525
    64  16 S        4.956     2.071    80.853    15.134
    65   9 F        0.787    -0.460    14.300     4.467
    66   9 F        0.787    -0.453    14.213     4.453
    67   9 F        0.789    -0.393    13.429     4.329
    68   9 F        0.786    -0.480    14.566     4.508
    69   9 F        0.786    -0.469    14.417     4.485
    70  16 S        4.955     2.066    80.945    15.142
    71   9 F        0.787    -0.457    14.266     4.462
    72   9 F        0.786    -0.464    14.359     4.476
    73   9 F        0.789    -0.395    13.457     4.333
    74   9 F        0.786    -0.463    14.348     4.474
    75   9 F        0.786    -0.463    14.342     4.474
    76  16 S        4.958     2.016    81.971    15.238
    77   9 F        0.786    -0.458    14.271     4.462
    78   9 F        0.787    -0.455    14.241     4.458
    79   9 F        0.789    -0.391    13.409     4.325
    80   9 F        0.786    -0.457    14.263     4.461
    81   9 F        0.787    -0.455    14.233     4.456
    82  16 S        4.958     2.098    80.317    15.084
    83   9 F        0.786    -0.465    14.372     4.478
    84   9 F        0.789    -0.400    13.519     4.343
    85   9 F        0.785    -0.503    14.891     4.558
    86   9 F        0.787    -0.451    14.182     4.448
    87   9 F        0.786    -0.472    14.465     4.493
    88   1 H        0.925     0.063     2.161     2.299
    89   1 H        0.925     0.056     2.248     2.344
    90   1 H        0.925     0.051     2.310     2.377
    91   1 H        0.924     0.061     2.191     2.315
    92   1 H        0.924     0.062     2.177     2.307
    93   1 H        0.925     0.073     2.057     2.243
    94   1 H        0.924     0.036     2.502     2.474
    95   1 H        0.925     0.051     2.313     2.379
    96   1 H        0.925     0.059     2.212     2.326
    97   1 H        0.925     0.062     2.171     2.304
    98   1 H        0.926     0.114     1.663     2.016
    99   1 H        0.926     0.110     1.699     2.039
   100   1 H        0.926     0.111     1.691     2.033
   101   1 H        0.926     0.118     1.631     1.997
   102   1 H        0.926     0.108     1.716     2.048
   103   1 H        0.926     0.110     1.696     2.036
   104   1 H        0.926     0.115     1.651     2.009
   105   1 H        0.926     0.117     1.636     2.000
   106   1 H        0.926     0.111     1.686     2.030
   107   1 H        0.926     0.105     1.744     2.065
   108   1 H        0.926     0.096     1.818     2.108
   109   1 H        0.926     0.107     1.724     2.053

 Mol. C6AA /au·bohr⁶  :     209243.954978
 Mol. C8AA /au·bohr⁸  :    5413954.152525
 Mol. α(0) /au        :        693.024716


Wiberg/Mayer (AO) data.
largest (>0.10) Wiberg bond orders for each atom

 ---------------------------------------------------------------------------
     #   Z sym  total        # sym  WBO       # sym  WBO       # sym  WBO
 ---------------------------------------------------------------------------
     1   6 C    3.911 --     6 C    1.369     2 C    1.364   107 H    0.951
     2   6 C    3.944 --     1 C    1.364     3 C    1.240    22 O    1.134
     3   6 C    3.946 --     2 C    1.240     7 C    1.221     4 C    1.207
     4   6 C    3.973 --    10 N    1.348     5 C    1.219     3 C    1.207
     5   6 C    3.915 --     6 C    1.531     4 C    1.219   101 H    0.950
     6   6 C    3.920 --     5 C    1.531     1 C    1.369    82 S    0.491
     7   6 C    3.979 --     8 C    1.319     3 C    1.221    11 C    1.194
     8   6 C    3.974 --     7 C    1.319    14 C    1.191     9 C    1.188
     9   6 C    3.974 --    10 N    1.363    17 C    1.230     8 C    1.188
    10   7 N    2.948 --     9 C    1.363     4 C    1.348
    11   6 C    3.929 --    18 C    1.258    12 C    1.197     7 C    1.194
    12   6 C    3.969 --    13 N    1.367    21 C    1.206    11 C    1.197
    13   7 N    2.958 --    12 C    1.367    14 C    1.343
    14   6 C    3.975 --    13 N    1.343    15 C    1.246     8 C    1.191
    15   6 C    3.804 --    16 C    1.442    14 C    1.246   102 H    0.952
    16   6 C    3.919 --    17 C    1.461    15 C    1.442    76 S    0.501
    17   6 C    3.806 --    16 C    1.461     9 C    1.230   103 H    0.951
    18   6 C    3.960 --    19 C    1.347    11 C    1.258    46 N    1.154
    19   6 C    3.850 --    20 C    1.382    18 C    1.347   106 H    0.937
    20   6 C    3.926 --    21 C    1.517    19 C    1.382    70 S    0.502
    21   6 C    3.862 --    20 C    1.517    12 C    1.206   104 H    0.949
    22   8 O    2.203 --     2 C    1.134    45 B    0.815
    23   6 C    3.896 --    28 C    1.367    24 C    1.344   109 H    0.947
    24   6 C    3.945 --    23 C    1.344    25 C    1.260    44 O    1.133
    25   6 C    3.943 --    24 C    1.260    26 C    1.207    29 C    1.195
    26   6 C    3.971 --    32 N    1.358    27 C    1.210    25 C    1.207
    27   6 C    3.905 --    28 C    1.531    26 C    1.210    98 H    0.950
    28   6 C    3.922 --    27 C    1.531    23 C    1.367    64 S    0.501
    29   6 C    3.979 --    30 C    1.315    33 C    1.221    25 C    1.195
    30   6 C    3.976 --    29 C    1.315    36 C    1.196    31 C    1.195
    31   6 C    3.975 --    32 N    1.343    39 C    1.243    30 C    1.195
    32   7 N    2.927 --    26 C    1.358    31 C    1.343
    33   6 C    3.938 --    40 C    1.239    29 C    1.221    34 C    1.205
    34   6 C    3.968 --    35 N    1.355    43 C    1.209    33 C    1.205
    35   7 N    2.946 --    34 C    1.355    36 C    1.352
    36   6 C    3.976 --    35 N    1.352    37 C    1.234    30 C    1.196
    37   6 C    3.805 --    38 C    1.457    36 C    1.234   100 H    0.951
    38   6 C    3.920 --    37 C    1.457    39 C    1.448    52 S    0.502
    39   6 C    3.803 --    38 C    1.448    31 C    1.243    99 H    0.952
    40   6 C    3.958 --    41 C    1.325    33 C    1.239    49 N    1.193
    41   6 C    3.854 --    42 C    1.390    40 C    1.325   108 H    0.939
    42   6 C    3.922 --    43 C    1.515    41 C    1.390    58 S    0.482
    43   6 C    3.872 --    42 C    1.515    34 C    1.209   105 H    0.950
    44   8 O    2.207 --    24 C    1.133    45 B    0.817
    45   5 B    3.413 --    44 O    0.817    22 O    0.815    46 N    0.810
                            49 N    0.808
    46   7 N    3.209 --    18 C    1.154    48 C    1.000    45 B    0.810
    47   6 C    3.978 --    48 C    1.005    89 H    0.983    88 H    0.983
                            90 H    0.982
    48   6 C    3.953 --    47 C    1.005    46 N    1.000    91 H    0.965
                            92 H    0.927
    49   7 N    3.241 --    40 C    1.193    51 C    0.993    45 B    0.808
    50   6 C    3.984 --    51 C    1.012    95 H    0.986    96 H    0.982
                            97 H    0.980
    51   6 C    3.961 --    50 C    1.012    49 N    0.993    93 H    0.953
                            94 H    0.945
    52  16 S    4.016 --    55 F    0.730    54 F    0.688    53 F    0.688
                            57 F    0.688    56 F    0.687    38 C    0.502
    53   9 F    0.886 --    52 S    0.688
    54   9 F    0.887 --    52 S    0.688
    55   9 F    0.955 --    52 S    0.730
    56   9 F    0.885 --    52 S    0.687
    57   9 F    0.886 --    52 S    0.688
    58  16 S    3.885 --    61 F    0.715    60 F    0.693    62 F    0.673
                            63 F    0.646    59 F    0.640    42 C    0.482
    59   9 F    0.832 --    58 S    0.640
    60   9 F    0.898 --    58 S    0.693
    61   9 F    0.939 --    58 S    0.715
    62   9 F    0.868 --    58 S    0.673
    63   9 F    0.839 --    58 S    0.646
    64  16 S    3.954 --    67 F    0.725    66 F    0.688    65 F    0.682
                            69 F    0.670    68 F    0.655    28 C    0.501
    65   9 F    0.880 --    64 S    0.682
    66   9 F    0.891 --    64 S    0.688
    67   9 F    0.952 --    64 S    0.725
    68   9 F    0.855 --    64 S    0.655
    69   9 F    0.867 --    64 S    0.670
    70  16 S    3.965 --    73 F    0.722    71 F    0.682    75 F    0.677
                            74 F    0.675    72 F    0.674    20 C    0.502
    71   9 F    0.884 --    70 S    0.682
    72   9 F    0.874 --    70 S    0.674
    73   9 F    0.949 --    70 S    0.722
    74   9 F    0.874 --    70 S    0.675
    75   9 F    0.874 --    70 S    0.677
    76  16 S    4.013 --    79 F    0.730    81 F    0.689    78 F    0.688
                            80 F    0.686    77 F    0.686    16 C    0.501
    77   9 F    0.883 --    76 S    0.686
    78   9 F    0.886 --    76 S    0.688
    79   9 F    0.954 --    76 S    0.730
    80   9 F    0.884 --    76 S    0.686
    81   9 F    0.887 --    76 S    0.689
    82  16 S    3.902 --    84 F    0.716    86 F    0.689    83 F    0.676
                            87 F    0.664    85 F    0.633     6 C    0.491
    83   9 F    0.872 --    82 S    0.676
    84   9 F    0.942 --    82 S    0.716
    85   9 F    0.824 --    82 S    0.633
    86   9 F    0.893 --    82 S    0.689
    87   9 F    0.862 --    82 S    0.664
    88   1 H    0.995 --    47 C    0.983
    89   1 H    0.997 --    47 C    0.983
    90   1 H    0.995 --    47 C    0.982
    91   1 H    0.994 --    48 C    0.965
    92   1 H    0.972 --    48 C    0.927
    93   1 H    0.992 --    51 C    0.953
    94   1 H    0.984 --    51 C    0.945
    95   1 H    0.997 --    50 C    0.986
    96   1 H    0.996 --    50 C    0.982
    97   1 H    0.995 --    50 C    0.980
    98   1 H    0.986 --    27 C    0.950
    99   1 H    0.987 --    39 C    0.952
   100   1 H    0.987 --    37 C    0.951
   101   1 H    0.986 --     5 C    0.950
   102   1 H    0.988 --    15 C    0.952
   103   1 H    0.987 --    17 C    0.951
   104   1 H    0.986 --    21 C    0.949
   105   1 H    0.985 --    43 C    0.950
   106   1 H    0.987 --    19 C    0.937
   107   1 H    0.989 --     1 C    0.951
   108   1 H    0.990 --    41 C    0.939
   109   1 H    0.988 --    23 C    0.947
 ---------------------------------------------------------------------------

Topologies differ in bond orders
Writing corrected topology to xtbtopo.mol

molecular dipole:
                 x           y           z       tot (Debye)
 q only:       -0.122      -0.489      -2.337
   full:       -0.198      -0.474      -1.869       4.925
molecular quadrupole (traceless):
                xx          xy          yy          xz          yz          zz
 q only:      -95.644      27.180     -57.137     -14.386      30.592     152.781
  q+dip:      -91.968      36.201     -43.364     -19.441      28.927     135.332
   full:      -97.544      35.492     -50.437     -20.820      29.927     147.982


           -------------------------------------------------
          | TOTAL ENERGY             -290.540572282823 Eh   |
          | GRADIENT NORM               0.051586673813 Eh/α |
          | HOMO-LUMO GAP               0.040817684288 eV   |
           -------------------------------------------------
########################################################################
[WARNING] Runtime exception occurred
-1- restart_readRestart: Number of electron missmatch in restart file.
########################################################################

------------------------------------------------------------------------
 * finished run on 2024/11/08 at 11:55:03.873     
------------------------------------------------------------------------
Note: The following floating-point exceptions are signalling: IEEE_UNDERFLOW_FLAG
normal termination of xtb
 total:
 * wall-time:     0 d,  0 h,  0 min,  2.604 sec
 *  cpu-time:     0 d,  0 h,  0 min, 10.245 sec
 * ratio c/w:     3.934 speedup
 SCF:
 * wall-time:     0 d,  0 h,  0 min,  2.586 sec
 *  cpu-time:     0 d,  0 h,  0 min, 10.209 sec
 * ratio c/w:     3.947 speedup

