      -----------------------------------------------------------      
     |                   =====================                   |     
     |                           x T B                           |     
     |                   =====================                   |     
     |                         S. Grimme                         |     
     |          Mulliken Center for Theoretical Chemistry        |     
     |                    University of Bonn                     |     
      -----------------------------------------------------------      

   * xtb version 6.6.1 (8d0f1dd) compiled by 'runner@Mac-1690902418499.local' on 2023-08-01

   xtb is free software: you can redistribute it and/or modify it under
   the terms of the GNU Lesser General Public License as published by
   the Free Software Foundation, either version 3 of the License, or
   (at your option) any later version.
   
   xtb is distributed in the hope that it will be useful,
   but WITHOUT ANY WARRANTY; without even the implied warranty of
   MERCHANTABILITY or FITNESS FOR A PARTICULAR PURPOSE.  See the
   GNU Lesser General Public License for more details.
   
   Cite this work as:
   * C. Bannwarth, E. Caldeweyher, S. Ehlert, A. Hansen, P. Pracht,
     J. Seibert, S. Spicher, S. Grimme, WIREs Comput. Mol. Sci., 2020, 11,
     e01493. DOI: 10.1002/wcms.1493
   
   for GFN2-xTB:
   * C. Bannwarth, S. Ehlert and S. Grimme., J. Chem. Theory Comput., 2019,
     15, 1652-1671. DOI: 10.1021/acs.jctc.8b01176
   for GFN1-xTB:
   * S. Grimme, C. Bannwarth, P. Shushkov, J. Chem. Theory Comput., 2017,
     13, 1989-2009. DOI: 10.1021/acs.jctc.7b00118
   for GFN0-xTB:
   * P. Pracht, E. Caldeweyher, S. Ehlert, S. Grimme, ChemRxiv, 2019, preprint.
     DOI: 10.26434/chemrxiv.8326202.v1
   for GFN-FF:
   * S. Spicher and S. Grimme, Angew. Chem. Int. Ed., 2020, 59, 15665-15673.
     DOI: 10.1002/anie.202004239
   
   for ALPB and GBSA implicit solvation:
   * S. Ehlert, M. Stahn, S. Spicher, S. Grimme, J. Chem. Theory Comput.,
     2021, 17, 4250-4261. DOI: 10.1021/acs.jctc.1c00471
   
   for DFT-D4:
   * E. Caldeweyher, C. Bannwarth and S. Grimme, J. Chem. Phys., 2017,
     147, 034112. DOI: 10.1063/1.4993215
   * E. Caldeweyher, S. Ehlert, A. Hansen, H. Neugebauer, S. Spicher,
     C. Bannwarth and S. Grimme, J. Chem. Phys., 2019, 150, 154122.
     DOI: 10.1063/1.5090222
   * E. Caldeweyher, J.-M. Mewes, S. Ehlert and S. Grimme, Phys. Chem. Chem. Phys.
     2020, 22, 8499-8512. DOI: 10.1039/D0CP00502A
   
   for sTDA-xTB:
   * S. Grimme and C. Bannwarth, J. Chem. Phys., 2016, 145, 054103.
     DOI: 10.1063/1.4959605
   
   in the mass-spec context:
   * V. Asgeirsson, C. Bauer and S. Grimme, Chem. Sci., 2017, 8, 4879.
     DOI: 10.1039/c7sc00601b
   * J. Koopman and S. Grimme, ACS Omega 2019, 4, 12, 15120-15133.
     DOI: 10.1021/acsomega.9b02011
   
   for metadynamics refer to:
   * S. Grimme, J. Chem. Theory Comput., 2019, 155, 2847-2862
     DOI: 10.1021/acs.jctc.9b00143
   
   for SPH calculations refer to:
   * S. Spicher and S. Grimme, J. Chem. Theory Comput., 2021, 17, 1701-1714
     DOI: 10.1021/acs.jctc.0c01306
   
   with help from (in alphabetical order)
   P. Atkinson, C. Bannwarth, F. Bohle, G. Brandenburg, E. Caldeweyher
   M. Checinski, S. Dohm, S. Ehlert, S. Ehrlich, I. Gerasimov, C. Hölzer
   A. Katbashev, J. Koopman, C. Lavigne, S. Lehtola, F. März, M. Müller,
   F. Musil, H. Neugebauer, J. Pisarek, C. Plett, P. Pracht, F. Pultar,
   J. Seibert, P. Shushkov, S. Spicher, M. Stahn, M. Steiner, T. Strunk,
   J. Stückrath, T. Rose, and J. Unsleber
   
 * started run on 2024/11/08 at 11:54:57.394     

           -------------------------------------------------
          |                Calculation Setup                |
           -------------------------------------------------

          program call               : xtb opt_anion_Base2SF5.mol --gfn2 --sp --chrg -1 --uhf 0
          coordinate file            : opt_anion_Base2SF5.mol
          omp threads                :                     8

   ID    Z sym.   atoms
    1    6 C      1-9, 11, 12, 14-21, 23-31, 33, 34, 36-43, 47, 48, 50, 51
    2    7 N      10, 13, 32, 35, 46, 49
    3    8 O      22, 44
    4    5 B      45
    5   16 S      52, 58, 64, 70, 76, 82
    6    9 F      53-57, 59-63, 65-69, 71-75, 77-81, 83-87
    7    1 H      88-109
########################################################################
[WARNING] Please study the warnings concerning your input carefully
-1- prog_main: Charge in sdf/mol input was overwritten
########################################################################

           -------------------------------------------------
          |                 G F N 2 - x T B                 |
           -------------------------------------------------

        Reference                      10.1021/acs.jctc.8b01176
      * Hamiltonian:
        H0-scaling (s, p, d)           1.850000    2.230000    2.230000
        zeta-weighting                 0.500000
      * Dispersion:
        s8                             2.700000
        a1                             0.520000
        a2                             5.000000
        s9                             5.000000
      * Repulsion:
        kExp                           1.500000    1.000000
        rExp                           1.000000
      * Coulomb:
        alpha                          2.000000
        third order                    shell-resolved
        anisotropic                    true
        a3                             3.000000
        a5                             4.000000
        cn-shift                       1.200000
        cn-exp                         4.000000
        max-rad                        5.000000

q/qsh data taken from xtbrestart
CAMM data taken from xtbrestart

          ...................................................
          :                      SETUP                      :
          :.................................................:
          :  # basis functions                 406          :
          :  # atomic orbitals                 400          :
          :  # shells                          202          :
          :  # electrons                       482          :
          :  max. iterations                   250          :
          :  Hamiltonian                  GFN2-xTB          :
          :  restarted?                       true          :
          :  GBSA solvation                  false          :
          :  PC potential                    false          :
          :  electronic temp.          300.0000000     K    :
          :  accuracy                    1.0000000          :
          :  -> integral cutoff          0.2500000E+02      :
          :  -> integral neglect         0.1000000E-07      :
          :  -> SCF convergence          0.1000000E-05 Eh   :
          :  -> wf. convergence          0.1000000E-03 e    :
          :  Broyden damping             0.4000000          :
          ...................................................

 iter      E             dE          RMSdq      gap      omega  full diag
   1   -292.6902899 -0.292690E+03  0.326E-01    0.05       0.0  T
   2   -292.4475547  0.242735E+00  0.114E+00    0.21       1.0  T
   3   -292.6365142 -0.188960E+00  0.618E-01    0.04       1.0  T
   4   -292.6629664 -0.264522E-01  0.472E-01    0.08       1.0  T
   5   -292.5536825  0.109284E+00  0.767E-01    0.17       1.0  T
   6   -292.6547054 -0.101023E+00  0.450E-01    0.06       1.0  T
   7   -292.6729993 -0.182939E-01  0.381E-01    0.03       1.0  T
   8   -292.6965922 -0.235930E-01  0.175E-01    0.04       1.0  T
   9   -292.7023776 -0.578538E-02  0.909E-02    0.05       1.0  T
  10   -292.7028623 -0.484722E-03  0.702E-02    0.04       1.0  T
  11   -292.7037857 -0.923353E-03  0.308E-02    0.04       1.0  T
  12   -292.7039028 -0.117060E-03  0.164E-02    0.04       1.0  T
  13   -292.7039439 -0.411016E-04  0.571E-03    0.04       1.7  T
  14   -292.7039487 -0.482862E-05  0.369E-03    0.04       2.6  T
  15   -292.7039513 -0.256625E-05  0.109E-03    0.04       8.8  T
  16   -292.7039511  0.145264E-06  0.117E-03    0.04       8.2  T
  17   -292.7039513 -0.226454E-06  0.619E-04    0.04      15.5  T
  18   -292.7039511  0.208064E-06  0.979E-04    0.04       9.8  T

   *** convergence criteria satisfied after 18 iterations ***

         #    Occupation            Energy/Eh            Energy/eV
      -------------------------------------------------------------
         1        2.0000           -0.8186809             -22.2774
       ...           ...                  ...                  ...
       235        2.0000           -0.3693680             -10.0510
       236        2.0000           -0.3684541             -10.0261
       237        2.0000           -0.3525146              -9.5924
       238        2.0000           -0.3518729              -9.5749
       239        2.0000           -0.3510443              -9.5524
       240        1.7412           -0.3419579              -9.3051
       241        1.4821           -0.3411458              -9.2831 (HOMO)
       242        0.7768           -0.3397156              -9.2441 (LUMO)
       243                         -0.2803306              -7.6282
       244                         -0.2764501              -7.5226
       245                         -0.2475406              -6.7359
       246                         -0.2461251              -6.6974
       ...                                ...                  ...
       400                          1.0776311              29.3238
      -------------------------------------------------------------
                  HL-Gap            0.0014303 Eh            0.0389 eV
             Fermi-level           -0.3401470 Eh           -9.2559 eV

 SCC (total)                   0 d,  0 h,  0 min,  1.826 sec
 SCC setup                      ...        0 min,  0.001 sec (  0.028%)
 Dispersion                     ...        0 min,  0.001 sec (  0.073%)
 classical contributions        ...        0 min,  0.000 sec (  0.018%)
 integral evaluation            ...        0 min,  0.010 sec (  0.553%)
 iterations                     ...        0 min,  1.769 sec ( 96.864%)
 molecular gradient             ...        0 min,  0.043 sec (  2.352%)
 printout                       ...        0 min,  0.002 sec (  0.111%)

         :::::::::::::::::::::::::::::::::::::::::::::::::::::
         ::                     SUMMARY                     ::
         :::::::::::::::::::::::::::::::::::::::::::::::::::::
         :: total energy            -290.543945610158 Eh    ::
         :: gradient norm              0.000466060264 Eh/a0 ::
         :: HOMO-LUMO gap              0.038919140179 eV    ::
         ::.................................................::
         :: SCC energy              -292.703951124030 Eh    ::
         :: -> isotropic ES            0.060359442153 Eh    ::
         :: -> anisotropic ES         -0.094605784774 Eh    ::
         :: -> anisotropic XC         -0.001502387543 Eh    ::
         :: -> dispersion             -0.200527961760 Eh    ::
         :: repulsion energy           2.154905922737 Eh    ::
         :: add. restraining           0.000000000000 Eh    ::
         :: total charge              -1.000014199254 e     ::
         :::::::::::::::::::::::::::::::::::::::::::::::::::::

           -------------------------------------------------
          |                Property Printout                |
           -------------------------------------------------

    * Orbital Energies and Occupations

         #    Occupation            Energy/Eh            Energy/eV
      -------------------------------------------------------------
         1        2.0000           -0.8186809             -22.2774
       ...           ...                  ...                  ...
       229        2.0000           -0.4029814             -10.9657
       230        2.0000           -0.4014617             -10.9243
       231        2.0000           -0.3917358             -10.6597
       232        2.0000           -0.3821961             -10.4001
       233        2.0000           -0.3764519             -10.2438
       234        2.0000           -0.3745274             -10.1914
       235        2.0000           -0.3693680             -10.0510
       236        2.0000           -0.3684541             -10.0261
       237        2.0000           -0.3525146              -9.5924
       238        2.0000           -0.3518729              -9.5749
       239        2.0000           -0.3510443              -9.5524
       240        1.7412           -0.3419579              -9.3051
       241        1.4821           -0.3411458              -9.2831 (HOMO)
       242        0.7768           -0.3397156              -9.2441 (LUMO)
       243                         -0.2803306              -7.6282
       244                         -0.2764501              -7.5226
       245                         -0.2475406              -6.7359
       246                         -0.2461251              -6.6974
       247                         -0.2457395              -6.6869
       248                         -0.2442014              -6.6451
       249                         -0.2438186              -6.6346
       250                         -0.2425335              -6.5997
       251                         -0.2397878              -6.5250
       252                         -0.2387902              -6.4978
       ...                                ...                  ...
       400                          1.0776311              29.3238
      -------------------------------------------------------------
                  HL-Gap            0.0014303 Eh            0.0389 eV
             Fermi-level           -0.3401470 Eh           -9.2559 eV

     #   Z          covCN         q      C6AA      α(0)
     1   6 C        2.957    -0.069    29.727     8.943
     2   6 C        2.856     0.174    24.256     8.072
     3   6 C        2.973    -0.032    28.804     8.803
     4   6 C        2.977     0.104    25.700     8.316
     5   6 C        2.948    -0.041    29.024     8.836
     6   6 C        2.964    -0.124    31.162     9.156
     7   6 C        2.970     0.043    27.042     8.530
     8   6 C        2.993    -0.019    28.468     8.752
     9   6 C        2.972     0.107    25.633     8.305
    10   7 N        1.859    -0.214    26.496     7.630
    11   6 C        2.965    -0.013    28.338     8.732
    12   6 C        2.979     0.106    25.659     8.309
    13   7 N        1.867    -0.213    26.468     7.626
    14   6 C        2.967     0.106    25.655     8.308
    15   6 C        2.950    -0.045    29.110     8.849
    16   6 C        2.965    -0.117    30.959     9.127
    17   6 C        2.952    -0.043    29.073     8.844
    18   6 C        2.910     0.103    25.712     8.315
    19   6 C        2.966    -0.055    29.355     8.887
    20   6 C        2.962    -0.126    31.204     9.163
    21   6 C        2.959    -0.036    28.897     8.817
    22   8 O        1.640    -0.351    19.928     6.026
    23   6 C        2.950    -0.070    29.750     8.946
    24   6 C        2.859     0.174    24.251     8.072
    25   6 C        2.975    -0.031    28.759     8.797
    26   6 C        2.985     0.104    25.686     8.314
    27   6 C        2.956    -0.045    29.126     8.852
    28   6 C        2.965    -0.130    31.310     9.178
    29   6 C        2.968     0.048    26.925     8.511
    30   6 C        2.993    -0.017    28.419     8.745
    31   6 C        2.978     0.107    25.636     8.305
    32   7 N        1.862    -0.217    26.583     7.642
    33   6 C        2.963    -0.013    28.329     8.730
    34   6 C        2.979     0.108    25.613     8.302
    35   7 N        1.878    -0.209    26.393     7.616
    36   6 C        2.969     0.107    25.632     8.304
    37   6 C        2.952    -0.042    29.037     8.838
    38   6 C        2.965    -0.117    30.965     9.127
    39   6 C        2.952    -0.042    29.046     8.840
    40   6 C        2.906     0.101    25.757     8.322
    41   6 C        2.975    -0.060    29.495     8.908
    42   6 C        2.962    -0.119    31.029     9.137
    43   6 C        2.966    -0.033    28.823     8.806
    44   8 O        1.639    -0.346    19.843     6.013
    45   5 B        3.268     0.467    14.857     6.428
    46   7 N        2.664    -0.194    25.214     7.458
    47   6 C        3.751    -0.124    22.939     6.830
    48   6 C        3.746    -0.013    20.878     6.518
    49   7 N        2.662    -0.204    25.450     7.492
    50   6 C        3.752    -0.127    23.005     6.840
    51   6 C        3.747    -0.012    20.849     6.513
    52  16 S        4.962     2.008    82.123    15.252
    53   9 F        0.786    -0.457    14.259     4.461
    54   9 F        0.786    -0.456    14.254     4.460
    55   9 F        0.788    -0.391    13.408     4.325
    56   9 F        0.786    -0.458    14.269     4.462
    57   9 F        0.786    -0.457    14.259     4.460
    58  16 S        4.960     2.094    80.391    15.091
    59   9 F        0.785    -0.496    14.795     4.544
    60   9 F        0.787    -0.449    14.155     4.444
    61   9 F        0.788    -0.402    13.547     4.348
    62   9 F        0.786    -0.470    14.441     4.489
    63   9 F        0.785    -0.488    14.684     4.526
    64  16 S        4.959     2.064    80.990    15.147
    65   9 F        0.786    -0.463    14.338     4.473
    66   9 F        0.787    -0.454    14.223     4.455
    67   9 F        0.788    -0.393    13.428     4.329
    68   9 F        0.786    -0.477    14.535     4.503
    69   9 F        0.786    -0.470    14.436     4.488
    70  16 S        4.957     2.058    81.106    15.158
    71   9 F        0.786    -0.457    14.260     4.461
    72   9 F        0.786    -0.462    14.330     4.472
    73   9 F        0.788    -0.395    13.457     4.333
    74   9 F        0.786    -0.465    14.374     4.478
    75   9 F        0.786    -0.465    14.373     4.478
    76  16 S        4.963     2.008    82.118    15.252
    77   9 F        0.786    -0.459    14.289     4.465
    78   9 F        0.786    -0.457    14.262     4.461
    79   9 F        0.788    -0.392    13.416     4.327
    80   9 F        0.786    -0.458    14.279     4.464
    81   9 F        0.786    -0.456    14.253     4.460
    82  16 S        4.959     2.092    80.428    15.094
    83   9 F        0.786    -0.468    14.406     4.483
    84   9 F        0.788    -0.401    13.529     4.345
    85   9 F        0.785    -0.501    14.867     4.555
    86   9 F        0.787    -0.451    14.179     4.448
    87   9 F        0.786    -0.473    14.477     4.494
    88   1 H        0.925     0.064     2.148     2.292
    89   1 H        0.925     0.055     2.258     2.350
    90   1 H        0.925     0.051     2.305     2.374
    91   1 H        0.924     0.061     2.192     2.315
    92   1 H        0.924     0.061     2.191     2.315
    93   1 H        0.925     0.073     2.051     2.240
    94   1 H        0.924     0.036     2.505     2.475
    95   1 H        0.925     0.051     2.306     2.375
    96   1 H        0.925     0.060     2.199     2.319
    97   1 H        0.925     0.062     2.174     2.306
    98   1 H        0.926     0.117     1.635     2.000
    99   1 H        0.926     0.113     1.670     2.021
   100   1 H        0.926     0.114     1.662     2.016
   101   1 H        0.926     0.121     1.603     1.980
   102   1 H        0.926     0.111     1.686     2.031
   103   1 H        0.926     0.113     1.667     2.019
   104   1 H        0.926     0.119     1.618     1.989
   105   1 H        0.926     0.121     1.609     1.983
   106   1 H        0.926     0.110     1.694     2.035
   107   1 H        0.926     0.105     1.736     2.060
   108   1 H        0.926     0.096     1.822     2.111
   109   1 H        0.926     0.106     1.728     2.056

 Mol. C6AA /au·bohr⁶  :     209162.886917
 Mol. C8AA /au·bohr⁸  :    5412664.756521
 Mol. α(0) /au        :        692.873551


Wiberg/Mayer (AO) data.
largest (>0.10) Wiberg bond orders for each atom

 ---------------------------------------------------------------------------
     #   Z sym  total        # sym  WBO       # sym  WBO       # sym  WBO
 ---------------------------------------------------------------------------
     1   6 C    3.911 --     6 C    1.369     2 C    1.364   107 H    0.951
     2   6 C    3.945 --     1 C    1.364     3 C    1.239    22 O    1.135
     3   6 C    3.946 --     2 C    1.239     7 C    1.220     4 C    1.210
     4   6 C    3.973 --    10 N    1.345     5 C    1.219     3 C    1.210
     5   6 C    3.916 --     6 C    1.532     4 C    1.219   101 H    0.948
     6   6 C    3.919 --     5 C    1.532     1 C    1.369    82 S    0.484
     7   6 C    3.979 --     8 C    1.320     3 C    1.220    11 C    1.194
     8   6 C    3.975 --     7 C    1.320    14 C    1.191     9 C    1.188
     9   6 C    3.974 --    10 N    1.364    17 C    1.228     8 C    1.188
    10   7 N    2.945 --     9 C    1.364     4 C    1.345
    11   6 C    3.929 --    18 C    1.258    12 C    1.201     7 C    1.194
    12   6 C    3.969 --    13 N    1.362    21 C    1.207    11 C    1.201
    13   7 N    2.954 --    12 C    1.362    14 C    1.344
    14   6 C    3.974 --    13 N    1.344    15 C    1.245     8 C    1.191
    15   6 C    3.802 --    16 C    1.443    14 C    1.245   102 H    0.951
    16   6 C    3.917 --    17 C    1.461    15 C    1.443    76 S    0.492
    17   6 C    3.805 --    16 C    1.461     9 C    1.228   103 H    0.950
    18   6 C    3.959 --    19 C    1.347    11 C    1.258    46 N    1.151
    19   6 C    3.853 --    20 C    1.384    18 C    1.347   106 H    0.937
    20   6 C    3.925 --    21 C    1.517    19 C    1.384    70 S    0.495
    21   6 C    3.864 --    20 C    1.517    12 C    1.207   104 H    0.948
    22   8 O    2.197 --     2 C    1.135    45 B    0.809
    23   6 C    3.899 --    28 C    1.371    24 C    1.345   109 H    0.947
    24   6 C    3.946 --    23 C    1.345    25 C    1.259    44 O    1.133
    25   6 C    3.942 --    24 C    1.259    26 C    1.211    29 C    1.194
    26   6 C    3.971 --    32 N    1.351    27 C    1.213    25 C    1.211
    27   6 C    3.906 --    28 C    1.529    26 C    1.213    98 H    0.949
    28   6 C    3.921 --    27 C    1.529    23 C    1.371    64 S    0.495
    29   6 C    3.979 --    30 C    1.315    33 C    1.221    25 C    1.194
    30   6 C    3.976 --    29 C    1.315    36 C    1.196    31 C    1.194
    31   6 C    3.974 --    32 N    1.345    39 C    1.241    30 C    1.194
    32   7 N    2.922 --    26 C    1.351    31 C    1.345
    33   6 C    3.937 --    40 C    1.238    29 C    1.221    34 C    1.208
    34   6 C    3.968 --    35 N    1.350    43 C    1.210    33 C    1.208
    35   7 N    2.943 --    36 C    1.354    34 C    1.350
    36   6 C    3.975 --    35 N    1.354    37 C    1.232    30 C    1.196
    37   6 C    3.801 --    38 C    1.457    36 C    1.232   100 H    0.950
    38   6 C    3.919 --    37 C    1.457    39 C    1.449    52 S    0.493
    39   6 C    3.800 --    38 C    1.449    31 C    1.241    99 H    0.950
    40   6 C    3.958 --    41 C    1.323    33 C    1.238    49 N    1.195
    41   6 C    3.855 --    42 C    1.392    40 C    1.323   108 H    0.939
    42   6 C    3.920 --    43 C    1.514    41 C    1.392    58 S    0.474
    43   6 C    3.872 --    42 C    1.514    34 C    1.210   105 H    0.949
    44   8 O    2.201 --    24 C    1.133    45 B    0.813
    45   5 B    3.413 --    46 N    0.818    44 O    0.813    49 N    0.809
                            22 O    0.809
    46   7 N    3.208 --    18 C    1.151    48 C    0.997    45 B    0.818
    47   6 C    3.977 --    48 C    1.004    89 H    0.984    88 H    0.982
                            90 H    0.982
    48   6 C    3.954 --    47 C    1.004    46 N    0.997    91 H    0.966
                            92 H    0.931
    49   7 N    3.244 --    40 C    1.195    51 C    0.993    45 B    0.809
    50   6 C    3.983 --    51 C    1.011    95 H    0.985    96 H    0.982
                            97 H    0.980
    51   6 C    3.960 --    50 C    1.011    49 N    0.993    93 H    0.953
                            94 H    0.944
    52  16 S    3.988 --    55 F    0.724    54 F    0.685    53 F    0.685
                            57 F    0.684    56 F    0.684    38 C    0.493
    53   9 F    0.884 --    52 S    0.685
    54   9 F    0.885 --    52 S    0.685
    55   9 F    0.952 --    52 S    0.724
    56   9 F    0.883 --    52 S    0.684
    57   9 F    0.884 --    52 S    0.684
    58  16 S    3.861 --    61 F    0.709    60 F    0.689    62 F    0.667
                            63 F    0.645    59 F    0.641    42 C    0.474
    59   9 F    0.833 --    58 S    0.641
    60   9 F    0.896 --    58 S    0.689
    61   9 F    0.937 --    58 S    0.709
    62   9 F    0.864 --    58 S    0.667
    63   9 F    0.839 --    58 S    0.645
    64  16 S    3.935 --    67 F    0.720    66 F    0.686    65 F    0.675
                            69 F    0.666    68 F    0.659    28 C    0.495
    65   9 F    0.875 --    64 S    0.675
    66   9 F    0.890 --    64 S    0.686
    67   9 F    0.951 --    64 S    0.720
    68   9 F    0.859 --    64 S    0.659
    69   9 F    0.865 --    64 S    0.666
    70  16 S    3.944 --    73 F    0.717    71 F    0.681    72 F    0.676
                            75 F    0.671    74 F    0.670    20 C    0.495
    71   9 F    0.885 --    70 S    0.681
    72   9 F    0.877 --    70 S    0.676
    73   9 F    0.947 --    70 S    0.717
    74   9 F    0.871 --    70 S    0.670
    75   9 F    0.870 --    70 S    0.671
    76  16 S    3.984 --    79 F    0.723    81 F    0.685    78 F    0.684
                            80 F    0.684    77 F    0.682    16 C    0.492
    77   9 F    0.881 --    76 S    0.682
    78   9 F    0.884 --    76 S    0.684
    79   9 F    0.952 --    76 S    0.723
    80   9 F    0.882 --    76 S    0.684
    81   9 F    0.885 --    76 S    0.685
    82  16 S    3.881 --    84 F    0.710    86 F    0.687    83 F    0.669
                            87 F    0.662    85 F    0.636     6 C    0.484
    83   9 F    0.868 --    82 S    0.669
    84   9 F    0.939 --    82 S    0.710
    85   9 F    0.827 --    82 S    0.636
    86   9 F    0.893 --    82 S    0.687
    87   9 F    0.860 --    82 S    0.662
    88   1 H    0.995 --    47 C    0.982
    89   1 H    0.997 --    47 C    0.984
    90   1 H    0.996 --    47 C    0.982
    91   1 H    0.994 --    48 C    0.966
    92   1 H    0.972 --    48 C    0.931
    93   1 H    0.992 --    51 C    0.953
    94   1 H    0.984 --    51 C    0.944
    95   1 H    0.997 --    50 C    0.985
    96   1 H    0.995 --    50 C    0.982
    97   1 H    0.995 --    50 C    0.980
    98   1 H    0.986 --    27 C    0.949
    99   1 H    0.987 --    39 C    0.950
   100   1 H    0.986 --    37 C    0.950
   101   1 H    0.985 --     5 C    0.948
   102   1 H    0.987 --    15 C    0.951
   103   1 H    0.986 --    17 C    0.950
   104   1 H    0.985 --    21 C    0.948
   105   1 H    0.984 --    43 C    0.949
   106   1 H    0.987 --    19 C    0.937
   107   1 H    0.988 --     1 C    0.951
   108   1 H    0.990 --    41 C    0.939
   109   1 H    0.988 --    23 C    0.947
 ---------------------------------------------------------------------------

Topologies differ in bond orders
Writing corrected topology to xtbtopo.mol

molecular dipole:
                 x           y           z       tot (Debye)
 q only:       -0.089      -0.482      -2.395
   full:       -0.158      -0.465      -1.928       5.057
molecular quadrupole (traceless):
                xx          xy          yy          xz          yz          zz
 q only:      -99.667      26.539     -60.420     -15.075      32.697     160.087
  q+dip:      -97.427      35.774     -47.977     -20.179      31.446     145.404
   full:     -102.833      35.084     -55.065     -21.556      32.500     157.898


           -------------------------------------------------
          | TOTAL ENERGY             -290.543945610158 Eh   |
          | GRADIENT NORM               0.000466060264 Eh/α |
          | HOMO-LUMO GAP               0.038919140179 eV   |
           -------------------------------------------------
########################################################################
[WARNING] Runtime exception occurred
-2- restart_readRestart: Multiplicity missmatch in restart file.
-1- restart_readRestart: Number of electron missmatch in restart file.
Note: The following floating-point exceptions are signalling: IEEE_UNDERFLOW_FLAG
normal termination of xtb
########################################################################

------------------------------------------------------------------------
 * finished run on 2024/11/08 at 11:54:59.243     
------------------------------------------------------------------------
 total:
 * wall-time:     0 d,  0 h,  0 min,  1.848 sec
 *  cpu-time:     0 d,  0 h,  0 min,  7.166 sec
 * ratio c/w:     3.878 speedup
 SCF:
 * wall-time:     0 d,  0 h,  0 min,  1.827 sec
 *  cpu-time:     0 d,  0 h,  0 min,  7.126 sec
 * ratio c/w:     3.901 speedup

