      -----------------------------------------------------------      
     |                   =====================                   |     
     |                           x T B                           |     
     |                   =====================                   |     
     |                         S. Grimme                         |     
     |          Mulliken Center for Theoretical Chemistry        |     
     |                    University of Bonn                     |     
      -----------------------------------------------------------      

   * xtb version 6.6.1 (8d0f1dd) compiled by 'runner@Mac-1690902418499.local' on 2023-08-01

   xtb is free software: you can redistribute it and/or modify it under
   the terms of the GNU Lesser General Public License as published by
   the Free Software Foundation, either version 3 of the License, or
   (at your option) any later version.
   
   xtb is distributed in the hope that it will be useful,
   but WITHOUT ANY WARRANTY; without even the implied warranty of
   MERCHANTABILITY or FITNESS FOR A PARTICULAR PURPOSE.  See the
   GNU Lesser General Public License for more details.
   
   Cite this work as:
   * C. Bannwarth, E. Caldeweyher, S. Ehlert, A. Hansen, P. Pracht,
     J. Seibert, S. Spicher, S. Grimme, WIREs Comput. Mol. Sci., 2020, 11,
     e01493. DOI: 10.1002/wcms.1493
   
   for GFN2-xTB:
   * C. Bannwarth, S. Ehlert and S. Grimme., J. Chem. Theory Comput., 2019,
     15, 1652-1671. DOI: 10.1021/acs.jctc.8b01176
   for GFN1-xTB:
   * S. Grimme, C. Bannwarth, P. Shushkov, J. Chem. Theory Comput., 2017,
     13, 1989-2009. DOI: 10.1021/acs.jctc.7b00118
   for GFN0-xTB:
   * P. Pracht, E. Caldeweyher, S. Ehlert, S. Grimme, ChemRxiv, 2019, preprint.
     DOI: 10.26434/chemrxiv.8326202.v1
   for GFN-FF:
   * S. Spicher and S. Grimme, Angew. Chem. Int. Ed., 2020, 59, 15665-15673.
     DOI: 10.1002/anie.202004239
   
   for ALPB and GBSA implicit solvation:
   * S. Ehlert, M. Stahn, S. Spicher, S. Grimme, J. Chem. Theory Comput.,
     2021, 17, 4250-4261. DOI: 10.1021/acs.jctc.1c00471
   
   for DFT-D4:
   * E. Caldeweyher, C. Bannwarth and S. Grimme, J. Chem. Phys., 2017,
     147, 034112. DOI: 10.1063/1.4993215
   * E. Caldeweyher, S. Ehlert, A. Hansen, H. Neugebauer, S. Spicher,
     C. Bannwarth and S. Grimme, J. Chem. Phys., 2019, 150, 154122.
     DOI: 10.1063/1.5090222
   * E. Caldeweyher, J.-M. Mewes, S. Ehlert and S. Grimme, Phys. Chem. Chem. Phys.
     2020, 22, 8499-8512. DOI: 10.1039/D0CP00502A
   
   for sTDA-xTB:
   * S. Grimme and C. Bannwarth, J. Chem. Phys., 2016, 145, 054103.
     DOI: 10.1063/1.4959605
   
   in the mass-spec context:
   * V. Asgeirsson, C. Bauer and S. Grimme, Chem. Sci., 2017, 8, 4879.
     DOI: 10.1039/c7sc00601b
   * J. Koopman and S. Grimme, ACS Omega 2019, 4, 12, 15120-15133.
     DOI: 10.1021/acsomega.9b02011
   
   for metadynamics refer to:
   * S. Grimme, J. Chem. Theory Comput., 2019, 155, 2847-2862
     DOI: 10.1021/acs.jctc.9b00143
   
   for SPH calculations refer to:
   * S. Spicher and S. Grimme, J. Chem. Theory Comput., 2021, 17, 1701-1714
     DOI: 10.1021/acs.jctc.0c01306
   
   with help from (in alphabetical order)
   P. Atkinson, C. Bannwarth, F. Bohle, G. Brandenburg, E. Caldeweyher
   M. Checinski, S. Dohm, S. Ehlert, S. Ehrlich, I. Gerasimov, C. Hölzer
   A. Katbashev, J. Koopman, C. Lavigne, S. Lehtola, F. März, M. Müller,
   F. Musil, H. Neugebauer, J. Pisarek, C. Plett, P. Pracht, F. Pultar,
   J. Seibert, P. Shushkov, S. Spicher, M. Stahn, M. Steiner, T. Strunk,
   J. Stückrath, T. Rose, and J. Unsleber
   
 * started run on 2024/11/08 at 11:55:10.480     

           -------------------------------------------------
          |                Calculation Setup                |
           -------------------------------------------------

          program call               : xtb opt_radical_Base2SF5.mol --gfn2 --sp --chrg 1 --uhf 1
          coordinate file            : opt_radical_Base2SF5.mol
          omp threads                :                     8

   ID    Z sym.   atoms
    1    6 C      1-9, 11, 12, 14-21, 23-31, 33, 34, 36-43, 47, 48, 50, 51
    2    7 N      10, 13, 32, 35, 46, 49
    3    8 O      22, 44
    4    5 B      45
    5   16 S      52, 58, 64, 70, 76, 82
    6    9 F      53-57, 59-63, 65-69, 71-75, 77-81, 83-87
    7    1 H      88-109

           -------------------------------------------------
          |                 G F N 2 - x T B                 |
           -------------------------------------------------

        Reference                      10.1021/acs.jctc.8b01176
      * Hamiltonian:
        H0-scaling (s, p, d)           1.850000    2.230000    2.230000
        zeta-weighting                 0.500000
      * Dispersion:
        s8                             2.700000
        a1                             0.520000
        a2                             5.000000
        s9                             5.000000
      * Repulsion:
        kExp                           1.500000    1.000000
        rExp                           1.000000
      * Coulomb:
        alpha                          2.000000
        third order                    shell-resolved
        anisotropic                    true
        a3                             3.000000
        a5                             4.000000
        cn-shift                       1.200000
        cn-exp                         4.000000
        max-rad                        5.000000

q/qsh data taken from xtbrestart
CAMM data taken from xtbrestart

          ...................................................
          :                      SETUP                      :
          :.................................................:
          :  # basis functions                 406          :
          :  # atomic orbitals                 400          :
          :  # shells                          202          :
          :  # electrons                       480          :
          :  max. iterations                   250          :
          :  Hamiltonian                  GFN2-xTB          :
          :  restarted?                       true          :
          :  GBSA solvation                  false          :
          :  PC potential                    false          :
          :  electronic temp.          300.0000000     K    :
          :  accuracy                    1.0000000          :
          :  -> integral cutoff          0.2500000E+02      :
          :  -> integral neglect         0.1000000E-07      :
          :  -> SCF convergence          0.1000000E-05 Eh   :
          :  -> wf. convergence          0.1000000E-03 e    :
          :  Broyden damping             0.4000000          :
          ...................................................

 iter      E             dE          RMSdq      gap      omega  full diag
   1   -291.8212015 -0.291821E+03  0.433E-01    0.05       0.0  T
   2   -291.6749731  0.146228E+00  0.883E-01    0.06       1.0  T
   3   -291.7431258 -0.681527E-01  0.672E-01    0.10       1.0  T
   4   -291.8001525 -0.570267E-01  0.480E-01    0.04       1.0  T
   5   -291.8086140 -0.846156E-02  0.432E-01    0.10       1.0  T
   6   -291.8086008  0.132365E-04  0.378E-01    0.06       1.0  T
   7   -291.8110678 -0.246703E-02  0.336E-01    0.06       1.0  T
   8   -291.7622229  0.488450E-01  0.520E-01    0.03       1.0  T
   9   -291.8315716 -0.693487E-01  0.178E-01    0.02       1.0  T
  10   -291.8368433 -0.527170E-02  0.970E-02    0.04       1.0  T
  11   -291.8370623 -0.218958E-03  0.880E-02    0.03       1.0  T
  12   -291.8386531 -0.159082E-02  0.442E-02    0.04       1.0  T
  13   -291.8389182 -0.265171E-03  0.246E-02    0.03       1.0  T
  14   -291.8390283 -0.110086E-03  0.815E-03    0.03       1.2  T
  15   -291.8390394 -0.110395E-04  0.396E-03    0.03       2.4  T
  16   -291.8390420 -0.261145E-05  0.254E-03    0.03       3.8  T
  17   -291.8390434 -0.137686E-05  0.923E-04    0.03      10.4  T
  18   -291.8390428  0.591866E-06  0.166E-03    0.03       5.8  T
  19   -291.8390434 -0.679404E-06  0.432E-04    0.03      22.2  T
  20   -291.8390433  0.140810E-06  0.819E-04    0.03      11.7  T

   *** convergence criteria satisfied after 20 iterations ***

         #    Occupation            Energy/Eh            Energy/eV
      -------------------------------------------------------------
         1        2.0000           -0.9714825             -26.4354
       ...           ...                  ...                  ...
       234        2.0000           -0.5581159             -15.1871
       235        2.0000           -0.5528241             -15.0431
       236        2.0000           -0.5522318             -15.0270
       237        2.0000           -0.5394555             -14.6793
       238        1.9998           -0.5367129             -14.6047
       239        1.9996           -0.5361150             -14.5884
       240        1.2461           -0.5284919             -14.3810 (HOMO)
       241        0.6554           -0.5273317             -14.3494 (LUMO)
       242        0.0992           -0.5252086             -14.2917
       243                         -0.4644034             -12.6371
       244                         -0.4605158             -12.5313
       245                         -0.4270781             -11.6214
       ...                                ...                  ...
       400                          0.9603840              26.1334
      -------------------------------------------------------------
                  HL-Gap            0.0011602 Eh            0.0316 eV
             Fermi-level           -0.5280145 Eh          -14.3680 eV

 SCC (total)                   0 d,  0 h,  0 min,  2.836 sec
 SCC setup                      ...        0 min,  0.000 sec (  0.012%)
 Dispersion                     ...        0 min,  0.001 sec (  0.037%)
 classical contributions        ...        0 min,  0.000 sec (  0.009%)
 integral evaluation            ...        0 min,  0.008 sec (  0.293%)
 iterations                     ...        0 min,  2.769 sec ( 97.650%)
 molecular gradient             ...        0 min,  0.046 sec (  1.618%)
 printout                       ...        0 min,  0.011 sec (  0.381%)

         :::::::::::::::::::::::::::::::::::::::::::::::::::::
         ::                     SUMMARY                     ::
         :::::::::::::::::::::::::::::::::::::::::::::::::::::
         :: total energy            -289.679179968018 Eh    ::
         :: gradient norm              0.051257533243 Eh/a0 ::
         :: HOMO-LUMO gap              0.031570848227 eV    ::
         ::.................................................::
         :: SCC energy              -291.839043305364 Eh    ::
         :: -> isotropic ES            0.095667345824 Eh    ::
         :: -> anisotropic ES         -0.099201848824 Eh    ::
         :: -> anisotropic XC          0.003812067872 Eh    ::
         :: -> dispersion             -0.196737975812 Eh    ::
         :: repulsion energy           2.154794819619 Eh    ::
         :: add. restraining           0.000000000000 Eh    ::
         :: total charge               1.000012578439 e     ::
         :::::::::::::::::::::::::::::::::::::::::::::::::::::

           -------------------------------------------------
          |                Property Printout                |
           -------------------------------------------------

    * Orbital Energies and Occupations

         #    Occupation            Energy/Eh            Energy/eV
      -------------------------------------------------------------
         1        2.0000           -0.9714825             -26.4354
       ...           ...                  ...                  ...
       228        2.0000           -0.5827029             -15.8562
       229        2.0000           -0.5776029             -15.7174
       230        2.0000           -0.5739855             -15.6189
       231        2.0000           -0.5691623             -15.4877
       232        2.0000           -0.5647512             -15.3677
       233        2.0000           -0.5601150             -15.2415
       234        2.0000           -0.5581159             -15.1871
       235        2.0000           -0.5528241             -15.0431
       236        2.0000           -0.5522318             -15.0270
       237        2.0000           -0.5394555             -14.6793
       238        1.9998           -0.5367129             -14.6047
       239        1.9996           -0.5361150             -14.5884
       240        1.2461           -0.5284919             -14.3810 (HOMO)
       241        0.6554           -0.5273317             -14.3494 (LUMO)
       242        0.0992           -0.5252086             -14.2917
       243                         -0.4644034             -12.6371
       244                         -0.4605158             -12.5313
       245                         -0.4270781             -11.6214
       246                         -0.4253937             -11.5756
       247                         -0.4240598             -11.5393
       248                         -0.4222892             -11.4911
       249                         -0.4122670             -11.2184
       250                         -0.4078866             -11.0992
       251                         -0.4012223             -10.9178
       ...                                ...                  ...
       400                          0.9603840              26.1334
      -------------------------------------------------------------
                  HL-Gap            0.0011602 Eh            0.0316 eV
             Fermi-level           -0.5280145 Eh          -14.3680 eV

     #   Z          covCN         q      C6AA      α(0)
     1   6 C        2.958    -0.052    29.277     8.875
     2   6 C        2.854     0.176    24.228     8.068
     3   6 C        2.973    -0.021    28.533     8.762
     4   6 C        2.975     0.109    25.599     8.299
     5   6 C        2.946    -0.022    28.555     8.764
     6   6 C        2.961    -0.124    31.162     9.156
     7   6 C        2.969     0.048    26.916     8.510
     8   6 C        2.994    -0.010    28.259     8.720
     9   6 C        2.969     0.113    25.499     8.283
    10   7 N        1.859    -0.157    25.190     7.439
    11   6 C        2.965     0.002    27.972     8.675
    12   6 C        2.977     0.112    25.518     8.286
    13   7 N        1.868    -0.154    25.130     7.431
    14   6 C        2.965     0.113    25.514     8.285
    15   6 C        2.947    -0.004    28.116     8.697
    16   6 C        2.961    -0.115    30.911     9.119
    17   6 C        2.949    -0.003    28.103     8.695
    18   6 C        2.909     0.104    25.692     8.311
    19   6 C        2.967    -0.033    28.813     8.805
    20   6 C        2.959    -0.125    31.170     9.157
    21   6 C        2.957    -0.010    28.274     8.721
    22   8 O        1.641    -0.333    19.604     5.977
    23   6 C        2.950    -0.049    29.217     8.865
    24   6 C        2.856     0.177    24.202     8.063
    25   6 C        2.975    -0.019    28.470     8.752
    26   6 C        2.982     0.111    25.551     8.292
    27   6 C        2.953    -0.023    28.571     8.767
    28   6 C        2.962    -0.129    31.299     9.176
    29   6 C        2.967     0.054    26.775     8.488
    30   6 C        2.993    -0.007    28.190     8.709
    31   6 C        2.975     0.113    25.501     8.283
    32   7 N        1.863    -0.157    25.188     7.439
    33   6 C        2.963     0.001    28.007     8.681
    34   6 C        2.976     0.114    25.492     8.282
    35   7 N        1.878    -0.154    25.115     7.429
    36   6 C        2.967     0.114    25.487     8.281
    37   6 C        2.949    -0.001    28.063     8.689
    38   6 C        2.960    -0.115    30.912     9.119
    39   6 C        2.950    -0.001    28.061     8.688
    40   6 C        2.905     0.103    25.720     8.316
    41   6 C        2.976    -0.039    28.968     8.829
    42   6 C        2.959    -0.120    31.040     9.138
    43   6 C        2.965    -0.009    28.249     8.718
    44   8 O        1.640    -0.328    19.512     5.963
    45   5 B        3.267     0.461    14.925     6.443
    46   7 N        2.664    -0.163    24.520     7.354
    47   6 C        3.751    -0.132    23.096     6.854
    48   6 C        3.746    -0.020    20.994     6.536
    49   7 N        2.663    -0.179    24.878     7.408
    50   6 C        3.752    -0.135    23.166     6.864
    51   6 C        3.747    -0.018    20.956     6.530
    52  16 S        4.957     2.017    81.950    15.236
    53   9 F        0.786    -0.432    13.936     4.410
    54   9 F        0.787    -0.432    13.926     4.408
    55   9 F        0.789    -0.353    12.939     4.249
    56   9 F        0.786    -0.432    13.938     4.410
    57   9 F        0.786    -0.432    13.934     4.409
    58  16 S        4.958     2.105    80.173    15.070
    59   9 F        0.786    -0.491    14.720     4.532
    60   9 F        0.787    -0.426    13.850     4.396
    61   9 F        0.789    -0.371    13.158     4.285
    62   9 F        0.786    -0.445    14.096     4.435
    63   9 F        0.785    -0.472    14.466     4.493
    64  16 S        4.956     2.076    80.755    15.125
    65   9 F        0.787    -0.436    13.990     4.418
    66   9 F        0.787    -0.437    13.993     4.419
    67   9 F        0.789    -0.364    13.071     4.271
    68   9 F        0.786    -0.476    14.517     4.501
    69   9 F        0.786    -0.450    14.163     4.445
    70  16 S        4.955     2.071    80.846    15.133
    71   9 F        0.787    -0.441    14.052     4.428
    72   9 F        0.786    -0.454    14.222     4.455
    73   9 F        0.789    -0.364    13.072     4.271
    74   9 F        0.786    -0.441    14.048     4.427
    75   9 F        0.786    -0.440    14.033     4.425
    76  16 S        4.958     2.017    81.950    15.236
    77   9 F        0.786    -0.435    13.970     4.415
    78   9 F        0.787    -0.431    13.923     4.408
    79   9 F        0.789    -0.353    12.946     4.250
    80   9 F        0.786    -0.434    13.961     4.414
    81   9 F        0.787    -0.431    13.921     4.407
    82  16 S        4.958     2.100    80.264    15.079
    83   9 F        0.786    -0.442    14.061     4.429
    84   9 F        0.789    -0.371    13.157     4.285
    85   9 F        0.785    -0.500    14.843     4.551
    86   9 F        0.787    -0.433    13.945     4.411
    87   9 F        0.786    -0.455    14.234     4.457
    88   1 H        0.925     0.088     1.899     2.155
    89   1 H        0.925     0.067     2.123     2.279
    90   1 H        0.925     0.065     2.142     2.288
    91   1 H        0.924     0.073     2.050     2.239
    92   1 H        0.924     0.085     1.930     2.173
    93   1 H        0.925     0.083     1.950     2.184
    94   1 H        0.924     0.051     2.303     2.373
    95   1 H        0.925     0.062     2.173     2.305
    96   1 H        0.925     0.082     1.958     2.188
    97   1 H        0.925     0.072     2.062     2.246
    98   1 H        0.926     0.148     1.407     1.855
    99   1 H        0.926     0.152     1.381     1.838
   100   1 H        0.926     0.152     1.378     1.836
   101   1 H        0.926     0.149     1.401     1.851
   102   1 H        0.926     0.150     1.393     1.846
   103   1 H        0.926     0.151     1.384     1.840
   104   1 H        0.926     0.151     1.382     1.838
   105   1 H        0.926     0.151     1.385     1.840
   106   1 H        0.926     0.129     1.542     1.942
   107   1 H        0.926     0.123     1.586     1.970
   108   1 H        0.926     0.113     1.673     2.023
   109   1 H        0.926     0.126     1.564     1.956

 Mol. C6AA /au·bohr⁶  :     204980.862421
 Mol. C8AA /au·bohr⁸  :    5321200.823204
 Mol. α(0) /au        :        686.046516


Wiberg/Mayer (AO) data.
largest (>0.10) Wiberg bond orders for each atom

 ---------------------------------------------------------------------------
     #   Z sym  total        # sym  WBO       # sym  WBO       # sym  WBO
 ---------------------------------------------------------------------------
     1   6 C    3.878 --     6 C    1.371     2 C    1.351   107 H    0.947
     2   6 C    3.937 --     1 C    1.351     3 C    1.246    22 O    1.137
     3   6 C    3.951 --     2 C    1.246     7 C    1.222     4 C    1.195
     4   6 C    3.972 --    10 N    1.367     5 C    1.212     3 C    1.195
     5   6 C    3.885 --     6 C    1.531     4 C    1.212   101 H    0.942
     6   6 C    3.943 --     5 C    1.531     1 C    1.371    82 S    0.513
     7   6 C    3.979 --     8 C    1.317     3 C    1.222    11 C    1.195
     8   6 C    3.971 --     7 C    1.317    14 C    1.191     9 C    1.187
     9   6 C    3.974 --    10 N    1.372    17 C    1.226     8 C    1.187
    10   7 N    2.966 --     9 C    1.372     4 C    1.367
    11   6 C    3.922 --    18 C    1.261     7 C    1.195    12 C    1.186
    12   6 C    3.970 --    13 N    1.387    21 C    1.197    11 C    1.186
    13   7 N    3.007 --    12 C    1.387    14 C    1.354
    14   6 C    3.975 --    13 N    1.354    15 C    1.237     8 C    1.191
    15   6 C    3.796 --    16 C    1.449    14 C    1.237   102 H    0.942
    16   6 C    3.952 --    17 C    1.461    15 C    1.449    76 S    0.531
    17   6 C    3.793 --    16 C    1.461     9 C    1.226   103 H    0.941
    18   6 C    3.956 --    19 C    1.343    11 C    1.261    46 N    1.152
    19   6 C    3.840 --    20 C    1.380    18 C    1.343   106 H    0.933
    20   6 C    3.949 --    21 C    1.523    19 C    1.380    70 S    0.525
    21   6 C    3.853 --    20 C    1.523    12 C    1.197   104 H    0.940
    22   8 O    2.210 --     2 C    1.137    45 B    0.823
    23   6 C    3.875 --    28 C    1.365    24 C    1.331   109 H    0.943
    24   6 C    3.939 --    23 C    1.331    25 C    1.267    44 O    1.137
    25   6 C    3.957 --    24 C    1.267    29 C    1.197    26 C    1.195
    26   6 C    3.971 --    32 N    1.381    27 C    1.199    25 C    1.195
    27   6 C    3.887 --    28 C    1.539    26 C    1.199    98 H    0.942
    28   6 C    3.947 --    27 C    1.539    23 C    1.365    64 S    0.523
    29   6 C    3.979 --    30 C    1.312    33 C    1.221    25 C    1.197
    30   6 C    3.972 --    29 C    1.312    36 C    1.197    31 C    1.195
    31   6 C    3.974 --    32 N    1.351    39 C    1.238    30 C    1.195
    32   7 N    2.961 --    26 C    1.381    31 C    1.351
    33   6 C    3.943 --    40 C    1.243    29 C    1.221    34 C    1.197
    34   6 C    3.970 --    35 N    1.372    43 C    1.201    33 C    1.197
    35   7 N    2.993 --    34 C    1.372    36 C    1.363
    36   6 C    3.975 --    35 N    1.363    37 C    1.226    30 C    1.197
    37   6 C    3.802 --    38 C    1.463    36 C    1.226   100 H    0.941
    38   6 C    3.953 --    37 C    1.463    39 C    1.450    52 S    0.532
    39   6 C    3.798 --    38 C    1.450    31 C    1.238    99 H    0.941
    40   6 C    3.953 --    41 C    1.316    33 C    1.243    49 N    1.196
    41   6 C    3.829 --    42 C    1.392    40 C    1.316   108 H    0.936
    42   6 C    3.944 --    43 C    1.514    41 C    1.392    58 S    0.505
    43   6 C    3.848 --    42 C    1.514    34 C    1.201   105 H    0.941
    44   8 O    2.218 --    24 C    1.137    45 B    0.824
    45   5 B    3.419 --    44 O    0.824    22 O    0.823    46 N    0.808
                            49 N    0.808
    46   7 N    3.236 --    18 C    1.152    48 C    1.007    45 B    0.808
    47   6 C    3.959 --    48 C    0.996    89 H    0.981    88 H    0.977
                            90 H    0.977
    48   6 C    3.932 --    46 N    1.007    47 C    0.996    91 H    0.961
                            92 H    0.900
    49   7 N    3.240 --    40 C    1.196    51 C    0.993    45 B    0.808
    50   6 C    3.970 --    51 C    1.008    95 H    0.983    96 H    0.977
                            97 H    0.976
    51   6 C    3.943 --    50 C    1.008    49 N    0.993    93 H    0.946
                            94 H    0.932
    52  16 S    4.081 --    55 F    0.745    54 F    0.694    53 F    0.694
                            57 F    0.694    56 F    0.693    38 C    0.532
    53   9 F    0.914 --    52 S    0.694
    54   9 F    0.915 --    52 S    0.694
    55   9 F    1.000 --    52 S    0.745
    56   9 F    0.914 --    52 S    0.693
    57   9 F    0.914 --    52 S    0.694
    58  16 S    3.928 --    61 F    0.725    60 F    0.700    62 F    0.680
                            63 F    0.648    59 F    0.637    42 C    0.505
    59   9 F    0.838 --    58 S    0.637
    60   9 F    0.925 --    58 S    0.700
    61   9 F    0.976 --    58 S    0.725
    62   9 F    0.896 --    58 S    0.680
    63   9 F    0.858 --    58 S    0.648
    64  16 S    3.997 --    67 F    0.736    66 F    0.692    65 F    0.691
                            69 F    0.675    68 F    0.650    28 C    0.523
    65   9 F    0.909 --    64 S    0.691
    66   9 F    0.911 --    64 S    0.692
    67   9 F    0.987 --    64 S    0.736
    68   9 F    0.858 --    64 S    0.650
    69   9 F    0.891 --    64 S    0.675
    70  16 S    4.012 --    73 F    0.734    75 F    0.684    71 F    0.684
                            74 F    0.682    72 F    0.673    20 C    0.525
    71   9 F    0.904 --    70 S    0.684
    72   9 F    0.885 --    70 S    0.673
    73   9 F    0.987 --    70 S    0.734
    74   9 F    0.902 --    70 S    0.682
    75   9 F    0.902 --    70 S    0.684
    76  16 S    4.078 --    79 F    0.745    81 F    0.695    78 F    0.695
                            80 F    0.692    77 F    0.691    16 C    0.531
    77   9 F    0.911 --    76 S    0.691
    78   9 F    0.916 --    76 S    0.695
    79   9 F    1.000 --    76 S    0.745
    80   9 F    0.911 --    76 S    0.692
    81   9 F    0.916 --    76 S    0.695
    82  16 S    3.946 --    84 F    0.727    86 F    0.694    83 F    0.685
                            87 F    0.669    85 F    0.628     6 C    0.513
    83   9 F    0.902 --    82 S    0.685
    84   9 F    0.977 --    82 S    0.727
    85   9 F    0.827 --    82 S    0.628
    86   9 F    0.916 --    82 S    0.694
    87   9 F    0.883 --    82 S    0.669
    88   1 H    0.991 --    47 C    0.977
    89   1 H    0.995 --    47 C    0.981
    90   1 H    0.991 --    47 C    0.977
    91   1 H    0.992 --    48 C    0.961
    92   1 H    0.958 --    48 C    0.900
    93   1 H    0.989 --    51 C    0.946
    94   1 H    0.973 --    51 C    0.932
    95   1 H    0.995 --    50 C    0.983
    96   1 H    0.991 --    50 C    0.977
    97   1 H    0.992 --    50 C    0.976
    98   1 H    0.978 --    27 C    0.942
    99   1 H    0.976 --    39 C    0.941
   100   1 H    0.976 --    37 C    0.941
   101   1 H    0.977 --     5 C    0.942
   102   1 H    0.977 --    15 C    0.942
   103   1 H    0.976 --    17 C    0.941
   104   1 H    0.976 --    21 C    0.940
   105   1 H    0.976 --    43 C    0.941
   106   1 H    0.982 --    19 C    0.933
   107   1 H    0.984 --     1 C    0.947
   108   1 H    0.986 --    41 C    0.936
   109   1 H    0.983 --    23 C    0.943
 ---------------------------------------------------------------------------

Topologies differ in bond orders
Writing corrected topology to xtbtopo.mol

molecular dipole:
                 x           y           z       tot (Debye)
 q only:        0.224      -1.080      -2.245
   full:        0.145      -1.058      -1.716       5.137
molecular quadrupole (traceless):
                xx          xy          yy          xz          yz          zz
 q only:       10.051     -53.289     -34.340      20.131       5.120      24.289
  q+dip:       11.225     -44.164     -23.356      15.530       3.879      12.130
   full:        4.973     -44.876     -31.152      13.979       4.957      26.180


           -------------------------------------------------
          | TOTAL ENERGY             -289.679179968018 Eh   |
          | GRADIENT NORM               0.051257533243 Eh/α |
          | HOMO-LUMO GAP               0.031570848227 eV   |
           -------------------------------------------------
########################################################################
[WARNING] Runtime exception occurred
-1- restart_readRestart: Number of electron missmatch in restart file.
########################################################################

------------------------------------------------------------------------
 * finished run on 2024/11/08 at 11:55:13.335     
Note: The following floating-point exceptions are signalling: IEEE_UNDERFLOW_FLAG
normal termination of xtb
------------------------------------------------------------------------
 total:
 * wall-time:     0 d,  0 h,  0 min,  2.854 sec
 *  cpu-time:     0 d,  0 h,  0 min, 11.129 sec
 * ratio c/w:     3.900 speedup
 SCF:
 * wall-time:     0 d,  0 h,  0 min,  2.836 sec
 *  cpu-time:     0 d,  0 h,  0 min, 11.091 sec
 * ratio c/w:     3.910 speedup

