      -----------------------------------------------------------      
     |                   =====================                   |     
     |                           x T B                           |     
     |                   =====================                   |     
     |                         S. Grimme                         |     
     |          Mulliken Center for Theoretical Chemistry        |     
     |                    University of Bonn                     |     
      -----------------------------------------------------------      

   * xtb version 6.6.1 (8d0f1dd) compiled by 'runner@Mac-1690902418499.local' on 2023-08-01

   xtb is free software: you can redistribute it and/or modify it under
   the terms of the GNU Lesser General Public License as published by
   the Free Software Foundation, either version 3 of the License, or
   (at your option) any later version.
   
   xtb is distributed in the hope that it will be useful,
   but WITHOUT ANY WARRANTY; without even the implied warranty of
   MERCHANTABILITY or FITNESS FOR A PARTICULAR PURPOSE.  See the
   GNU Lesser General Public License for more details.
   
   Cite this work as:
   * C. Bannwarth, E. Caldeweyher, S. Ehlert, A. Hansen, P. Pracht,
     J. Seibert, S. Spicher, S. Grimme, WIREs Comput. Mol. Sci., 2020, 11,
     e01493. DOI: 10.1002/wcms.1493
   
   for GFN2-xTB:
   * C. Bannwarth, S. Ehlert and S. Grimme., J. Chem. Theory Comput., 2019,
     15, 1652-1671. DOI: 10.1021/acs.jctc.8b01176
   for GFN1-xTB:
   * S. Grimme, C. Bannwarth, P. Shushkov, J. Chem. Theory Comput., 2017,
     13, 1989-2009. DOI: 10.1021/acs.jctc.7b00118
   for GFN0-xTB:
   * P. Pracht, E. Caldeweyher, S. Ehlert, S. Grimme, ChemRxiv, 2019, preprint.
     DOI: 10.26434/chemrxiv.8326202.v1
   for GFN-FF:
   * S. Spicher and S. Grimme, Angew. Chem. Int. Ed., 2020, 59, 15665-15673.
     DOI: 10.1002/anie.202004239
   
   for ALPB and GBSA implicit solvation:
   * S. Ehlert, M. Stahn, S. Spicher, S. Grimme, J. Chem. Theory Comput.,
     2021, 17, 4250-4261. DOI: 10.1021/acs.jctc.1c00471
   
   for DFT-D4:
   * E. Caldeweyher, C. Bannwarth and S. Grimme, J. Chem. Phys., 2017,
     147, 034112. DOI: 10.1063/1.4993215
   * E. Caldeweyher, S. Ehlert, A. Hansen, H. Neugebauer, S. Spicher,
     C. Bannwarth and S. Grimme, J. Chem. Phys., 2019, 150, 154122.
     DOI: 10.1063/1.5090222
   * E. Caldeweyher, J.-M. Mewes, S. Ehlert and S. Grimme, Phys. Chem. Chem. Phys.
     2020, 22, 8499-8512. DOI: 10.1039/D0CP00502A
   
   for sTDA-xTB:
   * S. Grimme and C. Bannwarth, J. Chem. Phys., 2016, 145, 054103.
     DOI: 10.1063/1.4959605
   
   in the mass-spec context:
   * V. Asgeirsson, C. Bauer and S. Grimme, Chem. Sci., 2017, 8, 4879.
     DOI: 10.1039/c7sc00601b
   * J. Koopman and S. Grimme, ACS Omega 2019, 4, 12, 15120-15133.
     DOI: 10.1021/acsomega.9b02011
   
   for metadynamics refer to:
   * S. Grimme, J. Chem. Theory Comput., 2019, 155, 2847-2862
     DOI: 10.1021/acs.jctc.9b00143
   
   for SPH calculations refer to:
   * S. Spicher and S. Grimme, J. Chem. Theory Comput., 2021, 17, 1701-1714
     DOI: 10.1021/acs.jctc.0c01306
   
   with help from (in alphabetical order)
   P. Atkinson, C. Bannwarth, F. Bohle, G. Brandenburg, E. Caldeweyher
   M. Checinski, S. Dohm, S. Ehlert, S. Ehrlich, I. Gerasimov, C. Hölzer
   A. Katbashev, J. Koopman, C. Lavigne, S. Lehtola, F. März, M. Müller,
   F. Musil, H. Neugebauer, J. Pisarek, C. Plett, P. Pracht, F. Pultar,
   J. Seibert, P. Shushkov, S. Spicher, M. Stahn, M. Steiner, T. Strunk,
   J. Stückrath, T. Rose, and J. Unsleber
   
 * started run on 2024/11/08 at 11:54:59.255     

           -------------------------------------------------
          |                Calculation Setup                |
           -------------------------------------------------

          program call               : xtb opt_anion_Base2SF5.mol --gfn2 --sp --chrg 0 --uhf 0
          coordinate file            : opt_anion_Base2SF5.mol
          omp threads                :                     8

   ID    Z sym.   atoms
    1    6 C      1-9, 11, 12, 14-21, 23-31, 33, 34, 36-43, 47, 48, 50, 51
    2    7 N      10, 13, 32, 35, 46, 49
    3    8 O      22, 44
    4    5 B      45
    5   16 S      52, 58, 64, 70, 76, 82
    6    9 F      53-57, 59-63, 65-69, 71-75, 77-81, 83-87
    7    1 H      88-109
########################################################################
[WARNING] Please study the warnings concerning your input carefully
-1- prog_main: Charge in sdf/mol input was overwritten
########################################################################

           -------------------------------------------------
          |                 G F N 2 - x T B                 |
           -------------------------------------------------

        Reference                      10.1021/acs.jctc.8b01176
      * Hamiltonian:
        H0-scaling (s, p, d)           1.850000    2.230000    2.230000
        zeta-weighting                 0.500000
      * Dispersion:
        s8                             2.700000
        a1                             0.520000
        a2                             5.000000
        s9                             5.000000
      * Repulsion:
        kExp                           1.500000    1.000000
        rExp                           1.000000
      * Coulomb:
        alpha                          2.000000
        third order                    shell-resolved
        anisotropic                    true
        a3                             3.000000
        a5                             4.000000
        cn-shift                       1.200000
        cn-exp                         4.000000
        max-rad                        5.000000

q/qsh data taken from xtbrestart
CAMM data taken from xtbrestart

          ...................................................
          :                      SETUP                      :
          :.................................................:
          :  # basis functions                 406          :
          :  # atomic orbitals                 400          :
          :  # shells                          202          :
          :  # electrons                       481          :
          :  max. iterations                   250          :
          :  Hamiltonian                  GFN2-xTB          :
          :  restarted?                       true          :
          :  GBSA solvation                  false          :
          :  PC potential                    false          :
          :  electronic temp.          300.0000000     K    :
          :  accuracy                    1.0000000          :
          :  -> integral cutoff          0.2500000E+02      :
          :  -> integral neglect         0.1000000E-07      :
          :  -> SCF convergence          0.1000000E-05 Eh   :
          :  -> wf. convergence          0.1000000E-03 e    :
          :  Broyden damping             0.4000000          :
          ...................................................

 iter      E             dE          RMSdq      gap      omega  full diag
   1   -292.3020701 -0.292302E+03  0.289E-01    0.04       0.0  T
   2   -292.2688031  0.332670E-01  0.519E-01    0.05       1.0  T
   3   -292.2914322 -0.226291E-01  0.340E-01    0.07       1.0  T
   4   -292.1182515  0.173181E+00  0.812E-01    0.24       1.0  T
   5   -292.2743586 -0.156107E+00  0.464E-01    0.06       1.0  T
   6   -292.2967247 -0.223661E-01  0.310E-01    0.07       1.0  T
   7   -292.3080795 -0.113548E-01  0.188E-01    0.05       1.0  T
   8   -292.3089613 -0.881817E-03  0.159E-01    0.06       1.0  T
   9   -292.3110094 -0.204811E-02  0.123E-01    0.06       1.0  T
  10   -292.3134753 -0.246590E-02  0.777E-02    0.05       1.0  T
  11   -292.3147394 -0.126407E-02  0.219E-02    0.05       1.0  T
  12   -292.3148289 -0.894934E-04  0.102E-02    0.05       1.0  T
  13   -292.3148435 -0.146074E-04  0.397E-03    0.05       2.4  T
  14   -292.3148178  0.256831E-04  0.110E-02    0.05       1.0  T
  15   -292.3148442 -0.264038E-04  0.301E-03    0.05       3.2  T
  16   -292.3148457 -0.146926E-05  0.178E-03    0.05       5.4  T
  17   -292.3148457 -0.281340E-07  0.172E-03    0.05       5.6  T
  18   -292.3148463 -0.582922E-06  0.574E-04    0.05      16.7  T
  19   -292.3148462  0.432014E-07  0.712E-04    0.05      13.4  T

   *** convergence criteria satisfied after 19 iterations ***

         #    Occupation            Energy/Eh            Energy/eV
      -------------------------------------------------------------
         1        2.0000           -0.8934288             -24.3114
       ...           ...                  ...                  ...
       235        2.0000           -0.4642234             -12.6322
       236        2.0000           -0.4634314             -12.6106
       237        2.0000           -0.4486923             -12.2095
       238        1.9999           -0.4474400             -12.1755
       239        1.9999           -0.4469827             -12.1630
       240        1.4798           -0.4384196             -11.9300
       241        1.1166           -0.4375020             -11.9050 (HOMO)
       242        0.4037           -0.4356840             -11.8556 (LUMO)
       243                         -0.3752743             -10.2117
       244                         -0.3714935             -10.1089
       245                         -0.3384390              -9.2094
       246                         -0.3374123              -9.1815
       ...                                ...                  ...
       400                          0.9999755              27.2107
      -------------------------------------------------------------
                  HL-Gap            0.0018180 Eh            0.0495 eV
             Fermi-level           -0.4372288 Eh          -11.8976 eV

 SCC (total)                   0 d,  0 h,  0 min,  1.975 sec
 SCC setup                      ...        0 min,  0.000 sec (  0.018%)
 Dispersion                     ...        0 min,  0.001 sec (  0.054%)
 classical contributions        ...        0 min,  0.000 sec (  0.012%)
 integral evaluation            ...        0 min,  0.008 sec (  0.416%)
 iterations                     ...        0 min,  1.893 sec ( 95.843%)
 molecular gradient             ...        0 min,  0.056 sec (  2.839%)
 printout                       ...        0 min,  0.016 sec (  0.818%)

         :::::::::::::::::::::::::::::::::::::::::::::::::::::
         ::                     SUMMARY                     ::
         :::::::::::::::::::::::::::::::::::::::::::::::::::::
         :: total energy            -290.154840712685 Eh    ::
         :: gradient norm              0.050295457781 Eh/a0 ::
         :: HOMO-LUMO gap              0.049471371476 eV    ::
         ::.................................................::
         :: SCC energy              -292.314846226556 Eh    ::
         :: -> isotropic ES            0.048526163418 Eh    ::
         :: -> anisotropic ES         -0.096497878510 Eh    ::
         :: -> anisotropic XC          0.002466463605 Eh    ::
         :: -> dispersion             -0.198447444825 Eh    ::
         :: repulsion energy           2.154905922737 Eh    ::
         :: add. restraining           0.000000000000 Eh    ::
         :: total charge               0.000055921432 e     ::
         :::::::::::::::::::::::::::::::::::::::::::::::::::::

           -------------------------------------------------
          |                Property Printout                |
           -------------------------------------------------

    * Orbital Energies and Occupations

         #    Occupation            Energy/Eh            Energy/eV
      -------------------------------------------------------------
         1        2.0000           -0.8934288             -24.3114
       ...           ...                  ...                  ...
       229        2.0000           -0.4947150             -13.4619
       230        2.0000           -0.4914612             -13.3733
       231        2.0000           -0.4837737             -13.1642
       232        2.0000           -0.4767034             -12.9718
       233        2.0000           -0.4711895             -12.8217
       234        2.0000           -0.4691567             -12.7664
       235        2.0000           -0.4642234             -12.6322
       236        2.0000           -0.4634314             -12.6106
       237        2.0000           -0.4486923             -12.2095
       238        1.9999           -0.4474400             -12.1755
       239        1.9999           -0.4469827             -12.1630
       240        1.4798           -0.4384196             -11.9300
       241        1.1166           -0.4375020             -11.9050 (HOMO)
       242        0.4037           -0.4356840             -11.8556 (LUMO)
       243                         -0.3752743             -10.2117
       244                         -0.3714935             -10.1089
       245                         -0.3384390              -9.2094
       246                         -0.3374123              -9.1815
       247                         -0.3362743              -9.1505
       248                         -0.3346977              -9.1076
       249                         -0.3293942              -8.9633
       250                         -0.3252211              -8.8497
       251                         -0.3244779              -8.8295
       252                         -0.3233616              -8.7991
       ...                                ...                  ...
       400                          0.9999755              27.2107
      -------------------------------------------------------------
                  HL-Gap            0.0018180 Eh            0.0495 eV
             Fermi-level           -0.4372288 Eh          -11.8976 eV

     #   Z          covCN         q      C6AA      α(0)
     1   6 C        2.957    -0.060    29.501     8.909
     2   6 C        2.856     0.175    24.241     8.070
     3   6 C        2.973    -0.027    28.662     8.782
     4   6 C        2.977     0.106    25.650     8.308
     5   6 C        2.948    -0.032    28.796     8.801
     6   6 C        2.964    -0.124    31.148     9.154
     7   6 C        2.970     0.046    26.973     8.519
     8   6 C        2.993    -0.014    28.360     8.736
     9   6 C        2.972     0.110    25.561     8.293
    10   7 N        1.859    -0.185    25.818     7.531
    11   6 C        2.965    -0.005    28.141     8.701
    12   6 C        2.979     0.109    25.584     8.297
    13   7 N        1.867    -0.182    25.766     7.524
    14   6 C        2.967     0.110    25.578     8.296
    15   6 C        2.950    -0.024    28.593     8.770
    16   6 C        2.965    -0.114    30.894     9.117
    17   6 C        2.952    -0.023    28.569     8.767
    18   6 C        2.910     0.104    25.693     8.312
    19   6 C        2.966    -0.043    29.069     8.844
    20   6 C        2.962    -0.124    31.148     9.154
    21   6 C        2.959    -0.023    28.578     8.768
    22   8 O        1.640    -0.343    19.785     6.004
    23   6 C        2.950    -0.060    29.484     8.906
    24   6 C        2.859     0.176    24.228     8.068
    25   6 C        2.975    -0.024    28.602     8.773
    26   6 C        2.985     0.108    25.617     8.302
    27   6 C        2.956    -0.034    28.850     8.810
    28   6 C        2.965    -0.128    31.274     9.173
    29   6 C        2.968     0.051    26.842     8.498
    30   6 C        2.993    -0.012    28.303     8.727
    31   6 C        2.978     0.110    25.561     8.293
    32   7 N        1.862    -0.186    25.852     7.536
    33   6 C        2.963    -0.005    28.156     8.704
    34   6 C        2.979     0.111    25.549     8.291
    35   7 N        1.878    -0.180    25.718     7.518
    36   6 C        2.969     0.111    25.551     8.291
    37   6 C        2.952    -0.021    28.529     8.761
    38   6 C        2.965    -0.114    30.896     9.117
    39   6 C        2.952    -0.021    28.531     8.761
    40   6 C        2.906     0.102    25.732     8.318
    41   6 C        2.975    -0.050    29.226     8.868
    42   6 C        2.962    -0.119    31.010     9.134
    43   6 C        2.966    -0.021    28.531     8.761
    44   8 O        1.639    -0.338    19.696     5.991
    45   5 B        3.268     0.464    14.893     6.436
    46   7 N        2.664    -0.178    24.858     7.405
    47   6 C        3.751    -0.128    23.013     6.841
    48   6 C        3.746    -0.017    20.938     6.527
    49   7 N        2.662    -0.191    25.147     7.448
    50   6 C        3.752    -0.131    23.085     6.852
    51   6 C        3.747    -0.015    20.906     6.522
    52  16 S        4.962     2.006    82.161    15.256
    53   9 F        0.786    -0.444    14.095     4.435
    54   9 F        0.786    -0.444    14.088     4.434
    55   9 F        0.788    -0.372    13.168     4.286
    56   9 F        0.786    -0.445    14.102     4.436
    57   9 F        0.786    -0.444    14.094     4.435
    58  16 S        4.960     2.095    80.374    15.089
    59   9 F        0.785    -0.492    14.744     4.536
    60   9 F        0.787    -0.437    14.000     4.420
    61   9 F        0.788    -0.386    13.349     4.316
    62   9 F        0.786    -0.458    14.278     4.463
    63   9 F        0.785    -0.480    14.571     4.509
    64  16 S        4.959     2.065    80.972    15.145
    65   9 F        0.786    -0.451    14.177     4.448
    66   9 F        0.787    -0.445    14.106     4.437
    67   9 F        0.788    -0.378    13.244     4.299
    68   9 F        0.786    -0.475    14.502     4.498
    69   9 F        0.786    -0.460    14.303     4.467
    70  16 S        4.957     2.059    81.094    15.156
    71   9 F        0.786    -0.448    14.145     4.443
    72   9 F        0.786    -0.456    14.251     4.459
    73   9 F        0.788    -0.379    13.256     4.301
    74   9 F        0.786    -0.453    14.215     4.454
    75   9 F        0.786    -0.453    14.212     4.453
    76  16 S        4.963     2.006    82.158    15.255
    77   9 F        0.786    -0.447    14.127     4.440
    78   9 F        0.786    -0.444    14.092     4.434
    79   9 F        0.788    -0.372    13.176     4.288
    80   9 F        0.786    -0.446    14.117     4.438
    81   9 F        0.786    -0.444    14.086     4.433
    82  16 S        4.959     2.092    80.431    15.094
    83   9 F        0.786    -0.456    14.246     4.458
    84   9 F        0.788    -0.386    13.342     4.315
    85   9 F        0.785    -0.499    14.836     4.550
    86   9 F        0.787    -0.441    14.054     4.428
    87   9 F        0.786    -0.464    14.356     4.476
    88   1 H        0.925     0.077     2.014     2.219
    89   1 H        0.925     0.060     2.198     2.319
    90   1 H        0.925     0.058     2.228     2.334
    91   1 H        0.924     0.067     2.124     2.279
    92   1 H        0.924     0.072     2.065     2.247
    93   1 H        0.925     0.078     2.001     2.212
    94   1 H        0.924     0.043     2.407     2.426
    95   1 H        0.925     0.057     2.238     2.339
    96   1 H        0.925     0.071     2.070     2.250
    97   1 H        0.925     0.067     2.121     2.278
    98   1 H        0.926     0.134     1.506     1.919
    99   1 H        0.926     0.134     1.506     1.919
   100   1 H        0.926     0.135     1.500     1.915
   101   1 H        0.926     0.136     1.488     1.908
   102   1 H        0.926     0.132     1.519     1.928
   103   1 H        0.926     0.134     1.506     1.919
   104   1 H        0.926     0.137     1.482     1.903
   105   1 H        0.926     0.137     1.480     1.903
   106   1 H        0.926     0.119     1.620     1.990
   107   1 H        0.926     0.115     1.657     2.013
   108   1 H        0.926     0.104     1.748     2.068
   109   1 H        0.926     0.116     1.648     2.008

 Mol. C6AA /au·bohr⁶  :     207007.377022
 Mol. C8AA /au·bohr⁸  :    5365951.205812
 Mol. α(0) /au        :        689.365071


Wiberg/Mayer (AO) data.
largest (>0.10) Wiberg bond orders for each atom

 ---------------------------------------------------------------------------
     #   Z sym  total        # sym  WBO       # sym  WBO       # sym  WBO
 ---------------------------------------------------------------------------
     1   6 C    3.896 --     6 C    1.370     2 C    1.359   107 H    0.949
     2   6 C    3.942 --     1 C    1.359     3 C    1.242    22 O    1.136
     3   6 C    3.948 --     2 C    1.242     7 C    1.220     4 C    1.204
     4   6 C    3.972 --    10 N    1.353     5 C    1.216     3 C    1.204
     5   6 C    3.901 --     6 C    1.533     4 C    1.216   101 H    0.945
     6   6 C    3.932 --     5 C    1.533     1 C    1.370    82 S    0.496
     7   6 C    3.979 --     8 C    1.319     3 C    1.220    11 C    1.194
     8   6 C    3.973 --     7 C    1.319    14 C    1.191     9 C    1.187
     9   6 C    3.974 --    10 N    1.368    17 C    1.227     8 C    1.187
    10   7 N    2.950 --     9 C    1.368     4 C    1.353
    11   6 C    3.925 --    18 C    1.259    12 C    1.195     7 C    1.194
    12   6 C    3.970 --    13 N    1.372    21 C    1.203    11 C    1.195
    13   7 N    2.976 --    12 C    1.372    14 C    1.349
    14   6 C    3.975 --    13 N    1.349    15 C    1.241     8 C    1.191
    15   6 C    3.794 --    16 C    1.447    14 C    1.241   102 H    0.946
    16   6 C    3.938 --    17 C    1.462    15 C    1.447    76 S    0.509
    17   6 C    3.794 --    16 C    1.462     9 C    1.227   103 H    0.945
    18   6 C    3.958 --    19 C    1.347    11 C    1.259    46 N    1.150
    19   6 C    3.850 --    20 C    1.382    18 C    1.347   106 H    0.935
    20   6 C    3.940 --    21 C    1.521    19 C    1.382    70 S    0.508
    21   6 C    3.861 --    20 C    1.521    12 C    1.203   104 H    0.944
    22   8 O    2.201 --     2 C    1.136    45 B    0.813
    23   6 C    3.887 --    28 C    1.369    24 C    1.341   109 H    0.945
    24   6 C    3.944 --    23 C    1.341    25 C    1.262    44 O    1.134
    25   6 C    3.948 --    24 C    1.262    26 C    1.206    29 C    1.195
    26   6 C    3.971 --    32 N    1.361    27 C    1.208    25 C    1.206
    27   6 C    3.896 --    28 C    1.533    26 C    1.208    98 H    0.945
    28   6 C    3.936 --    27 C    1.533    23 C    1.369    64 S    0.507
    29   6 C    3.979 --    30 C    1.314    33 C    1.221    25 C    1.195
    30   6 C    3.975 --    29 C    1.314    36 C    1.196    31 C    1.194
    31   6 C    3.975 --    32 N    1.349    39 C    1.239    30 C    1.194
    32   7 N    2.932 --    26 C    1.361    31 C    1.349
    33   6 C    3.938 --    40 C    1.239    29 C    1.221    34 C    1.204
    34   6 C    3.969 --    35 N    1.359    43 C    1.206    33 C    1.204
    35   7 N    2.964 --    34 C    1.359    36 C    1.359
    36   6 C    3.975 --    35 N    1.359    37 C    1.229    30 C    1.196
    37   6 C    3.796 --    38 C    1.461    36 C    1.229   100 H    0.946
    38   6 C    3.939 --    37 C    1.461    39 C    1.451    52 S    0.510
    39   6 C    3.793 --    38 C    1.451    31 C    1.239    99 H    0.946
    40   6 C    3.956 --    41 C    1.320    33 C    1.239    49 N    1.196
    41   6 C    3.846 --    42 C    1.393    40 C    1.320   108 H    0.938
    42   6 C    3.934 --    43 C    1.515    41 C    1.393    58 S    0.486
    43   6 C    3.863 --    42 C    1.515    34 C    1.206   105 H    0.945
    44   8 O    2.207 --    24 C    1.134    45 B    0.817
    45   5 B    3.416 --    44 O    0.817    46 N    0.817    22 O    0.813
                            49 N    0.809
    46   7 N    3.229 --    18 C    1.150    48 C    1.001    45 B    0.817
    47   6 C    3.970 --    48 C    1.001    89 H    0.983    88 H    0.980
                            90 H    0.979
    48   6 C    3.945 --    46 N    1.001    47 C    1.001    91 H    0.964
                            92 H    0.919
    49   7 N    3.251 --    40 C    1.196    51 C    0.993    45 B    0.809
    50   6 C    3.977 --    51 C    1.010    95 H    0.984    96 H    0.980
                            97 H    0.978
    51   6 C    3.953 --    50 C    1.010    49 N    0.993    93 H    0.949
                            94 H    0.939
    52  16 S    4.023 --    55 F    0.731    54 F    0.688    53 F    0.688
                            57 F    0.688    56 F    0.687    38 C    0.510
    53   9 F    0.899 --    52 S    0.688
    54   9 F    0.900 --    52 S    0.688
    55   9 F    0.976 --    52 S    0.731
    56   9 F    0.899 --    52 S    0.687
    57   9 F    0.899 --    52 S    0.688
    58  16 S    3.885 --    61 F    0.714    60 F    0.692    62 F    0.671
                            63 F    0.646    59 F    0.640    42 C    0.486
    59   9 F    0.837 --    58 S    0.640
    60   9 F    0.911 --    58 S    0.692
    61   9 F    0.956 --    58 S    0.714
    62   9 F    0.879 --    58 S    0.671
    63   9 F    0.849 --    58 S    0.646
    64  16 S    3.958 --    67 F    0.725    66 F    0.688    65 F    0.680
                            69 F    0.669    68 F    0.657    28 C    0.507
    65   9 F    0.891 --    64 S    0.680
    66   9 F    0.901 --    64 S    0.688
    67   9 F    0.969 --    64 S    0.725
    68   9 F    0.861 --    64 S    0.657
    69   9 F    0.877 --    64 S    0.669
    70  16 S    3.970 --    73 F    0.723    71 F    0.683    72 F    0.676
                            75 F    0.675    74 F    0.674    20 C    0.508
    71   9 F    0.895 --    70 S    0.683
    72   9 F    0.884 --    70 S    0.676
    73   9 F    0.967 --    70 S    0.723
    74   9 F    0.886 --    70 S    0.674
    75   9 F    0.885 --    70 S    0.675
    76  16 S    4.020 --    79 F    0.730    81 F    0.689    78 F    0.688
                            80 F    0.687    77 F    0.686    16 C    0.509
    77   9 F    0.896 --    76 S    0.686
    78   9 F    0.900 --    76 S    0.688
    79   9 F    0.975 --    76 S    0.730
    80   9 F    0.897 --    76 S    0.687
    81   9 F    0.901 --    76 S    0.689
    82  16 S    3.905 --    84 F    0.715    86 F    0.689    83 F    0.674
                            87 F    0.664    85 F    0.634     6 C    0.496
    83   9 F    0.884 --    82 S    0.674
    84   9 F    0.957 --    82 S    0.715
    85   9 F    0.829 --    82 S    0.634
    86   9 F    0.905 --    82 S    0.689
    87   9 F    0.872 --    82 S    0.664
    88   1 H    0.993 --    47 C    0.980
    89   1 H    0.996 --    47 C    0.983
    90   1 H    0.994 --    47 C    0.979
    91   1 H    0.993 --    48 C    0.964
    92   1 H    0.966 --    48 C    0.919
    93   1 H    0.991 --    51 C    0.949
    94   1 H    0.980 --    51 C    0.939
    95   1 H    0.996 --    50 C    0.984
    96   1 H    0.994 --    50 C    0.980
    97   1 H    0.994 --    50 C    0.978
    98   1 H    0.981 --    27 C    0.945
    99   1 H    0.981 --    39 C    0.946
   100   1 H    0.981 --    37 C    0.946
   101   1 H    0.981 --     5 C    0.945
   102   1 H    0.982 --    15 C    0.946
   103   1 H    0.981 --    17 C    0.945
   104   1 H    0.980 --    21 C    0.944
   105   1 H    0.980 --    43 C    0.945
   106   1 H    0.985 --    19 C    0.935
   107   1 H    0.986 --     1 C    0.949
   108   1 H    0.988 --    41 C    0.938
   109   1 H    0.986 --    23 C    0.945
 ---------------------------------------------------------------------------

Topologies differ in bond orders
Writing corrected topology to xtbtopo.mol

molecular dipole:
                 x           y           z       tot (Debye)
 q only:        0.075      -0.768      -2.356
   full:        0.005      -0.747      -1.858       5.090
molecular quadrupole (traceless):
                xx          xy          yy          xz          yz          zz
 q only:      -46.780     -14.031     -48.689       2.276      19.505      95.468
  q+dip:      -45.698      -4.789     -37.595      -2.598      18.466      83.294
   full:      -51.438      -5.479     -45.053      -4.056      19.562      96.491


           -------------------------------------------------
          | TOTAL ENERGY             -290.154840712685 Eh   |
          | GRADIENT NORM               0.050295457781 Eh/α |
          | HOMO-LUMO GAP               0.049471371476 eV   |
           -------------------------------------------------
########################################################################
[WARNING] Runtime exception occurred
-2- restart_readRestart: Multiplicity missmatch in restart file.
-1- restart_readRestart: Number of electron missmatch in restart file.
Note: The following floating-point exceptions are signalling: IEEE_UNDERFLOW_FLAG
normal termination of xtb
########################################################################

------------------------------------------------------------------------
 * finished run on 2024/11/08 at 11:55:01.250     
------------------------------------------------------------------------
 total:
 * wall-time:     0 d,  0 h,  0 min,  1.994 sec
 *  cpu-time:     0 d,  0 h,  0 min,  7.412 sec
 * ratio c/w:     3.717 speedup
 SCF:
 * wall-time:     0 d,  0 h,  0 min,  1.975 sec
 *  cpu-time:     0 d,  0 h,  0 min,  7.370 sec
 * ratio c/w:     3.731 speedup

