      -----------------------------------------------------------      
     |                   =====================                   |     
     |                           x T B                           |     
     |                   =====================                   |     
     |                         S. Grimme                         |     
     |          Mulliken Center for Theoretical Chemistry        |     
     |                    University of Bonn                     |     
      -----------------------------------------------------------      

   * xtb version 6.6.1 (8d0f1dd) compiled by 'runner@Mac-1690902418499.local' on 2023-08-01

   xtb is free software: you can redistribute it and/or modify it under
   the terms of the GNU Lesser General Public License as published by
   the Free Software Foundation, either version 3 of the License, or
   (at your option) any later version.
   
   xtb is distributed in the hope that it will be useful,
   but WITHOUT ANY WARRANTY; without even the implied warranty of
   MERCHANTABILITY or FITNESS FOR A PARTICULAR PURPOSE.  See the
   GNU Lesser General Public License for more details.
   
   Cite this work as:
   * C. Bannwarth, E. Caldeweyher, S. Ehlert, A. Hansen, P. Pracht,
     J. Seibert, S. Spicher, S. Grimme, WIREs Comput. Mol. Sci., 2020, 11,
     e01493. DOI: 10.1002/wcms.1493
   
   for GFN2-xTB:
   * C. Bannwarth, S. Ehlert and S. Grimme., J. Chem. Theory Comput., 2019,
     15, 1652-1671. DOI: 10.1021/acs.jctc.8b01176
   for GFN1-xTB:
   * S. Grimme, C. Bannwarth, P. Shushkov, J. Chem. Theory Comput., 2017,
     13, 1989-2009. DOI: 10.1021/acs.jctc.7b00118
   for GFN0-xTB:
   * P. Pracht, E. Caldeweyher, S. Ehlert, S. Grimme, ChemRxiv, 2019, preprint.
     DOI: 10.26434/chemrxiv.8326202.v1
   for GFN-FF:
   * S. Spicher and S. Grimme, Angew. Chem. Int. Ed., 2020, 59, 15665-15673.
     DOI: 10.1002/anie.202004239
   
   for ALPB and GBSA implicit solvation:
   * S. Ehlert, M. Stahn, S. Spicher, S. Grimme, J. Chem. Theory Comput.,
     2021, 17, 4250-4261. DOI: 10.1021/acs.jctc.1c00471
   
   for DFT-D4:
   * E. Caldeweyher, C. Bannwarth and S. Grimme, J. Chem. Phys., 2017,
     147, 034112. DOI: 10.1063/1.4993215
   * E. Caldeweyher, S. Ehlert, A. Hansen, H. Neugebauer, S. Spicher,
     C. Bannwarth and S. Grimme, J. Chem. Phys., 2019, 150, 154122.
     DOI: 10.1063/1.5090222
   * E. Caldeweyher, J.-M. Mewes, S. Ehlert and S. Grimme, Phys. Chem. Chem. Phys.
     2020, 22, 8499-8512. DOI: 10.1039/D0CP00502A
   
   for sTDA-xTB:
   * S. Grimme and C. Bannwarth, J. Chem. Phys., 2016, 145, 054103.
     DOI: 10.1063/1.4959605
   
   in the mass-spec context:
   * V. Asgeirsson, C. Bauer and S. Grimme, Chem. Sci., 2017, 8, 4879.
     DOI: 10.1039/c7sc00601b
   * J. Koopman and S. Grimme, ACS Omega 2019, 4, 12, 15120-15133.
     DOI: 10.1021/acsomega.9b02011
   
   for metadynamics refer to:
   * S. Grimme, J. Chem. Theory Comput., 2019, 155, 2847-2862
     DOI: 10.1021/acs.jctc.9b00143
   
   for SPH calculations refer to:
   * S. Spicher and S. Grimme, J. Chem. Theory Comput., 2021, 17, 1701-1714
     DOI: 10.1021/acs.jctc.0c01306
   
   with help from (in alphabetical order)
   P. Atkinson, C. Bannwarth, F. Bohle, G. Brandenburg, E. Caldeweyher
   M. Checinski, S. Dohm, S. Ehlert, S. Ehrlich, I. Gerasimov, C. Hölzer
   A. Katbashev, J. Koopman, C. Lavigne, S. Lehtola, F. März, M. Müller,
   F. Musil, H. Neugebauer, J. Pisarek, C. Plett, P. Pracht, F. Pultar,
   J. Seibert, P. Shushkov, S. Spicher, M. Stahn, M. Steiner, T. Strunk,
   J. Stückrath, T. Rose, and J. Unsleber
   
 * started run on 2024/11/08 at 11:54:55.012     

           -------------------------------------------------
          |                Calculation Setup                |
           -------------------------------------------------

          program call               : xtb opt_radical_Base2SF5.mol --gfn2 --sp --chrg 0 --uhf 1
          coordinate file            : opt_radical_Base2SF5.mol
          omp threads                :                     8

   ID    Z sym.   atoms
    1    6 C      1-9, 11, 12, 14-21, 23-31, 33, 34, 36-43, 47, 48, 50, 51
    2    7 N      10, 13, 32, 35, 46, 49
    3    8 O      22, 44
    4    5 B      45
    5   16 S      52, 58, 64, 70, 76, 82
    6    9 F      53-57, 59-63, 65-69, 71-75, 77-81, 83-87
    7    1 H      88-109

           -------------------------------------------------
          |                 G F N 2 - x T B                 |
           -------------------------------------------------

        Reference                      10.1021/acs.jctc.8b01176
      * Hamiltonian:
        H0-scaling (s, p, d)           1.850000    2.230000    2.230000
        zeta-weighting                 0.500000
      * Dispersion:
        s8                             2.700000
        a1                             0.520000
        a2                             5.000000
        s9                             5.000000
      * Repulsion:
        kExp                           1.500000    1.000000
        rExp                           1.000000
      * Coulomb:
        alpha                          2.000000
        third order                    shell-resolved
        anisotropic                    true
        a3                             3.000000
        a5                             4.000000
        cn-shift                       1.200000
        cn-exp                         4.000000
        max-rad                        5.000000


          ...................................................
          :                      SETUP                      :
          :.................................................:
          :  # basis functions                 406          :
          :  # atomic orbitals                 400          :
          :  # shells                          202          :
          :  # electrons                       481          :
          :  max. iterations                   250          :
          :  Hamiltonian                  GFN2-xTB          :
          :  restarted?                      false          :
          :  GBSA solvation                  false          :
          :  PC potential                    false          :
          :  electronic temp.          300.0000000     K    :
          :  accuracy                    1.0000000          :
          :  -> integral cutoff          0.2500000E+02      :
          :  -> integral neglect         0.1000000E-07      :
          :  -> SCF convergence          0.1000000E-05 Eh   :
          :  -> wf. convergence          0.1000000E-03 e    :
          :  Broyden damping             0.4000000          :
          ...................................................

 iter      E             dE          RMSdq      gap      omega  full diag
   1   -291.8130776 -0.291813E+03  0.697E+00    0.04       0.0  T
   2   -291.5894568  0.223621E+00  0.427E+00    0.26       1.0  T
   3   -289.7525740  0.183688E+01  0.383E+00    0.27       1.0  T
   4   -291.2953089 -0.154273E+01  0.240E+00    0.38       1.0  T
   5   -291.7748725 -0.479564E+00  0.161E+00    0.52       1.0  T
   6   -291.6993112  0.755613E-01  0.157E+00    0.41       1.0  T
   7   -292.2176217 -0.518310E+00  0.892E-01    0.09       1.0  T
   8   -292.2196527 -0.203097E-02  0.808E-01    0.07       1.0  T
   9   -292.2762962 -0.566435E-01  0.610E-01    0.09       1.0  T
  10   -292.2453873  0.309089E-01  0.622E-01    0.12       1.0  T
  11   -292.2765303 -0.311430E-01  0.488E-01    0.09       1.0  T
  12   -292.2972390 -0.207087E-01  0.333E-01    0.05       1.0  T
  13   -292.2372107  0.600283E-01  0.653E-01    0.07       1.0  T
  14   -292.2944228 -0.572121E-01  0.367E-01    0.04       1.0  T
  15   -292.2464209  0.480019E-01  0.601E-01    0.05       1.0  T
  16   -292.3106929 -0.642720E-01  0.194E-01    0.05       1.0  T
  17   -292.3143321 -0.363919E-02  0.119E-01    0.06       1.0  T
  18   -292.3175301 -0.319796E-02  0.467E-02    0.05       1.0  T
  19   -292.3178521 -0.322047E-03  0.239E-02    0.05       1.0  T
  20   -292.3178345  0.175824E-04  0.230E-02    0.05       1.0  T
  21   -292.3179262 -0.916624E-04  0.888E-03    0.05       1.1  T
  22   -292.3179454 -0.191784E-04  0.170E-03    0.05       5.6  T
  23   -292.3179458 -0.400290E-06  0.893E-04    0.05      10.7  T
  24   -292.3179457  0.796591E-07  0.890E-04    0.05      10.8  T

   *** convergence criteria satisfied after 24 iterations ***

         #    Occupation            Energy/Eh            Energy/eV
      -------------------------------------------------------------
         1        2.0000           -0.8932118             -24.3055
       ...           ...                  ...                  ...
       235        2.0000           -0.4580682             -12.4647
       236        2.0000           -0.4573445             -12.4450
       237        2.0000           -0.4424937             -12.0409
       238        2.0000           -0.4411267             -12.0037
       239        1.9999           -0.4406398             -11.9904
       240        1.4708           -0.4318581             -11.7515
       241        1.1355           -0.4310093             -11.7284 (HOMO)
       242        0.3939           -0.4291115             -11.6767 (LUMO)
       243                         -0.3691446             -10.0449
       244                         -0.3651728              -9.9369
       245                         -0.3327293              -9.0540
       246                         -0.3312974              -9.0151
       ...                                ...                  ...
       400                          1.0381038              28.2482
      -------------------------------------------------------------
                  HL-Gap            0.0018978 Eh            0.0516 eV
             Fermi-level           -0.4306911 Eh          -11.7197 eV

 SCC (total)                   0 d,  0 h,  0 min,  2.306 sec
 SCC setup                      ...        0 min,  0.001 sec (  0.052%)
 Dispersion                     ...        0 min,  0.002 sec (  0.072%)
 classical contributions        ...        0 min,  0.000 sec (  0.018%)
 integral evaluation            ...        0 min,  0.009 sec (  0.405%)
 iterations                     ...        0 min,  2.244 sec ( 97.312%)
 molecular gradient             ...        0 min,  0.041 sec (  1.757%)
 printout                       ...        0 min,  0.009 sec (  0.383%)

         :::::::::::::::::::::::::::::::::::::::::::::::::::::
         ::                     SUMMARY                     ::
         :::::::::::::::::::::::::::::::::::::::::::::::::::::
         :: total energy            -290.158082361036 Eh    ::
         :: gradient norm              0.000435745043 Eh/a0 ::
         :: HOMO-LUMO gap              0.051642593027 eV    ::
         ::.................................................::
         :: SCC energy              -292.317945698382 Eh    ::
         :: -> isotropic ES            0.025226510674 Eh    ::
         :: -> anisotropic ES         -0.096999379448 Eh    ::
         :: -> anisotropic XC         -0.000602372428 Eh    ::
         :: -> dispersion             -0.198773209698 Eh    ::
         :: repulsion energy           2.154794819619 Eh    ::
         :: add. restraining           0.000000000000 Eh    ::
         :: total charge               0.000000000001 e     ::
         :::::::::::::::::::::::::::::::::::::::::::::::::::::

           -------------------------------------------------
          |                Property Printout                |
           -------------------------------------------------

    * Orbital Energies and Occupations

         #    Occupation            Energy/Eh            Energy/eV
      -------------------------------------------------------------
         1        2.0000           -0.8932118             -24.3055
       ...           ...                  ...                  ...
       229        2.0000           -0.4893158             -13.3150
       230        2.0000           -0.4864571             -13.2372
       231        2.0000           -0.4784513             -13.0193
       232        2.0000           -0.4709288             -12.8146
       233        2.0000           -0.4653148             -12.6619
       234        2.0000           -0.4632341             -12.6052
       235        2.0000           -0.4580682             -12.4647
       236        2.0000           -0.4573445             -12.4450
       237        2.0000           -0.4424937             -12.0409
       238        2.0000           -0.4411267             -12.0037
       239        1.9999           -0.4406398             -11.9904
       240        1.4708           -0.4318581             -11.7515
       241        1.1355           -0.4310093             -11.7284 (HOMO)
       242        0.3939           -0.4291115             -11.6767 (LUMO)
       243                         -0.3691446             -10.0449
       244                         -0.3651728              -9.9369
       245                         -0.3327293              -9.0540
       246                         -0.3312974              -9.0151
       247                         -0.3308765              -9.0036
       248                         -0.3284557              -8.9377
       249                         -0.3220692              -8.7639
       250                         -0.3173292              -8.6350
       251                         -0.3165646              -8.6142
       252                         -0.3154488              -8.5838
       ...                                ...                  ...
       400                          1.0381038              28.2482
      -------------------------------------------------------------
                  HL-Gap            0.0018978 Eh            0.0516 eV
             Fermi-level           -0.4306911 Eh          -11.7197 eV

     #   Z          covCN         q      C6AA      α(0)
     1   6 C        2.958    -0.061    29.509     8.910
     2   6 C        2.854     0.175    24.249     8.071
     3   6 C        2.973    -0.027    28.673     8.783
     4   6 C        2.975     0.106    25.653     8.308
     5   6 C        2.946    -0.032    28.794     8.801
     6   6 C        2.961    -0.125    31.175     9.158
     7   6 C        2.969     0.045    26.984     8.521
     8   6 C        2.994    -0.015    28.368     8.737
     9   6 C        2.969     0.110    25.576     8.295
    10   7 N        1.859    -0.186    25.853     7.536
    11   6 C        2.965    -0.006    28.162     8.705
    12   6 C        2.977     0.109    25.595     8.299
    13   7 N        1.868    -0.184    25.805     7.530
    14   6 C        2.965     0.109    25.596     8.298
    15   6 C        2.947    -0.024    28.613     8.773
    16   6 C        2.961    -0.117    30.977     9.129
    17   6 C        2.949    -0.023    28.588     8.770
    18   6 C        2.909     0.103    25.713     8.315
    19   6 C        2.967    -0.044    29.090     8.847
    20   6 C        2.959    -0.127    31.223     9.165
    21   6 C        2.957    -0.023    28.588     8.770
    22   8 O        1.641    -0.341    19.756     6.000
    23   6 C        2.950    -0.060    29.488     8.907
    24   6 C        2.856     0.175    24.231     8.068
    25   6 C        2.975    -0.025    28.624     8.776
    26   6 C        2.982     0.107    25.624     8.304
    27   6 C        2.953    -0.034    28.852     8.810
    28   6 C        2.962    -0.131    31.330     9.181
    29   6 C        2.967     0.051    26.857     8.501
    30   6 C        2.993    -0.012    28.306     8.727
    31   6 C        2.975     0.109    25.581     8.296
    32   7 N        1.863    -0.188    25.892     7.542
    33   6 C        2.963    -0.006    28.176     8.707
    34   6 C        2.976     0.110    25.558     8.293
    35   7 N        1.878    -0.182    25.767     7.525
    36   6 C        2.967     0.110    25.572     8.295
    37   6 C        2.949    -0.022    28.551     8.764
    38   6 C        2.960    -0.118    30.980     9.130
    39   6 C        2.950    -0.022    28.555     8.765
    40   6 C        2.905     0.102    25.746     8.320
    41   6 C        2.976    -0.050    29.224     8.867
    42   6 C        2.959    -0.120    31.054     9.140
    43   6 C        2.965    -0.021    28.535     8.762
    44   8 O        1.640    -0.336    19.666     5.986
    45   5 B        3.267     0.464    14.889     6.435
    46   7 N        2.664    -0.177    24.838     7.402
    47   6 C        3.751    -0.128    23.020     6.842
    48   6 C        3.746    -0.017    20.941     6.528
    49   7 N        2.663    -0.192    25.162     7.450
    50   6 C        3.752    -0.131    23.085     6.852
    51   6 C        3.747    -0.014    20.900     6.521
    52  16 S        4.957     2.015    81.975    15.239
    53   9 F        0.786    -0.444    14.085     4.433
    54   9 F        0.787    -0.443    14.077     4.432
    55   9 F        0.789    -0.372    13.167     4.286
    56   9 F        0.786    -0.444    14.090     4.434
    57   9 F        0.786    -0.444    14.084     4.433
    58  16 S        4.958     2.102    80.235    15.076
    59   9 F        0.786    -0.493    14.757     4.538
    60   9 F        0.787    -0.437    13.993     4.419
    61   9 F        0.789    -0.386    13.346     4.315
    62   9 F        0.786    -0.456    14.250     4.459
    63   9 F        0.785    -0.480    14.568     4.509
    64  16 S        4.956     2.073    80.811    15.130
    65   9 F        0.787    -0.448    14.144     4.442
    66   9 F        0.787    -0.445    14.101     4.436
    67   9 F        0.789    -0.378    13.249     4.300
    68   9 F        0.786    -0.478    14.539     4.504
    69   9 F        0.786    -0.459    14.288     4.465
    70  16 S        4.955     2.068    80.907    15.139
    71   9 F        0.787    -0.449    14.155     4.444
    72   9 F        0.786    -0.459    14.287     4.465
    73   9 F        0.789    -0.379    13.262     4.302
    74   9 F        0.786    -0.452    14.195     4.451
    75   9 F        0.786    -0.451    14.186     4.449
    76  16 S        4.958     2.015    81.974    15.238
    77   9 F        0.786    -0.446    14.117     4.438
    78   9 F        0.787    -0.443    14.078     4.432
    79   9 F        0.789    -0.372    13.174     4.287
    80   9 F        0.786    -0.445    14.108     4.437
    81   9 F        0.787    -0.443    14.073     4.431
    82  16 S        4.958     2.098    80.299    15.082
    83   9 F        0.786    -0.454    14.215     4.454
    84   9 F        0.789    -0.385    13.337     4.314
    85   9 F        0.785    -0.501    14.865     4.554
    86   9 F        0.787    -0.442    14.062     4.430
    87   9 F        0.786    -0.463    14.348     4.474
    88   1 H        0.925     0.075     2.026     2.226
    89   1 H        0.925     0.061     2.187     2.313
    90   1 H        0.925     0.058     2.228     2.334
    91   1 H        0.924     0.067     2.120     2.277
    92   1 H        0.924     0.073     2.053     2.240
    93   1 H        0.925     0.078     2.005     2.214
    94   1 H        0.924     0.043     2.405     2.425
    95   1 H        0.925     0.056     2.244     2.343
    96   1 H        0.925     0.070     2.082     2.257
    97   1 H        0.925     0.067     2.119     2.277
    98   1 H        0.926     0.131     1.529     1.933
    99   1 H        0.926     0.131     1.530     1.934
   100   1 H        0.926     0.131     1.524     1.931
   101   1 H        0.926     0.133     1.511     1.922
   102   1 H        0.926     0.129     1.544     1.943
   103   1 H        0.926     0.131     1.530     1.934
   104   1 H        0.926     0.134     1.508     1.921
   105   1 H        0.926     0.134     1.503     1.917
   106   1 H        0.926     0.120     1.612     1.985
   107   1 H        0.926     0.114     1.664     2.017
   108   1 H        0.926     0.105     1.743     2.064
   109   1 H        0.926     0.116     1.643     2.004

 Mol. C6AA /au·bohr⁶  :     207082.470068
 Mol. C8AA /au·bohr⁸  :    5367020.404655
 Mol. α(0) /au        :        689.496979


Wiberg/Mayer (AO) data.
largest (>0.10) Wiberg bond orders for each atom

 ---------------------------------------------------------------------------
     #   Z sym  total        # sym  WBO       # sym  WBO       # sym  WBO
 ---------------------------------------------------------------------------
     1   6 C    3.895 --     6 C    1.369     2 C    1.359   107 H    0.949
     2   6 C    3.941 --     1 C    1.359     3 C    1.243    22 O    1.135
     3   6 C    3.947 --     2 C    1.243     7 C    1.222     4 C    1.201
     4   6 C    3.972 --    10 N    1.357     5 C    1.216     3 C    1.201
     5   6 C    3.901 --     6 C    1.532     4 C    1.216   101 H    0.946
     6   6 C    3.933 --     5 C    1.532     1 C    1.369    82 S    0.502
     7   6 C    3.979 --     8 C    1.318     3 C    1.222    11 C    1.194
     8   6 C    3.973 --     7 C    1.318    14 C    1.191     9 C    1.187
     9   6 C    3.974 --    10 N    1.368    17 C    1.228     8 C    1.187
    10   7 N    2.953 --     9 C    1.368     4 C    1.357
    11   6 C    3.924 --    18 C    1.259     7 C    1.194    12 C    1.192
    12   6 C    3.970 --    13 N    1.377    21 C    1.202    11 C    1.192
    13   7 N    2.979 --    12 C    1.377    14 C    1.348
    14   6 C    3.975 --    13 N    1.348    15 C    1.242     8 C    1.191
    15   6 C    3.796 --    16 C    1.446    14 C    1.242   102 H    0.947
    16   6 C    3.939 --    17 C    1.461    15 C    1.446    76 S    0.518
    17   6 C    3.795 --    16 C    1.461     9 C    1.228   103 H    0.946
    18   6 C    3.958 --    19 C    1.346    11 C    1.259    46 N    1.153
    19   6 C    3.846 --    20 C    1.380    18 C    1.346   106 H    0.935
    20   6 C    3.940 --    21 C    1.522    19 C    1.380    70 S    0.515
    21   6 C    3.859 --    20 C    1.522    12 C    1.202   104 H    0.945
    22   8 O    2.208 --     2 C    1.135    45 B    0.819
    23   6 C    3.885 --    28 C    1.365    24 C    1.339   109 H    0.946
    24   6 C    3.942 --    23 C    1.339    25 C    1.263    44 O    1.135
    25   6 C    3.948 --    24 C    1.263    26 C    1.202    29 C    1.196
    26   6 C    3.971 --    32 N    1.368    27 C    1.205    25 C    1.202
    27   6 C    3.895 --    28 C    1.537    26 C    1.205    98 H    0.946
    28   6 C    3.936 --    27 C    1.537    23 C    1.365    64 S    0.512
    29   6 C    3.979 --    30 C    1.313    33 C    1.221    25 C    1.196
    30   6 C    3.975 --    29 C    1.313    36 C    1.197    31 C    1.195
    31   6 C    3.975 --    32 N    1.347    39 C    1.241    30 C    1.195
    32   7 N    2.937 --    26 C    1.368    31 C    1.347
    33   6 C    3.939 --    40 C    1.241    29 C    1.221    34 C    1.201
    34   6 C    3.969 --    35 N    1.364    43 C    1.205    33 C    1.201
    35   7 N    2.966 --    34 C    1.364    36 C    1.357
    36   6 C    3.975 --    35 N    1.357    37 C    1.231    30 C    1.197
    37   6 C    3.798 --    38 C    1.460    36 C    1.231   100 H    0.947
    38   6 C    3.940 --    37 C    1.460    39 C    1.449    52 S    0.519
    39   6 C    3.795 --    38 C    1.449    31 C    1.241    99 H    0.947
    40   6 C    3.956 --    41 C    1.321    33 C    1.241    49 N    1.195
    41   6 C    3.845 --    42 C    1.390    40 C    1.321   108 H    0.938
    42   6 C    3.935 --    43 C    1.516    41 C    1.390    58 S    0.494
    43   6 C    3.863 --    42 C    1.516    34 C    1.205   105 H    0.946
    44   8 O    2.213 --    24 C    1.135    45 B    0.821
    45   5 B    3.416 --    44 O    0.821    22 O    0.819    46 N    0.809
                            49 N    0.808
    46   7 N    3.230 --    18 C    1.153    48 C    1.004    45 B    0.809
    47   6 C    3.970 --    48 C    1.001    89 H    0.983    88 H    0.980
                            90 H    0.980
    48   6 C    3.944 --    46 N    1.004    47 C    1.001    91 H    0.963
                            92 H    0.914
    49   7 N    3.249 --    40 C    1.195    51 C    0.993    45 B    0.808
    50   6 C    3.978 --    51 C    1.010    95 H    0.984    96 H    0.980
                            97 H    0.978
    51   6 C    3.954 --    50 C    1.010    49 N    0.993    93 H    0.950
                            94 H    0.939
    52  16 S    4.051 --    55 F    0.738    54 F    0.692    53 F    0.691
                            57 F    0.691    56 F    0.690    38 C    0.519
    53   9 F    0.900 --    52 S    0.691
    54   9 F    0.901 --    52 S    0.692
    55   9 F    0.978 --    52 S    0.738
    56   9 F    0.900 --    52 S    0.690
    57   9 F    0.901 --    52 S    0.691
    58  16 S    3.908 --    61 F    0.720    60 F    0.697    62 F    0.677
                            63 F    0.648    59 F    0.638    42 C    0.494
    59   9 F    0.835 --    58 S    0.638
    60   9 F    0.912 --    58 S    0.697
    61   9 F    0.958 --    58 S    0.720
    62   9 F    0.882 --    58 S    0.677
    63   9 F    0.849 --    58 S    0.648
    64  16 S    3.977 --    67 F    0.731    66 F    0.690    65 F    0.686
                            69 F    0.673    68 F    0.653    28 C    0.512
    65   9 F    0.895 --    64 S    0.686
    66   9 F    0.901 --    64 S    0.690
    67   9 F    0.970 --    64 S    0.731
    68   9 F    0.857 --    64 S    0.653
    69   9 F    0.879 --    64 S    0.673
    70  16 S    3.991 --    73 F    0.728    71 F    0.683    75 F    0.681
                            74 F    0.679    72 F    0.673    20 C    0.515
    71   9 F    0.894 --    70 S    0.683
    72   9 F    0.880 --    70 S    0.673
    73   9 F    0.968 --    70 S    0.728
    74   9 F    0.889 --    70 S    0.679
    75   9 F    0.888 --    70 S    0.681
    76  16 S    4.048 --    79 F    0.738    81 F    0.692    78 F    0.692
                            80 F    0.689    77 F    0.689    16 C    0.518
    77   9 F    0.897 --    76 S    0.689
    78   9 F    0.901 --    76 S    0.692
    79   9 F    0.977 --    76 S    0.738
    80   9 F    0.898 --    76 S    0.689
    81   9 F    0.902 --    76 S    0.692
    82  16 S    3.926 --    84 F    0.721    86 F    0.692    83 F    0.680
                            87 F    0.667    85 F    0.631     6 C    0.502
    83   9 F    0.887 --    82 S    0.680
    84   9 F    0.960 --    82 S    0.721
    85   9 F    0.826 --    82 S    0.631
    86   9 F    0.905 --    82 S    0.692
    87   9 F    0.873 --    82 S    0.667
    88   1 H    0.994 --    47 C    0.980
    89   1 H    0.996 --    47 C    0.983
    90   1 H    0.994 --    47 C    0.980
    91   1 H    0.993 --    48 C    0.963
    92   1 H    0.966 --    48 C    0.914
    93   1 H    0.991 --    51 C    0.950
    94   1 H    0.980 --    51 C    0.939
    95   1 H    0.996 --    50 C    0.984
    96   1 H    0.994 --    50 C    0.980
    97   1 H    0.994 --    50 C    0.978
    98   1 H    0.982 --    27 C    0.946
    99   1 H    0.982 --    39 C    0.947
   100   1 H    0.982 --    37 C    0.947
   101   1 H    0.982 --     5 C    0.946
   102   1 H    0.983 --    15 C    0.947
   103   1 H    0.982 --    17 C    0.946
   104   1 H    0.981 --    21 C    0.945
   105   1 H    0.981 --    43 C    0.946
   106   1 H    0.985 --    19 C    0.935
   107   1 H    0.987 --     1 C    0.949
   108   1 H    0.988 --    41 C    0.938
   109   1 H    0.986 --    23 C    0.946
 ---------------------------------------------------------------------------

Topologies differ in bond orders
Writing corrected topology to xtbtopo.mol

molecular dipole:
                 x           y           z       tot (Debye)
 q only:        0.049      -0.780      -2.287
   full:       -0.028      -0.760      -1.789       4.940
molecular quadrupole (traceless):
                xx          xy          yy          xz          yz          zz
 q only:      -42.589     -13.343     -45.686       2.913      17.745      88.275
  q+dip:      -40.123      -4.291     -33.268      -1.922      16.292      73.391
   full:      -46.041      -5.003     -40.710      -3.385      17.332      86.751


           -------------------------------------------------
          | TOTAL ENERGY             -290.158082361036 Eh   |
          | GRADIENT NORM               0.000435745043 Eh/α |
          | HOMO-LUMO GAP               0.051642593027 eV   |
           -------------------------------------------------
########################################################################
[WARNING] Runtime exception occurred
-2- restart_readRestart: Dimension missmatch in restart file.
-1- restart_readRestart: Number of electron missmatch in restart file.
Note: The following floating-point exceptions are signalling: IEEE_UNDERFLOW_FLAG
normal termination of xtb
########################################################################

------------------------------------------------------------------------
 * finished run on 2024/11/08 at 11:54:57.351     
------------------------------------------------------------------------
 total:
 * wall-time:     0 d,  0 h,  0 min,  2.337 sec
 *  cpu-time:     0 d,  0 h,  0 min,  8.605 sec
 * ratio c/w:     3.682 speedup
 SCF:
 * wall-time:     0 d,  0 h,  0 min,  2.307 sec
 *  cpu-time:     0 d,  0 h,  0 min,  8.563 sec
 * ratio c/w:     3.712 speedup

