Optimization of monomers started
Stacking dimer
Calculating transfer integral
                   =====================                   |     
     |                           x T B                           |     
     |                   =====================                   |     
     |                         S. Grimme                         |     
     |          Mulliken Center for Theoretical Chemistry        |     
     |                    University of Bonn                     |     
      -----------------------------------------------------------      

   * xtb version 6.7.1 (edcfbbe) compiled by 'runner@Mac-1732539442253.local' on 2024-11-25

   xtb is free software: you can redistribute it and/or modify it under
   the terms of the GNU Lesser General Public License as published by
   the Free Software Foundation, either version 3 of the License, or
   (at your option) any later version.
   
   xtb is distributed in the hope that it will be useful,
   but WITHOUT ANY WARRANTY; without even the implied warranty of
   MERCHANTABILITY or FITNESS FOR A PARTICULAR PURPOSE.  See the
   GNU Lesser General Public License for more details.
   
   Cite this work as:
   * C. Bannwarth, E. Caldeweyher, S. Ehlert, A. Hansen, P. Pracht,
     J. Seibert, S. Spicher, S. Grimme, WIREs Comput. Mol. Sci., 2020, 11,
     e01493. DOI: 10.1002/wcms.1493
   
   for GFN2-xTB:
   * C. Bannwarth, S. Ehlert and S. Grimme., J. Chem. Theory Comput., 2019,
     15, 1652-1671. DOI: 10.1021/acs.jctc.8b01176
   for GFN1-xTB:
   * S. Grimme, C. Bannwarth, P. Shushkov, J. Chem. Theory Comput., 2017,
     13, 1989-2009. DOI: 10.1021/acs.jctc.7b00118
   for GFN0-xTB:
   * P. Pracht, E. Caldeweyher, S. Ehlert, S. Grimme, ChemRxiv, 2019, preprint.
     DOI: 10.26434/chemrxiv.8326202.v1
   for GFN-FF:
   * S. Spicher and S. Grimme, Angew. Chem. Int. Ed., 2020, 59, 15665-15673.
     DOI: 10.1002/anie.202004239
   
   for ALPB and GBSA implicit solvation:
   * S. Ehlert, M. Stahn, S. Spicher, S. Grimme, J. Chem. Theory Comput.,
     2021, 17, 4250-4261. DOI: 10.1021/acs.jctc.1c00471
   
   for ddCOSMO and CPCM-X implicit solvation:
   * M. Stahn, S. Ehlert, S. Grimme, J. Phys. Chem. A,
     2023, XX, XXXX-XXXX. DOI: 10.1021/acs.jpca.3c04382
   
   for DFT-D4:
   * E. Caldeweyher, C. Bannwarth and S. Grimme, J. Chem. Phys., 2017,
     147, 034112. DOI: 10.1063/1.4993215
   * E. Caldeweyher, S. Ehlert, A. Hansen, H. Neugebauer, S. Spicher,
     C. Bannwarth and S. Grimme, J. Chem. Phys., 2019, 150, 154122.
     DOI: 10.1063/1.5090222
   * E. Caldeweyher, J.-M. Mewes, S. Ehlert and S. Grimme, Phys. Chem. Chem. Phys.
     2020, 22, 8499-8512. DOI: 10.1039/D0CP00502A
   
   for sTDA-xTB:
   * S. Grimme and C. Bannwarth, J. Chem. Phys., 2016, 145, 054103.
     DOI: 10.1063/1.4959605
   
   in the mass-spec context:
   * V. Asgeirsson, C. Bauer and S. Grimme, Chem. Sci., 2017, 8, 4879.
     DOI: 10.1039/c7sc00601b
   * J. Koopman and S. Grimme, ACS Omega 2019, 4, 12, 15120-15133.
     DOI: 10.1021/acsomega.9b02011
   
   for metadynamics refer to:
   * S. Grimme, J. Chem. Theory Comput., 2019, 155, 2847-2862
     DOI: 10.1021/acs.jctc.9b00143
   
   for SPH calculations refer to:
   * S. Spicher and S. Grimme, J. Chem. Theory Comput., 2021, 17, 1701-1714
     DOI: 10.1021/acs.jctc.0c01306
   
   for ONIOM refer to:
   * C. Plett, A. Katbashev, S. Ehlert, S. Grimme, M. Bursch,
     Phys. Chem. Chem. Phys., 2023, 25, 17860-17868. DOI: 10.1039/D3CP02178E
   
   for DIPRO refer to:
   * J. Kohn, N. Gildemeister, S. Grimme, D. Fazzi, A. Hansen,
     J. Chem. Phys., 2023, just accepted.
   
   for PTB refer to:
   * S. Grimme, M. Mueller, A. Hansen, J. Chem. Phys., 2023, 158, 124111.
     DOI: 10.1063/5.0137838
   
   with help from (in alphabetical order)
   P. Atkinson, C. Bannwarth, F. Bohle, G. Brandenburg, E. Caldeweyher
   M. Checinski, S. Dohm, S. Ehlert, S. Ehrlich, I. Gerasimov, C. Hölzer
   A. Katbashev, J. Kohn, J. Koopman, C. Lavigne, S. Lehtola, F. März, M. Müller,
   F. Musil, H. Neugebauer, J. Pisarek, C. Plett, P. Pracht, F. Pultar,
   J. Seibert, P. Shushkov, S. Spicher, M. Stahn, M. Steiner, T. Strunk,
   J. Stückrath, T. Rose, and J. Unsleber
   
 * started run on 2024/11/28 at 13:16:44.816     
   ID    Z sym.   atoms
    1    6 C      1-9, 11, 12, 14-21, 23-31, 33, 34, 36-43, 47, 48, 50, 51
    2    7 N      10, 13, 32, 35, 46, 49
    3    8 O      22, 44
    4    5 B      45
    5   16 S      52, 58, 64, 70, 76, 82
    6    9 F      53-57, 59-63, 65-69, 71-75, 77-81, 83-87
    7    1 H      88-109

           -------------------------------------------------
          |                Calculation Setup                |
           -------------------------------------------------

          program call               : xtb Base2SF5.mol --opt --gfn 2 --chrg 0 --uhf 1 --tight
          coordinate file            : Base2SF5.mol
          omp threads                :                     8

########################################################################
[WARNING] Please study the warnings concerning your input carefully
-1- prog_main_parseArguments: Unknown option '--tight' provided
########################################################################

           -------------------------------------------------
          |                 G F N 2 - x T B                 |
           -------------------------------------------------

        Reference                      10.1021/acs.jctc.8b01176
      * Hamiltonian:
        H0-scaling (s, p, d)           1.850000    2.230000    2.230000
        zeta-weighting                 0.500000
      * Dispersion:
        s8                             2.700000
        a1                             0.520000
        a2                             5.000000
        s9                             5.000000
      * Repulsion:
        kExp                           1.500000    1.000000
        rExp                           1.000000
      * Coulomb:
        alpha                          2.000000
        third order                    shell-resolved
        anisotropic                    true
        a3                             3.000000
        a5                             4.000000
        cn-shift                       1.200000
        cn-exp                         4.000000
        max-rad                        5.000000

q/qsh data taken from xtbrestart
CAMM data taken from xtbrestart

          ...................................................
          :                      SETUP                      :
          :.................................................:
          :  # basis functions                 406          :
          :  # atomic orbitals                 400          :
          :  # shells                          202          :
          :  # electrons                       481          :
          :  max. iterations                   250          :
          :  Hamiltonian                  GFN2-xTB          :
          :  restarted?                       true          :
          :  GBSA solvation                  false          :
          :  PC potential                    false          :
          :  electronic temp.          300.0000000     K    :
          :  accuracy                    1.0000000          :
          :  -> integral cutoff          0.2500000E+02      :
          :  -> integral neglect         0.1000000E-07      :
          :  -> SCF convergence          0.1000000E-05 Eh   :
          :  -> wf. convergence          0.1000000E-03 e    :
          :  Broyden damping             0.4000000          :
          :  net charge                          0          :
          :  unpaired electrons                  1          :
          ...................................................

 iter      E             dE          RMSdq      gap      omega  full diag
   1   -292.0228234 -0.292023E+03  0.262E+00    0.03       0.0  T
   2   -291.4013003  0.621523E+00  0.244E+00    0.72       1.0  T
   3   -291.2785160  0.122784E+00  0.196E+00    0.20       1.0  T
   4   -289.2890360  0.198948E+01  0.280E+00    0.14       1.0  T
   5   -291.4571429 -0.216811E+01  0.193E+00    0.59       1.0  T
   6   -291.8388588 -0.381716E+00  0.118E+00    0.57       1.0  T
   7   -292.0066751 -0.167816E+00  0.838E-01    0.07       1.0  T
   8   -292.0275830 -0.209079E-01  0.709E-01    0.05       1.0  T
   9   -292.0660007 -0.384177E-01  0.540E-01    0.01       1.0  T
  10   -292.0897589 -0.237582E-01  0.371E-01    0.00       1.0  T
  11   -292.0794439  0.103150E-01  0.317E-01    0.10       1.0  T
  12   -292.0931440 -0.137000E-01  0.264E-01    0.02       1.0  T
  13   -292.1019766 -0.883260E-02  0.154E-01    0.03       1.0  T
  14   -292.0932004  0.877614E-02  0.208E-01    0.02       1.0  T
  15   -292.1006988 -0.749835E-02  0.176E-01    0.04       1.0  T
  16   -292.1046191 -0.392029E-02  0.630E-02    0.02       1.0  T
  17   -292.1041610  0.458063E-03  0.765E-02    0.02       1.0  T
  18   -292.1048667 -0.705732E-03  0.446E-02    0.02       1.0  T
  19   -292.1052364 -0.369696E-03  0.203E-02    0.03       1.0  T
  20   -292.1052479 -0.114542E-04  0.149E-02    0.03       1.0  T
  21   -292.1052829 -0.350164E-04  0.734E-03    0.03       1.3  T
  22   -292.1052834 -0.504984E-06  0.722E-03    0.03       1.3  T
  23   -292.1052868 -0.341889E-05  0.444E-03    0.03       2.2  T
  24   -292.1052907 -0.382856E-05  0.178E-03    0.03       5.4  T
  25   -292.1052911 -0.489994E-06  0.368E-04    0.03      26.1  T
  26   -292.1052911  0.350818E-07  0.492E-04    0.03      19.5  T

   *** convergence criteria satisfied after 26 iterations ***

         #    Occupation            Energy/Eh            Energy/eV
      -------------------------------------------------------------
         1        2.0000           -0.9084117             -24.7191
       ...           ...                  ...                  ...
       235        2.0000           -0.4608922             -12.5415
       236        2.0000           -0.4565994             -12.4247
       237        2.0000           -0.4454405             -12.1211
       238        1.9971           -0.4413089             -12.0086
       239        1.9807           -0.4394908             -11.9592
       240        1.8284           -0.4372827             -11.8991
       241        0.7553           -0.4338375             -11.8053 (HOMO)
       242        0.4385           -0.4328996             -11.7798 (LUMO)
       243                         -0.3862110             -10.5093
       244                         -0.3828769             -10.4186
       245                         -0.3704555             -10.0806
       246                         -0.3647775              -9.9261
       ...                                ...                  ...
       400                          0.9582587              26.0755
      -------------------------------------------------------------
                  HL-Gap            0.0009379 Eh            0.0255 eV
             Fermi-level           -0.4345068 Eh          -11.8235 eV

 SCC (total)                   0 d,  0 h,  0 min, 10.182 sec
 SCC setup                      ...        0 min,  0.001 sec (  0.012%)
 Dispersion                     ...        0 min,  0.001 sec (  0.012%)
 classical contributions        ...        0 min,  0.000 sec (  0.004%)
 integral evaluation            ...        0 min,  0.011 sec (  0.108%)
 iterations                     ...        0 min, 10.078 sec ( 98.985%)
 molecular gradient             ...        0 min,  0.060 sec (  0.587%)
 printout                       ...        0 min,  0.030 sec (  0.292%)

         :::::::::::::::::::::::::::::::::::::::::::::::::::::
         ::                     SUMMARY                     ::
         :::::::::::::::::::::::::::::::::::::::::::::::::::::
         :: total energy            -289.711228064697 Eh    ::
         :: gradient norm              0.457180712301 Eh/a0 ::
         :: HOMO-LUMO gap              0.025521568072 eV    ::
         ::.................................................::
         :: SCC energy              -292.099576398037 Eh    ::
         :: -> isotropic ES            0.064050421088 Eh    ::
         :: -> anisotropic ES         -0.091368682606 Eh    ::
         :: -> anisotropic XC          0.014360157630 Eh    ::
         :: -> dispersion             -0.208899501189 Eh    ::
         :: repulsion energy           2.388348333341 Eh    ::
         :: add. restraining           0.000000000000 Eh    ::
         :: total charge              -0.000000579872 e     ::
         :::::::::::::::::::::::::::::::::::::::::::::::::::::

      ----------------------------------------------------------- 
     |                   =====================                   |
     |                        A N C O P T                        |
     |                   =====================                   |
     |               Approximate Normal Coordinate               |
     |                Rational Function Optimizer                |
      ----------------------------------------------------------- 
      ----------------------------------------------------------- 
     |                   =====================                   |
     |                        A N C O P T                        |
     |                   =====================                   |
     |               Approximate Normal Coordinate               |
     |                Rational Function Optimizer                |
      ----------------------------------------------------------- 

          ...................................................
          :                      SETUP                      :
          :.................................................:
          :   optimization level            normal          :
          :   max. optcycles                   327          :
          :   ANC micro-cycles                  20          :
          :   degrees of freedom               321          :
          :.................................................:
          :   RF solver                   davidson          :
          :   write xtbopt.log                true          :
          :   linear?                        false          :
          :   energy convergence         0.5000000E-05 Eh   :
          :   grad. convergence          0.1000000E-02 Eh/α :
          :   maxmium RF displ.          1.0000000          :
          :   Hlow (freq-cutoff)         0.1000000E-01      :
          :   Hmax (freq-cutoff)         5.0000000          :
          :   S6 in model hess.         20.0000000          :
          ...................................................

generating ANC from exact Hessian ...
Using Lindh-Hessian (1995)
 Shifting diagonal of input Hessian by    9.8529316855608239E-003
 Lowest  eigenvalues of input Hessian
    0.000000    0.000000    0.000000    0.000000    0.000000    0.000000
    0.010000    0.010293    0.010364    0.010435    0.010764    0.010921
    0.011108    0.011259    0.011391    0.011554    0.011685    0.012071
 Highest eigenvalues
    2.296591    2.301847    2.319330    2.325819    2.360393    2.387737


........................................................................
.............................. CYCLE    1 ..............................
........................................................................

 iter      E             dE          RMSdq      gap      omega  full diag
   1   -292.1052912 -0.292105E+03  0.231E-04    0.03       0.0  T
   2   -292.1052881  0.305829E-05  0.313E-03    0.03       3.1  T
   3   -292.1052910 -0.292756E-05  0.723E-04    0.03      13.2  T
   4   -292.1052912 -0.119240E-06  0.277E-04    0.03      34.6  T
   5   -292.1052912 -0.103901E-07  0.222E-04    0.03      43.1  T
     SCC iter.                  ...        0 min,  1.906 sec
     gradient                   ...        0 min,  0.060 sec
 * total energy  :  -289.7112281 Eh     change       -0.5104039E-07 Eh
   gradient norm :     0.4571799 Eh/α   predicted     0.0000000E+00 (-100.00%)
   displ. norm   :     0.5391669 α      lambda       -0.1824144E+00
   maximum displ.:     0.1040150 α      in ANC's #171, #199, #38, ...

........................................................................
.............................. CYCLE    2 ..............................
........................................................................

 iter      E             dE          RMSdq      gap      omega  full diag
   1   -292.1678210 -0.292168E+03  0.310E-01    0.02       0.0  T
   2   -291.9467303  0.221091E+00  0.108E+00    0.04       1.0  T
   3   -292.1511889 -0.204459E+00  0.356E-01    0.03       1.0  T
   4   -292.0311758  0.120013E+00  0.802E-01    0.08       1.0  T
   5   -292.1308508 -0.996750E-01  0.393E-01    0.10       1.0  T
   6   -292.0762448  0.546060E-01  0.556E-01    0.14       1.0  T
   7   -292.1614901 -0.852453E-01  0.207E-01    0.05       1.0  T
   8   -292.1654988 -0.400867E-02  0.156E-01    0.03       1.0  T
   9   -292.1673357 -0.183691E-02  0.126E-01    0.02       1.0  T
  10   -292.1694313 -0.209563E-02  0.719E-02    0.02       1.0  T
  11   -292.1701301 -0.698772E-03  0.367E-02    0.02       1.0  T
  12   -292.1703277 -0.197605E-03  0.130E-02    0.02       1.0  T
  13   -292.1703697 -0.420525E-04  0.463E-03    0.02       2.1  T
  14   -292.1703721 -0.240707E-05  0.264E-03    0.02       3.6  T
  15   -292.1703734 -0.122988E-05  0.126E-03    0.02       7.6  T
  16   -292.1703736 -0.196029E-06  0.731E-04    0.02      13.1  T
  17   -292.1703735  0.260927E-07  0.715E-04    0.02      13.4  T
     SCC iter.                  ...        0 min,  6.633 sec
     gradient                   ...        0 min,  0.052 sec
 * total energy  :  -289.8579420 Eh     change       -0.1467139E+00 Eh
   gradient norm :     0.2660457 Eh/α   predicted    -0.1178494E+00 ( -19.67%)
   displ. norm   :     0.6182293 α      lambda       -0.1282576E+00
   maximum displ.:     0.1253771 α      in ANC's #38, #171, #51, ...

........................................................................
.............................. CYCLE    3 ..............................
........................................................................

 iter      E             dE          RMSdq      gap      omega  full diag
   1   -292.2274540 -0.292227E+03  0.366E-01    0.00       0.0  T
   2   -292.1038464  0.123608E+00  0.757E-01    0.08       1.0  T
   3   -292.1510366 -0.471902E-01  0.570E-01    0.16       1.0  T
   4   -292.0501820  0.100855E+00  0.839E-01    0.15       1.0  T
   5   -292.2161424 -0.165960E+00  0.280E-01    0.02       1.0  T
   6   -292.1317969  0.843455E-01  0.646E-01    0.06       1.0  T
   7   -292.2154182 -0.836213E-01  0.260E-01    0.03       1.0  T
   8   -292.2261197 -0.107014E-01  0.143E-01    0.02       1.0  T
   9   -292.2297926 -0.367296E-02  0.598E-02    0.01       1.0  T
  10   -292.2303684 -0.575776E-03  0.216E-02    0.01       1.0  T
  11   -292.2303828 -0.144180E-04  0.192E-02    0.01       1.0  T
  12   -292.2304053 -0.225334E-04  0.114E-02    0.01       1.0  T
  13   -292.2304340 -0.286391E-04  0.700E-03    0.01       1.4  T
  14   -292.2304374 -0.346178E-05  0.491E-03    0.01       2.0  T
  15   -292.2304398 -0.235741E-05  0.386E-03    0.01       2.5  T
  16   -292.2304418 -0.203303E-05  0.166E-03    0.01       5.8  T
  17   -292.2304421 -0.304939E-06  0.926E-04    0.01      10.3  T
  18   -292.2304424 -0.213688E-06  0.272E-04    0.01      35.2  T
     SCC iter.                  ...        0 min,  7.414 sec
     gradient                   ...        0 min,  0.058 sec
 * total energy  :  -289.9484739 Eh     change       -0.9053188E-01 Eh
   gradient norm :     0.1015866 Eh/α   predicted    -0.8863930E-01 (  -2.09%)
   displ. norm   :     0.6817656 α      lambda       -0.5225568E-01
   maximum displ.:     0.2228996 α      in ANC's #38, #51, #43, ...

........................................................................
.............................. CYCLE    4 ..............................
........................................................................

 iter      E             dE          RMSdq      gap      omega  full diag
   1   -292.2356938 -0.292236E+03  0.290E-01    0.02       0.0  T
   2   -292.0585927  0.177101E+00  0.823E-01    0.14       1.0  T
   3   -292.1892847 -0.130692E+00  0.481E-01    0.07       1.0  T
   4   -292.2155695 -0.262849E-01  0.352E-01    0.02       1.0  T
   5   -291.9796907  0.235879E+00  0.122E+00    0.08       1.0  T
   6   -292.2232745 -0.243584E+00  0.256E-01    0.05       1.0  T
   7   -292.2336838 -0.104093E-01  0.172E-01    0.01       1.0  T
   8   -292.2363843 -0.270055E-02  0.117E-01    0.01       1.0  T
   9   -292.2392929 -0.290855E-02  0.437E-02    0.00       1.0  T
  10   -292.2391404  0.152524E-03  0.463E-02    0.00       1.0  T
  11   -292.2394082 -0.267878E-03  0.241E-02    0.00       1.0  T
  12   -292.2395340 -0.125747E-03  0.922E-03    0.00       1.0  T
  13   -292.2395162  0.178141E-04  0.110E-02    0.00       1.0  T
  14   -292.2395452 -0.290646E-04  0.484E-03    0.00       2.0  T
  15   -292.2395473 -0.207770E-05  0.307E-03    0.00       3.1  T
  16   -292.2395469  0.444853E-06  0.343E-03    0.00       2.8  T
  17   -292.2395487 -0.182124E-05  0.122E-03    0.00       7.8  T
  18   -292.2395489 -0.205673E-06  0.627E-04    0.00      15.3  T
  19   -292.2395490 -0.560327E-07  0.160E-04    0.00      59.9  T
     SCC iter.                  ...        0 min,  7.619 sec
     gradient                   ...        0 min,  0.058 sec
 * total energy  :  -289.9891993 Eh     change       -0.4072541E-01 Eh
   gradient norm :     0.0612983 Eh/α   predicted    -0.3827220E-01 (  -6.02%)
   displ. norm   :     0.7414133 α      lambda       -0.3212984E-01
   maximum displ.:     0.2610132 α      in ANC's #38, #27, #43, ...

........................................................................
.............................. CYCLE    5 ..............................
........................................................................

 iter      E             dE          RMSdq      gap      omega  full diag
   1   -292.2281429 -0.292228E+03  0.257E-01    0.03       0.0  T
   2   -292.0351836  0.192959E+00  0.841E-01    0.27       1.0  T
   3   -292.2161850 -0.181001E+00  0.334E-01    0.03       1.0  T
   4   -292.1587285  0.574565E-01  0.647E-01    0.03       1.0  T
   5   -292.1729541 -0.142256E-01  0.504E-01    0.09       1.0  T
   6   -292.2268629 -0.539088E-01  0.185E-01    0.01       1.0  T
   7   -292.2263057  0.557184E-03  0.184E-01    0.01       1.0  T
   8   -292.2305354 -0.422965E-02  0.119E-01    0.01       1.0  T
   9   -292.2315819 -0.104649E-02  0.850E-02    0.01       1.0  T
  10   -292.2327872 -0.120533E-02  0.175E-02    0.01       1.0  T
  11   -292.2327347  0.524987E-04  0.200E-02    0.01       1.0  T
  12   -292.2328004 -0.657344E-04  0.101E-02    0.01       1.0  T
  13   -292.2328099 -0.943354E-05  0.622E-03    0.01       1.5  T
  14   -292.2328130 -0.318263E-05  0.529E-03    0.01       1.8  T
  15   -292.2328197 -0.661774E-05  0.268E-03    0.01       3.6  T
  16   -292.2328177  0.199691E-05  0.364E-03    0.01       2.6  T
  17   -292.2328208 -0.311663E-05  0.108E-03    0.01       8.9  T
  18   -292.2328210 -0.179327E-06  0.699E-04    0.01      13.7  T
  19   -292.2328211 -0.117490E-06  0.837E-05    0.01     114.5  T
     SCC iter.                  ...        0 min,  7.528 sec
     gradient                   ...        0 min,  0.056 sec
 * total energy  :  -290.0155689 Eh     change       -0.2636959E-01 Eh
   gradient norm :     0.0449835 Eh/α   predicted    -0.2489571E-01 (  -5.59%)
   displ. norm   :     0.7757579 α      lambda       -0.2266884E-01
   maximum displ.:     0.2700263 α      in ANC's #38, #27, #31, ...

........................................................................
.............................. CYCLE    6 ..............................
........................................................................

 iter      E             dE          RMSdq      gap      omega  full diag
   1   -292.2249628 -0.292225E+03  0.234E-01    0.03       0.0  T
   2   -292.0648655  0.160097E+00  0.776E-01    0.34       1.0  T
   3   -292.2045740 -0.139708E+00  0.350E-01    0.03       1.0  T
   4   -292.0960743  0.108500E+00  0.837E-01    0.03       1.0  T
   5   -292.1289891 -0.329148E-01  0.724E-01    0.07       1.0  T
   6   -292.2090036 -0.800145E-01  0.289E-01    0.04       1.0  T
   7   -292.2190089 -0.100053E-01  0.227E-01    0.01       1.0  T
   8   -292.2223882 -0.337937E-02  0.179E-01    0.02       1.0  T
   9   -292.2263085 -0.392024E-02  0.115E-01    0.01       1.0  T
  10   -292.2279147 -0.160623E-02  0.749E-02    0.01       1.0  T
  11   -292.2288377 -0.922989E-03  0.203E-02    0.01       1.0  T
  12   -292.2289038 -0.661261E-04  0.117E-02    0.01       1.0  T
  13   -292.2289331 -0.292910E-04  0.444E-03    0.01       2.2  T
  14   -292.2289368 -0.369850E-05  0.203E-03    0.01       4.7  T
  15   -292.2289368  0.588580E-07  0.206E-03    0.01       4.6  T
  16   -292.2289374 -0.632453E-06  0.913E-04    0.01      10.5  T
  17   -292.2289376 -0.198106E-06  0.430E-04    0.01      22.3  T
     SCC iter.                  ...        0 min,  6.140 sec
     gradient                   ...        0 min,  0.058 sec
 * total energy  :  -290.0347417 Eh     change       -0.1917278E-01 Eh
   gradient norm :     0.0346576 Eh/α   predicted    -0.1815548E-01 (  -5.31%)
   displ. norm   :     0.7965356 α      lambda       -0.1710823E-01
   maximum displ.:     0.2684387 α      in ANC's #27, #38, #23, ...

........................................................................
.............................. CYCLE    7 ..............................
........................................................................

 iter      E             dE          RMSdq      gap      omega  full diag
   1   -292.2233905 -0.292223E+03  0.225E-01    0.02       0.0  T
   2   -292.1163537  0.107037E+00  0.676E-01    0.27       1.0  T
   3   -292.1832084 -0.668547E-01  0.409E-01    0.10       1.0  T
   4   -292.1031678  0.800406E-01  0.729E-01    0.04       1.0  T
   5   -292.2094159 -0.106248E+00  0.334E-01    0.03       1.0  T
   6   -292.2115341 -0.211817E-02  0.276E-01    0.01       1.0  T
   7   -292.2185827 -0.704865E-02  0.192E-01    0.03       1.0  T
   8   -292.2240352 -0.545249E-02  0.113E-01    0.02       1.0  T
   9   -292.2263708 -0.233555E-02  0.610E-02    0.01       1.0  T
  10   -292.2266816 -0.310793E-03  0.372E-02    0.02       1.0  T
  11   -292.2269840 -0.302457E-03  0.109E-02    0.01       1.0  T
  12   -292.2269825  0.148981E-05  0.107E-02    0.01       1.0  T
  13   -292.2270067 -0.241265E-04  0.197E-03    0.01       4.9  T
  14   -292.2270064  0.259805E-06  0.224E-03    0.01       4.3  T
  15   -292.2270074 -0.997770E-06  0.855E-04    0.01      11.2  T
  16   -292.2270075 -0.853503E-07  0.573E-04    0.01      16.7  T
     SCC iter.                  ...        0 min,  5.539 sec
     gradient                   ...        0 min,  0.048 sec
 * total energy  :  -290.0493887 Eh     change       -0.1464699E-01 Eh
   gradient norm :     0.0267406 Eh/α   predicted    -0.1398145E-01 (  -4.54%)
   displ. norm   :     0.8055732 α      lambda       -0.1310223E-01
   maximum displ.:     0.2652489 α      in ANC's #23, #27, #31, ...

........................................................................
.............................. CYCLE    8 ..............................
........................................................................

 iter      E             dE          RMSdq      gap      omega  full diag
   1   -292.2225946 -0.292223E+03  0.218E-01    0.02       0.0  T
   2   -292.1319242  0.906703E-01  0.636E-01    0.16       1.0  T
   3   -292.1094156  0.225087E-01  0.669E-01    0.12       1.0  T
   4   -292.1956256 -0.862100E-01  0.341E-01    0.04       1.0  T
   5   -292.1714396  0.241860E-01  0.458E-01    0.12       1.0  T
   6   -292.2228668 -0.514272E-01  0.120E-01    0.03       1.0  T
   7   -292.2217291  0.113770E-02  0.148E-01    0.03       1.0  T
   8   -292.2250745 -0.334543E-02  0.708E-02    0.01       1.0  T
   9   -292.2262325 -0.115801E-02  0.174E-02    0.01       1.0  T
  10   -292.2262503 -0.177041E-04  0.146E-02    0.01       1.0  T
  11   -292.2262462  0.403104E-05  0.148E-02    0.01       1.0  T
  12   -292.2262808 -0.346264E-04  0.547E-03    0.01       1.8  T
  13   -292.2262856 -0.476570E-05  0.272E-03    0.01       3.5  T
  14   -292.2262868 -0.119858E-05  0.144E-03    0.01       6.7  T
  15   -292.2262871 -0.254130E-06  0.897E-04    0.01      10.7  T
  16   -292.2262871 -0.190317E-07  0.800E-04    0.01      12.0  T
     SCC iter.                  ...        0 min,  5.660 sec
     gradient                   ...        0 min,  0.061 sec
 * total energy  :  -290.0606534 Eh     change       -0.1126474E-01 Eh
   gradient norm :     0.0221341 Eh/α   predicted    -0.1080246E-01 (  -4.10%)
   displ. norm   :     0.8053119 α      lambda       -0.1015435E-01
   maximum displ.:     0.2810161 α      in ANC's #23, #31, #7, ...

........................................................................
.............................. CYCLE    9 ..............................
........................................................................

 iter      E             dE          RMSdq      gap      omega  full diag
   1   -292.2237145 -0.292224E+03  0.194E-01    0.02       0.0  T
   2   -292.1618730  0.618415E-01  0.544E-01    0.07       1.0  T
   3   -292.1063212  0.555518E-01  0.686E-01    0.11       1.0  T
   4   -292.2058459 -0.995247E-01  0.285E-01    0.03       1.0  T
   5   -292.1658581  0.399878E-01  0.476E-01    0.14       1.0  T
   6   -292.2246122 -0.587541E-01  0.966E-02    0.02       1.0  T
   7   -292.2234967  0.111558E-02  0.129E-01    0.02       1.0  T
   8   -292.2253708 -0.187409E-02  0.630E-02    0.01       1.0  T
   9   -292.2262556 -0.884889E-03  0.243E-02    0.01       1.0  T
  10   -292.2263343 -0.786874E-04  0.170E-02    0.01       1.0  T
  11   -292.2263515 -0.171759E-04  0.104E-02    0.01       1.0  T
  12   -292.2263597 -0.816481E-05  0.760E-03    0.01       1.3  T
  13   -292.2263695 -0.980315E-05  0.277E-03    0.01       3.5  T
  14   -292.2263708 -0.131572E-05  0.105E-03    0.01       9.1  T
  15   -292.2263709 -0.149407E-06  0.674E-04    0.01      14.2  T
  16   -292.2263710 -0.653875E-07  0.302E-04    0.01      31.7  T
     SCC iter.                  ...        0 min,  6.060 sec
     gradient                   ...        0 min,  0.059 sec
 * total energy  :  -290.0694439 Eh     change       -0.8790487E-02 Eh
   gradient norm :     0.0202757 Eh/α   predicted    -0.8369871E-02 (  -4.78%)
   displ. norm   :     0.8043002 α      lambda       -0.8161042E-02
   maximum displ.:     0.2848279 α      in ANC's #23, #7, #31, ...

........................................................................
.............................. CYCLE   10 ..............................
........................................................................

 iter      E             dE          RMSdq      gap      omega  full diag
   1   -292.2272216 -0.292227E+03  0.157E-01    0.02       0.0  T
   2   -292.1982951  0.289265E-01  0.399E-01    0.02       1.0  T
   3   -292.2041158 -0.582070E-02  0.307E-01    0.05       1.0  T
   4   -292.1045871  0.995287E-01  0.665E-01    0.09       1.0  T
   5   -292.1925540 -0.879669E-01  0.393E-01    0.06       1.0  T
   6   -292.2176868 -0.251328E-01  0.224E-01    0.01       1.0  T
   7   -292.2221853 -0.449846E-02  0.169E-01    0.01       1.0  T
   8   -292.2264921 -0.430681E-02  0.886E-02    0.01       1.0  T
   9   -292.2279185 -0.142635E-02  0.256E-02    0.01       1.0  T
  10   -292.2280450 -0.126502E-03  0.130E-02    0.02       1.0  T
  11   -292.2280277  0.172438E-04  0.144E-02    0.02       1.0  T
  12   -292.2280690 -0.412911E-04  0.341E-03    0.02       2.8  T
  13   -292.2280702 -0.115154E-05  0.261E-03    0.02       3.7  T
  14   -292.2280715 -0.130855E-05  0.107E-03    0.02       9.0  T
  15   -292.2280717 -0.196695E-06  0.262E-04    0.02      36.6  T
  16   -292.2280716  0.290877E-07  0.445E-04    0.02      21.5  T
     SCC iter.                  ...        0 min,  6.347 sec
     gradient                   ...        0 min,  0.063 sec
 * total energy  :  -290.0765508 Eh     change       -0.7106853E-02 Eh
   gradient norm :     0.0190814 Eh/α   predicted    -0.6720213E-02 (  -5.44%)
   displ. norm   :     0.8016388 α      lambda       -0.6749208E-02
   maximum displ.:     0.2990009 α      in ANC's #7, #23, #31, ...

........................................................................
.............................. CYCLE   11 ..............................
........................................................................

 iter      E             dE          RMSdq      gap      omega  full diag
   1   -292.2306641 -0.292231E+03  0.136E-01    0.02       0.0  T
   2   -292.2160933  0.145708E-01  0.273E-01    0.03       1.0  T
   3   -292.2120659  0.402738E-02  0.279E-01    0.02       1.0  T
   4   -292.1345749  0.774910E-01  0.623E-01    0.15       1.0  T
   5   -292.2131664 -0.785915E-01  0.279E-01    0.04       1.0  T
   6   -292.2217887 -0.862224E-02  0.214E-01    0.01       1.0  T
   7   -292.2284014 -0.661270E-02  0.110E-01    0.02       1.0  T
   8   -292.2297581 -0.135670E-02  0.731E-02    0.02       1.0  T
   9   -292.2305468 -0.788739E-03  0.343E-02    0.01       1.0  T
  10   -292.2307573 -0.210512E-03  0.127E-02    0.02       1.0  T
  11   -292.2307876 -0.302473E-04  0.639E-03    0.02       1.5  T
  12   -292.2307944 -0.686461E-05  0.263E-03    0.02       3.6  T
  13   -292.2307957 -0.124339E-05  0.120E-03    0.02       8.0  T
  14   -292.2307960 -0.310162E-06  0.767E-04    0.02      12.5  T
  15   -292.2307961 -0.799963E-07  0.357E-04    0.02      26.8  T
     SCC iter.                  ...        0 min,  5.733 sec
     gradient                   ...        0 min,  0.059 sec
 * total energy  :  -290.0824512 Eh     change       -0.5900422E-02 Eh
   gradient norm :     0.0181590 Eh/α   predicted    -0.5543213E-02 (  -6.05%)
   displ. norm   :     0.7979605 α      lambda       -0.5726153E-02
   maximum displ.:     0.3136452 α      in ANC's #7, #23, #25, ...

........................................................................
.............................. CYCLE   12 ..............................
........................................................................

 iter      E             dE          RMSdq      gap      omega  full diag
   1   -292.2337786 -0.292234E+03  0.141E-01    0.02       0.0  T
   2   -292.0077084  0.226070E+00  0.109E+00    0.07       1.0  T
   3   -292.2297027 -0.221994E+00  0.161E-01    0.03       1.0  T
   4   -292.0923381  0.137365E+00  0.705E-01    0.12       1.0  T
   5   -292.2232190 -0.130881E+00  0.225E-01    0.04       1.0  T
   6   -292.2305284 -0.730945E-02  0.125E-01    0.01       1.0  T
   7   -292.2332139 -0.268549E-02  0.772E-02    0.01       1.0  T
   8   -292.2342472 -0.103332E-02  0.334E-02    0.02       1.0  T
   9   -292.2344070 -0.159744E-03  0.205E-02    0.02       1.0  T
  10   -292.2344777 -0.707759E-04  0.568E-03    0.02       1.7  T
  11   -292.2344759  0.183935E-05  0.547E-03    0.02       1.8  T
  12   -292.2344795 -0.356541E-05  0.321E-03    0.02       3.0  T
  13   -292.2344808 -0.138532E-05  0.190E-03    0.02       5.1  T
  14   -292.2344817 -0.872648E-06  0.367E-04    0.02      26.1  T
  15   -292.2344817 -0.925928E-08  0.238E-04    0.02      40.3  T
     SCC iter.                  ...        0 min,  5.505 sec
     gradient                   ...        0 min,  0.055 sec
 * total energy  :  -290.0874763 Eh     change       -0.5025091E-02 Eh
   gradient norm :     0.0173128 Eh/α   predicted    -0.4686117E-02 (  -6.75%)
   displ. norm   :     0.7956736 α      lambda       -0.4971627E-02
   maximum displ.:     0.3222082 α      in ANC's #7, #10, #8, ...

........................................................................
.............................. CYCLE   13 ..............................
........................................................................

 iter      E             dE          RMSdq      gap      omega  full diag
   1   -292.2371947 -0.292237E+03  0.153E-01    0.02       0.0  T
   2   -291.9003692  0.336826E+00  0.135E+00    0.16       1.0  T
   3   -292.2327920 -0.332423E+00  0.156E-01    0.04       1.0  T
   4   -292.1201040  0.112688E+00  0.635E-01    0.12       1.0  T
   5   -292.2094589 -0.893549E-01  0.398E-01    0.03       1.0  T
   6   -292.2349449 -0.254860E-01  0.124E-01    0.01       1.0  T
   7   -292.2385313 -0.358644E-02  0.370E-02    0.02       1.0  T
   8   -292.2386423 -0.111015E-03  0.287E-02    0.02       1.0  T
   9   -292.2387688 -0.126448E-03  0.138E-02    0.02       1.0  T
  10   -292.2388008 -0.320552E-04  0.605E-03    0.02       1.6  T
  11   -292.2388063 -0.547346E-05  0.266E-03    0.02       3.6  T
  12   -292.2388074 -0.108713E-05  0.106E-03    0.02       9.1  T
  13   -292.2388074 -0.448674E-07  0.673E-04    0.02      14.2  T
  14   -292.2388073  0.939366E-07  0.794E-04    0.02      12.1  T
     SCC iter.                  ...        0 min,  5.002 sec
     gradient                   ...        0 min,  0.050 sec
 * total energy  :  -290.0918481 Eh     change       -0.4371780E-02 Eh
   gradient norm :     0.0164172 Eh/α   predicted    -0.4059577E-02 (  -7.14%)
   displ. norm   :     0.7964536 α      lambda       -0.4367257E-02
   maximum displ.:     0.3229809 α      in ANC's #7, #10, #8, ...

........................................................................
.............................. CYCLE   14 ..............................
........................................................................

 iter      E             dE          RMSdq      gap      omega  full diag
   1   -292.2417796 -0.292242E+03  0.157E-01    0.02       0.0  T
   2   -291.9107033  0.331076E+00  0.136E+00    0.20       1.0  T
   3   -292.2380275 -0.327324E+00  0.154E-01    0.04       1.0  T
   4   -292.1466374  0.913901E-01  0.580E-01    0.10       1.0  T
   5   -292.1730612 -0.264238E-01  0.587E-01    0.07       1.0  T
   6   -292.2381618 -0.651006E-01  0.154E-01    0.01       1.0  T
   7   -292.2431524 -0.499057E-02  0.547E-02    0.02       1.0  T
   8   -292.2435808 -0.428418E-03  0.289E-02    0.02       1.0  T
   9   -292.2436885 -0.107712E-03  0.163E-02    0.02       1.0  T
  10   -292.2437286 -0.400593E-04  0.863E-03    0.02       1.1  T
  11   -292.2437410 -0.124811E-04  0.235E-03    0.02       4.1  T
  12   -292.2437417 -0.680372E-06  0.140E-03    0.02       6.8  T
  13   -292.2437419 -0.197848E-06  0.731E-04    0.02      13.1  T
  14   -292.2437419  0.100854E-07  0.671E-04    0.02      14.3  T
     SCC iter.                  ...        0 min,  5.157 sec
     gradient                   ...        0 min,  0.059 sec
 * total energy  :  -290.0956975 Eh     change       -0.3849450E-02 Eh
   gradient norm :     0.0155250 Eh/α   predicted    -0.3568793E-02 (  -7.29%)
   displ. norm   :     0.7999528 α      lambda       -0.3868995E-02
   maximum displ.:     0.3226402 α      in ANC's #7, #10, #8, ...

........................................................................
.............................. CYCLE   15 ..............................
........................................................................

 iter      E             dE          RMSdq      gap      omega  full diag
   1   -292.2472791 -0.292247E+03  0.145E-01    0.02       0.0  T
   2   -291.9686323  0.278647E+00  0.126E+00    0.18       1.0  T
   3   -292.2433348 -0.274703E+00  0.154E-01    0.04       1.0  T
   4   -292.1739648  0.693700E-01  0.520E-01    0.08       1.0  T
   5   -292.1655674  0.839738E-02  0.596E-01    0.08       1.0  T
   6   -292.2443449 -0.787775E-01  0.138E-01    0.02       1.0  T
   7   -292.2480835 -0.373854E-02  0.593E-02    0.02       1.0  T
   8   -292.2485119 -0.428418E-03  0.342E-02    0.02       1.0  T
   9   -292.2487012 -0.189347E-03  0.156E-02    0.02       1.0  T
  10   -292.2487373 -0.361024E-04  0.813E-03    0.02       1.2  T
  11   -292.2487449 -0.759211E-05  0.381E-03    0.02       2.5  T
  12   -292.2487474 -0.249230E-05  0.217E-03    0.02       4.4  T
  13   -292.2487485 -0.111722E-05  0.422E-04    0.02      22.7  T
  14   -292.2487485  0.203991E-07  0.410E-04    0.02      23.4  T
  15   -292.2487486 -0.270754E-07  0.245E-04    0.02      39.0  T
     SCC iter.                  ...        0 min,  5.442 sec
     gradient                   ...        0 min,  0.058 sec
 * total energy  :  -290.0991156 Eh     change       -0.3418057E-02 Eh
   gradient norm :     0.0141774 Eh/α   predicted    -0.3172442E-02 (  -7.19%)
   displ. norm   :     0.8049235 α      lambda       -0.3438858E-02
   maximum displ.:     0.3289264 α      in ANC's #10, #7, #8, ...

........................................................................
.............................. CYCLE   16 ..............................
........................................................................

 iter      E             dE          RMSdq      gap      omega  full diag
   1   -292.2527223 -0.292253E+03  0.125E-01    0.02       0.0  T
   2   -292.0792928  0.173430E+00  0.980E-01    0.09       1.0  T
   3   -292.2452629 -0.165970E+00  0.193E-01    0.03       1.0  T
   4   -292.2235679  0.216950E-01  0.357E-01    0.04       1.0  T
   5   -292.1742380  0.493299E-01  0.529E-01    0.11       1.0  T
   6   -292.2509618 -0.767238E-01  0.105E-01    0.02       1.0  T
   7   -292.2525693 -0.160756E-02  0.635E-02    0.03       1.0  T
   8   -292.2530748 -0.505487E-03  0.411E-02    0.02       1.0  T
   9   -292.2533952 -0.320431E-03  0.152E-02    0.02       1.0  T
  10   -292.2534271 -0.318883E-04  0.695E-03    0.02       1.4  T
  11   -292.2534379 -0.107463E-04  0.214E-03    0.02       4.5  T
  12   -292.2534380 -0.113185E-06  0.210E-03    0.02       4.6  T
  13   -292.2534389 -0.907106E-06  0.352E-04    0.02      27.2  T
  14   -292.2534389  0.417965E-07  0.457E-04    0.02      20.9  T
     SCC iter.                  ...        0 min,  5.093 sec
     gradient                   ...        0 min,  0.055 sec
 * total energy  :  -290.1021564 Eh     change       -0.3040876E-02 Eh
   gradient norm :     0.0127558 Eh/α   predicted    -0.2833451E-02 (  -6.82%)
   displ. norm   :     0.8072075 α      lambda       -0.3048029E-02
   maximum displ.:     0.3545163 α      in ANC's #10, #7, #12, ...

........................................................................
.............................. CYCLE   17 ..............................
........................................................................

 iter      E             dE          RMSdq      gap      omega  full diag
   1   -292.2566178 -0.292257E+03  0.110E-01    0.03       0.0  T
   2   -292.2142471  0.423708E-01  0.406E-01    0.03       1.0  T
   3   -292.2341856 -0.199385E-01  0.283E-01    0.08       1.0  T
   4   -292.2388723 -0.468677E-02  0.279E-01    0.04       1.0  T
   5   -292.2087813  0.300910E-01  0.496E-01    0.05       1.0  T
   6   -292.2552878 -0.465065E-01  0.895E-02    0.03       1.0  T
   7   -292.2564653 -0.117748E-02  0.500E-02    0.03       1.0  T
   8   -292.2568787 -0.413338E-03  0.235E-02    0.03       1.0  T
   9   -292.2570036 -0.124918E-03  0.689E-03    0.03       1.4  T
  10   -292.2570037 -0.102894E-06  0.587E-03    0.03       1.6  T
  11   -292.2570074 -0.369663E-05  0.412E-03    0.03       2.3  T
  12   -292.2570112 -0.378224E-05  0.199E-03    0.03       4.8  T
  13   -292.2570120 -0.808256E-06  0.443E-04    0.03      21.6  T
  14   -292.2570120 -0.228403E-07  0.320E-04    0.03      29.9  T
     SCC iter.                  ...        0 min,  4.918 sec
     gradient                   ...        0 min,  0.058 sec
 * total energy  :  -290.1048517 Eh     change       -0.2695285E-02 Eh
   gradient norm :     0.0122753 Eh/α   predicted    -0.2517040E-02 (  -6.61%)
   displ. norm   :     0.8024263 α      lambda       -0.2718665E-02
   maximum displ.:     0.3744188 α      in ANC's #10, #7, #12, ...

........................................................................
.............................. CYCLE   18 ..............................
........................................................................

 iter      E             dE          RMSdq      gap      omega  full diag
   1   -292.2587639 -0.292259E+03  0.107E-01    0.03       0.0  T
   2   -292.2068624  0.519015E-01  0.455E-01    0.08       1.0  T
   3   -292.2453345 -0.384721E-01  0.225E-01    0.07       1.0  T
   4   -292.2218334  0.235011E-01  0.386E-01    0.02       1.0  T
   5   -292.2354120 -0.135786E-01  0.352E-01    0.05       1.0  T
   6   -292.2579345 -0.225225E-01  0.777E-02    0.02       1.0  T
   7   -292.2584626 -0.528163E-03  0.606E-02    0.03       1.0  T
   8   -292.2591213 -0.658732E-03  0.228E-02    0.03       1.0  T
   9   -292.2592528 -0.131447E-03  0.683E-03    0.03       1.4  T
  10   -292.2592563 -0.355404E-05  0.436E-03    0.03       2.2  T
  11   -292.2592595 -0.312094E-05  0.193E-03    0.03       5.0  T
  12   -292.2592586  0.874677E-06  0.271E-03    0.03       3.5  T
  13   -292.2592601 -0.152970E-05  0.461E-04    0.03      20.8  T
  14   -292.2592601 -0.998944E-08  0.327E-04    0.03      29.3  T
  15   -292.2592601 -0.690233E-08  0.252E-04    0.03      38.0  T
     SCC iter.                  ...        0 min,  5.400 sec
     gradient                   ...        0 min,  0.054 sec
 * total energy  :  -290.1072577 Eh     change       -0.2406017E-02 Eh
   gradient norm :     0.0126214 Eh/α   predicted    -0.2234602E-02 (  -7.12%)
   displ. norm   :     0.7950703 α      lambda       -0.2490991E-02
   maximum displ.:     0.3904855 α      in ANC's #10, #7, #12, ...

........................................................................
.............................. CYCLE   19 ..............................
........................................................................

 iter      E             dE          RMSdq      gap      omega  full diag
   1   -292.2606291 -0.292261E+03  0.111E-01    0.03       0.0  T
   2   -292.1863122  0.743169E-01  0.548E-01    0.12       1.0  T
   3   -292.2475611 -0.612489E-01  0.223E-01    0.06       1.0  T
   4   -292.2231234  0.244377E-01  0.401E-01    0.01       1.0  T
   5   -292.2299089 -0.678546E-02  0.394E-01    0.05       1.0  T
   6   -292.2601878 -0.302789E-01  0.778E-02    0.03       1.0  T
   7   -292.2606662 -0.478446E-03  0.590E-02    0.03       1.0  T
   8   -292.2613550 -0.688806E-03  0.189E-02    0.03       1.0  T
   9   -292.2614403 -0.852824E-04  0.630E-03    0.03       1.5  T
  10   -292.2614434 -0.310749E-05  0.372E-03    0.03       2.6  T
  11   -292.2614400  0.339804E-05  0.561E-03    0.03       1.7  T
  12   -292.2614452 -0.517761E-05  0.230E-03    0.03       4.2  T
  13   -292.2614461 -0.921080E-06  0.775E-04    0.03      12.4  T
  14   -292.2614462 -0.105247E-06  0.321E-04    0.03      29.8  T
     SCC iter.                  ...        0 min,  5.093 sec
     gradient                   ...        0 min,  0.060 sec
 * total energy  :  -290.1094629 Eh     change       -0.2205125E-02 Eh
   gradient norm :     0.0126665 Eh/α   predicted    -0.2032819E-02 (  -7.81%)
   displ. norm   :     0.7948698 α      lambda       -0.2343952E-02
   maximum displ.:     0.3973157 α      in ANC's #10, #7, #11, ...

........................................................................
.............................. CYCLE   20 ..............................
........................................................................

 iter      E             dE          RMSdq      gap      omega  full diag
   1   -292.2616233 -0.292262E+03  0.102E-01    0.03       0.0  T
   2   -292.1986966  0.629268E-01  0.505E-01    0.10       1.0  T
   3   -292.2528130 -0.541164E-01  0.184E-01    0.06       1.0  T
   4   -292.2115607  0.412523E-01  0.465E-01    0.01       1.0  T
   5   -292.2476149 -0.360542E-01  0.265E-01    0.04       1.0  T
   6   -292.2609419 -0.133270E-01  0.750E-02    0.03       1.0  T
   7   -292.2614733 -0.531391E-03  0.572E-02    0.03       1.0  T
   8   -292.2620638 -0.590553E-03  0.199E-02    0.03       1.0  T
   9   -292.2621393 -0.754671E-04  0.541E-03    0.03       1.8  T
  10   -292.2621415 -0.218757E-05  0.375E-03    0.03       2.6  T
  11   -292.2621408  0.643782E-06  0.450E-03    0.03       2.1  T
  12   -292.2621436 -0.274335E-05  0.232E-03    0.03       4.1  T
  13   -292.2621444 -0.855928E-06  0.867E-04    0.03      11.0  T
  14   -292.2621446 -0.149120E-06  0.411E-04    0.03      23.3  T
     SCC iter.                  ...        0 min,  5.040 sec
     gradient                   ...        0 min,  0.061 sec
 * total energy  :  -290.1115169 Eh     change       -0.2054006E-02 Eh
   gradient norm :     0.0127757 Eh/α   predicted    -0.1912454E-02 (  -6.89%)
   displ. norm   :     0.8036095 α      lambda       -0.2218001E-02
   maximum displ.:     0.3855841 α      in ANC's #10, #7, #11, ...
 * RMSD in coord.:     1.1250216 α      energy gain  -0.4002888E+00 Eh

generating ANC from exact Hessian ...
Using Lindh-Hessian (1995)
 Shifting diagonal of input Hessian by    9.9731478785665267E-003
 Lowest  eigenvalues of input Hessian
    0.000000    0.000000    0.000000    0.000000    0.000000    0.000000
    0.010000    0.010083    0.010243    0.010328    0.010481    0.010616
    0.010807    0.010946    0.011087    0.011267    0.011502    0.011822
 Highest eigenvalues
    2.262163    2.265716    2.274250    2.309546    2.351023    2.360815


........................................................................
.............................. CYCLE   21 ..............................
........................................................................

 iter      E             dE          RMSdq      gap      omega  full diag
   1   -292.2646983 -0.292265E+03  0.103E-01    0.04       0.0  T
   2   -292.1769492  0.877491E-01  0.572E-01    0.15       1.0  T
   3   -292.2576041 -0.806549E-01  0.174E-01    0.05       1.0  T
   4   -292.2242859  0.333182E-01  0.443E-01    0.02       1.0  T
   5   -292.2612697 -0.369838E-01  0.145E-01    0.04       1.0  T
   6   -292.2633420 -0.207235E-02  0.974E-02    0.03       1.0  T
   7   -292.2647391 -0.139709E-02  0.596E-02    0.03       1.0  T
   8   -292.2653331 -0.594001E-03  0.243E-02    0.03       1.0  T
   9   -292.2654380 -0.104832E-03  0.802E-03    0.03       1.2  T
  10   -292.2654491 -0.111821E-04  0.355E-03    0.03       2.7  T
  11   -292.2654470  0.213428E-05  0.480E-03    0.03       2.0  T
  12   -292.2654508 -0.375971E-05  0.190E-03    0.03       5.0  T
  13   -292.2654515 -0.729585E-06  0.551E-04    0.03      17.4  T
  14   -292.2654516 -0.541151E-07  0.287E-04    0.03      33.4  T
     SCC iter.                  ...        0 min,  5.157 sec
     gradient                   ...        0 min,  0.059 sec
 * total energy  :  -290.1134292 Eh     change       -0.1912298E-02 Eh
   gradient norm :     0.0132829 Eh/α   predicted     0.0000000E+00 (-100.00%)
   displ. norm   :     0.2181522 α      lambda       -0.8614254E-03
   maximum displ.:     0.0878244 α      in ANC's #8, #6, #9, ...

........................................................................
.............................. CYCLE   22 ..............................
........................................................................

 iter      E             dE          RMSdq      gap      omega  full diag
   1   -292.2669976 -0.292267E+03  0.292E-02    0.03       0.0  T
   2   -292.2598299  0.716778E-02  0.173E-01    0.02       1.0  T
   3   -292.2665323 -0.670243E-02  0.434E-02    0.04       1.0  T
   4   -292.2567872  0.974506E-02  0.199E-01    0.03       1.0  T
   5   -292.2669677 -0.101805E-01  0.166E-02    0.03       1.0  T
   6   -292.2670021 -0.344494E-04  0.103E-02    0.03       1.0  T
   7   -292.2669713  0.307946E-04  0.153E-02    0.03       1.0  T
   8   -292.2670173 -0.459316E-04  0.580E-03    0.03       1.7  T
   9   -292.2670236 -0.638317E-05  0.186E-03    0.03       5.1  T
  10   -292.2670243 -0.648480E-06  0.724E-04    0.03      13.2  T
  11   -292.2670244 -0.759330E-07  0.295E-04    0.03      32.4  T
     SCC iter.                  ...        0 min,  4.169 sec
     gradient                   ...        0 min,  0.059 sec
 * total energy  :  -290.1142054 Eh     change       -0.7762623E-03 Eh
   gradient norm :     0.0082869 Eh/α   predicted    -0.4512203E-03 ( -41.87%)
   displ. norm   :     0.7019970 α      lambda       -0.2203030E-02
   maximum displ.:     0.2879380 α      in ANC's #8, #6, #15, ...

........................................................................
.............................. CYCLE   23 ..............................
........................................................................

 iter      E             dE          RMSdq      gap      omega  full diag
   1   -292.2693011 -0.292269E+03  0.752E-02    0.04       0.0  T
   2   -292.2241291  0.451719E-01  0.412E-01    0.03       1.0  T
   3   -292.2674143 -0.432852E-01  0.906E-02    0.04       1.0  T
   4   -292.2334351  0.339792E-01  0.384E-01    0.06       1.0  T
   5   -292.2685851 -0.351499E-01  0.626E-02    0.03       1.0  T
   6   -292.2685215  0.636011E-04  0.648E-02    0.03       1.0  T
   7   -292.2692658 -0.744325E-03  0.306E-02    0.03       1.0  T
   8   -292.2694206 -0.154799E-03  0.131E-02    0.03       1.0  T
   9   -292.2694460 -0.254190E-04  0.665E-03    0.03       1.4  T
  10   -292.2694544 -0.835155E-05  0.307E-03    0.03       3.1  T
  11   -292.2694560 -0.164896E-05  0.837E-04    0.03      11.4  T
  12   -292.2694558  0.156916E-06  0.116E-03    0.03       8.2  T
  13   -292.2694561 -0.221882E-06  0.426E-04    0.03      22.5  T
  14   -292.2694561 -0.412667E-07  0.193E-04    0.03      49.5  T
     SCC iter.                  ...        0 min,  5.396 sec
     gradient                   ...        0 min,  0.055 sec
 * total energy  :  -290.1160354 Eh     change       -0.1829939E-02 Eh
   gradient norm :     0.0088222 Eh/α   predicted    -0.1644341E-02 ( -10.14%)
   displ. norm   :     0.7625763 α      lambda       -0.1826287E-02
   maximum displ.:     0.3179996 α      in ANC's #8, #6, #15, ...

........................................................................
.............................. CYCLE   24 ..............................
........................................................................

 iter      E             dE          RMSdq      gap      omega  full diag
   1   -292.2696745 -0.292270E+03  0.737E-02    0.04       0.0  T
   2   -292.1976420  0.720325E-01  0.501E-01    0.09       1.0  T
   3   -292.2691083 -0.714662E-01  0.717E-02    0.04       1.0  T
   4   -292.2347713  0.343369E-01  0.415E-01    0.03       1.0  T
   5   -292.2636102 -0.288389E-01  0.176E-01    0.04       1.0  T
   6   -292.2693469 -0.573666E-02  0.534E-02    0.03       1.0  T
   7   -292.2698826 -0.535723E-03  0.224E-02    0.03       1.0  T
   8   -292.2699808 -0.982175E-04  0.628E-03    0.03       1.5  T
   9   -292.2699878 -0.700927E-05  0.239E-03    0.03       4.0  T
  10   -292.2699864  0.138304E-05  0.311E-03    0.03       3.1  T
  11   -292.2699886 -0.220766E-05  0.779E-04    0.03      12.3  T
  12   -292.2699887 -0.945171E-07  0.350E-04    0.03      27.4  T
  13   -292.2699887 -0.332972E-08  0.248E-04    0.03      38.6  T
     SCC iter.                  ...        0 min,  4.657 sec
     gradient                   ...        0 min,  0.057 sec
 * total energy  :  -290.1176845 Eh     change       -0.1649144E-02 Eh
   gradient norm :     0.0146326 Eh/α   predicted    -0.1444165E-02 ( -12.43%)
   displ. norm   :     0.8163886 α      lambda       -0.1925881E-02
   maximum displ.:     0.3450974 α      in ANC's #8, #6, #15, ...

........................................................................
.............................. CYCLE   25 ..............................
........................................................................

 iter      E             dE          RMSdq      gap      omega  full diag
   1   -292.2693466 -0.292269E+03  0.887E-02    0.04       0.0  T
   2   -292.1748146  0.945320E-01  0.592E-01    0.16       1.0  T
   3   -292.2645611 -0.897466E-01  0.157E-01    0.05       1.0  T
   4   -292.2596264  0.493478E-02  0.214E-01    0.02       1.0  T
   5   -292.2601513 -0.524973E-03  0.220E-01    0.04       1.0  T
   6   -292.2694371 -0.928572E-02  0.567E-02    0.04       1.0  T
   7   -292.2700100 -0.572928E-03  0.279E-02    0.04       1.0  T
   8   -292.2701934 -0.183379E-03  0.666E-03    0.04       1.4  T
   9   -292.2701972 -0.385398E-05  0.449E-03    0.03       2.1  T
  10   -292.2701977 -0.480905E-06  0.402E-03    0.04       2.4  T
  11   -292.2701993 -0.159110E-05  0.305E-03    0.04       3.1  T
  12   -292.2702019 -0.259678E-05  0.557E-04    0.03      17.2  T
  13   -292.2702019 -0.184932E-07  0.550E-04    0.03      17.4  T
  14   -292.2702020 -0.533132E-07  0.162E-04    0.03      59.1  T
     SCC iter.                  ...        0 min,  4.979 sec
     gradient                   ...        0 min,  0.055 sec
 * total energy  :  -290.1194536 Eh     change       -0.1769064E-02 Eh
   gradient norm :     0.0174224 Eh/α   predicted    -0.1604731E-02 (  -9.29%)
   displ. norm   :     0.7949000 α      lambda       -0.2074720E-02
   maximum displ.:     0.3486739 α      in ANC's #8, #6, #15, ...

........................................................................
.............................. CYCLE   26 ..............................
........................................................................

 iter      E             dE          RMSdq      gap      omega  full diag
   1   -292.2698421 -0.292270E+03  0.115E-01    0.04       0.0  T
   2   -292.1363257  0.133516E+00  0.698E-01    0.23       1.0  T
   3   -292.2551572 -0.118831E+00  0.250E-01    0.07       1.0  T
   4   -292.2633971 -0.823989E-02  0.184E-01    0.02       1.0  T
   5   -292.2637127 -0.315641E-03  0.198E-01    0.04       1.0  T
   6   -292.2704646 -0.675187E-02  0.758E-02    0.03       1.0  T
   7   -292.2716856 -0.122098E-02  0.218E-02    0.04       1.0  T
   8   -292.2715235  0.162098E-03  0.354E-02    0.04       1.0  T
   9   -292.2717879 -0.264456E-03  0.621E-03    0.04       1.5  T
  10   -292.2717890 -0.111864E-05  0.490E-03    0.04       2.0  T
  11   -292.2717922 -0.313640E-05  0.254E-03    0.04       3.8  T
  12   -292.2717935 -0.130696E-05  0.112E-03    0.04       8.6  T
  13   -292.2717936 -0.154131E-06  0.600E-04    0.04      16.0  T
  14   -292.2717936  0.510881E-07  0.734E-04    0.04      13.0  T
     SCC iter.                  ...        0 min,  5.282 sec
     gradient                   ...        0 min,  0.059 sec
 * total energy  :  -290.1213063 Eh     change       -0.1852693E-02 Eh
   gradient norm :     0.0171234 Eh/α   predicted    -0.1692837E-02 (  -8.63%)
   displ. norm   :     0.7364436 α      lambda       -0.2109041E-02
   maximum displ.:     0.3367271 α      in ANC's #8, #6, #4, ...

........................................................................
.............................. CYCLE   27 ..............................
........................................................................

 iter      E             dE          RMSdq      gap      omega  full diag
   1   -292.2718613 -0.292272E+03  0.149E-01    0.05       0.0  T
   2   -292.0740831  0.197778E+00  0.821E-01    0.28       1.0  T
   3   -292.2337055 -0.159622E+00  0.389E-01    0.12       1.0  T
   4   -292.2709697 -0.372643E-01  0.138E-01    0.03       1.0  T
   5   -292.2720945 -0.112477E-02  0.128E-01    0.04       1.0  T
   6   -292.2730553 -0.960836E-03  0.103E-01    0.03       1.0  T
   7   -292.2749337 -0.187837E-02  0.542E-02    0.03       1.0  T
   8   -292.2751518 -0.218039E-03  0.388E-02    0.04       1.0  T
   9   -292.2753561 -0.204359E-03  0.216E-02    0.04       1.0  T
  10   -292.2754557 -0.995597E-04  0.610E-03    0.04       1.6  T
  11   -292.2754594 -0.368185E-05  0.450E-03    0.04       2.1  T
  12   -292.2754619 -0.257615E-05  0.256E-03    0.04       3.7  T
  13   -292.2754627 -0.721095E-06  0.128E-03    0.04       7.5  T
  14   -292.2754628 -0.179699E-06  0.122E-03    0.04       7.8  T
  15   -292.2754631 -0.238383E-06  0.424E-04    0.04      22.6  T
  16   -292.2754631 -0.450222E-07  0.167E-04    0.04      57.5  T
     SCC iter.                  ...        0 min,  6.353 sec
     gradient                   ...        0 min,  0.057 sec
 * total energy  :  -290.1230898 Eh     change       -0.1783509E-02 Eh
   gradient norm :     0.0161533 Eh/α   predicted    -0.1626440E-02 (  -8.81%)
   displ. norm   :     0.7771980 α      lambda       -0.1858121E-02
   maximum displ.:     0.3464554 α      in ANC's #8, #6, #4, ...

........................................................................
.............................. CYCLE   28 ..............................
........................................................................

 iter      E             dE          RMSdq      gap      omega  full diag
   1   -292.2712990 -0.292271E+03  0.157E-01    0.05       0.0  T
   2   -292.0348281  0.236471E+00  0.884E-01    0.30       1.0  T
   3   -292.2265528 -0.191725E+00  0.424E-01    0.13       1.0  T
   4   -292.2720768 -0.455240E-01  0.129E-01    0.03       1.0  T
   5   -292.2732688 -0.119206E-02  0.106E-01    0.03       1.0  T
   6   -292.2726026  0.666253E-03  0.118E-01    0.03       1.0  T
   7   -292.2744099 -0.180730E-02  0.809E-02    0.04       1.0  T
   8   -292.2755269 -0.111700E-02  0.291E-02    0.04       1.0  T
   9   -292.2755607 -0.337602E-04  0.237E-02    0.04       1.0  T
  10   -292.2756862 -0.125522E-03  0.821E-03    0.04       1.2  T
  11   -292.2756828  0.335026E-05  0.887E-03    0.04       1.1  T
  12   -292.2756963 -0.135038E-04  0.281E-03    0.04       3.4  T
  13   -292.2756975 -0.112287E-05  0.137E-03    0.04       7.0  T
  14   -292.2756974  0.977195E-07  0.163E-03    0.04       5.9  T
  15   -292.2756978 -0.489348E-06  0.340E-04    0.04      28.1  T
  16   -292.2756978  0.524659E-08  0.373E-04    0.04      25.7  T
     SCC iter.                  ...        0 min,  6.386 sec
     gradient                   ...        0 min,  0.049 sec
 * total energy  :  -290.1247480 Eh     change       -0.1658245E-02 Eh
   gradient norm :     0.0164373 Eh/α   predicted    -0.1490249E-02 ( -10.13%)
   displ. norm   :     0.7190747 α      lambda       -0.2027320E-02
   maximum displ.:     0.3026708 α      in ANC's #8, #6, #4, ...

........................................................................
.............................. CYCLE   29 ..............................
........................................................................

 iter      E             dE          RMSdq      gap      omega  full diag
   1   -292.2769135 -0.292277E+03  0.176E-01    0.05       0.0  T
   2   -292.0579833  0.218930E+00  0.870E-01    0.28       1.0  T
   3   -292.2169913 -0.159008E+00  0.484E-01    0.17       1.0  T
   4   -292.2783884 -0.613971E-01  0.142E-01    0.03       1.0  T
   5   -292.2782134  0.175029E-03  0.135E-01    0.04       1.0  T
   6   -292.2786360 -0.422595E-03  0.128E-01    0.03       1.0  T
   7   -292.2792467 -0.610750E-03  0.125E-01    0.04       1.0  T
   8   -292.2820811 -0.283434E-02  0.350E-02    0.05       1.0  T
   9   -292.2821031 -0.220716E-04  0.318E-02    0.05       1.0  T
  10   -292.2823557 -0.252580E-03  0.801E-03    0.04       1.2  T
  11   -292.2823549  0.781572E-06  0.741E-03    0.04       1.3  T
  12   -292.2823598 -0.485349E-05  0.459E-03    0.04       2.1  T
  13   -292.2823645 -0.468280E-05  0.191E-03    0.04       5.0  T
  14   -292.2823644  0.819774E-07  0.191E-03    0.04       5.0  T
  15   -292.2823652 -0.770704E-06  0.676E-04    0.04      14.2  T
  16   -292.2823652 -0.238575E-07  0.568E-04    0.04      16.9  T
     SCC iter.                  ...        0 min,  6.056 sec
     gradient                   ...        0 min,  0.059 sec
 * total energy  :  -290.1263564 Eh     change       -0.1608398E-02 Eh
   gradient norm :     0.0144604 Eh/α   predicted    -0.1537798E-02 (  -4.39%)
   displ. norm   :     0.8315585 α      lambda       -0.1880510E-02
   maximum displ.:     0.3283483 α      in ANC's #8, #6, #15, ...

........................................................................
.............................. CYCLE   30 ..............................
........................................................................

 iter      E             dE          RMSdq      gap      omega  full diag
   1   -292.2750482 -0.292275E+03  0.148E-01    0.06       0.0  T
   2   -292.0931455  0.181903E+00  0.808E-01    0.25       1.0  T
   3   -292.2362167 -0.143071E+00  0.392E-01    0.13       1.0  T
   4   -292.2752138 -0.389971E-01  0.127E-01    0.03       1.0  T
   5   -292.2734176  0.179623E-02  0.154E-01    0.04       1.0  T
   6   -292.2759067 -0.248909E-02  0.108E-01    0.04       1.0  T
   7   -292.2772849 -0.137816E-02  0.891E-02    0.04       1.0  T
   8   -292.2784794 -0.119452E-02  0.382E-02    0.05       1.0  T
   9   -292.2786697 -0.190356E-03  0.202E-02    0.05       1.0  T
  10   -292.2787607 -0.910009E-04  0.867E-03    0.05       1.1  T
  11   -292.2787741 -0.133978E-04  0.383E-03    0.05       2.5  T
  12   -292.2787765 -0.239685E-05  0.105E-03    0.04       9.1  T
  13   -292.2787760  0.516110E-06  0.196E-03    0.04       4.9  T
  14   -292.2787767 -0.675962E-06  0.549E-04    0.04      17.5  T
  15   -292.2787767 -0.334209E-07  0.420E-04    0.04      22.8  T
     SCC iter.                  ...        0 min,  5.777 sec
     gradient                   ...        0 min,  0.057 sec
 * total energy  :  -290.1279151 Eh     change       -0.1558699E-02 Eh
   gradient norm :     0.0152724 Eh/α   predicted    -0.1590441E-02 (   2.04%)
   displ. norm   :     0.6884280 α      lambda       -0.1734529E-02
   maximum displ.:     0.2599712 α      in ANC's #6, #8, #1, ...

........................................................................
.............................. CYCLE   31 ..............................
........................................................................

 iter      E             dE          RMSdq      gap      omega  full diag
   1   -292.2816245 -0.292282E+03  0.113E-01    0.05       0.0  T
   2   -292.1914752  0.901493E-01  0.622E-01    0.10       1.0  T
   3   -292.2491129 -0.576376E-01  0.349E-01    0.12       1.0  T
   4   -292.2782348 -0.291220E-01  0.143E-01    0.03       1.0  T
   5   -292.2794192 -0.118440E-02  0.135E-01    0.04       1.0  T
   6   -292.2822778 -0.285851E-02  0.704E-02    0.06       1.0  T
   7   -292.2826085 -0.330771E-03  0.602E-02    0.05       1.0  T
   8   -292.2834229 -0.814351E-03  0.128E-02    0.05       1.0  T
   9   -292.2833928  0.300877E-04  0.184E-02    0.05       1.0  T
  10   -292.2834545 -0.617106E-04  0.570E-03    0.05       1.7  T
  11   -292.2834559 -0.144455E-05  0.512E-03    0.05       1.9  T
  12   -292.2834607 -0.479153E-05  0.142E-03    0.05       6.7  T
  13   -292.2834613 -0.524233E-06  0.443E-04    0.05      21.6  T
  14   -292.2834613 -0.840436E-08  0.329E-04    0.05      29.1  T
     SCC iter.                  ...        0 min,  5.485 sec
     gradient                   ...        0 min,  0.055 sec
 * total energy  :  -290.1293720 Eh     change       -0.1456884E-02 Eh
   gradient norm :     0.0152570 Eh/α   predicted    -0.1278303E-02 ( -12.26%)
   displ. norm   :     0.7323132 α      lambda       -0.1651083E-02
   maximum displ.:     0.2730228 α      in ANC's #6, #1, #8, ...

........................................................................
.............................. CYCLE   32 ..............................
........................................................................

 iter      E             dE          RMSdq      gap      omega  full diag
   1   -292.2853107 -0.292285E+03  0.106E-01    0.06       0.0  T
   2   -292.2166545  0.686561E-01  0.550E-01    0.06       1.0  T
   3   -292.2556729 -0.390184E-01  0.330E-01    0.11       1.0  T
   4   -292.2823733 -0.267004E-01  0.131E-01    0.04       1.0  T
   5   -292.2829589 -0.585553E-03  0.130E-01    0.05       1.0  T
   6   -292.2854574 -0.249856E-02  0.718E-02    0.06       1.0  T
   7   -292.2864001 -0.942636E-03  0.361E-02    0.06       1.0  T
   8   -292.2867127 -0.312608E-03  0.115E-02    0.05       1.0  T
   9   -292.2867187 -0.598505E-05  0.113E-02    0.05       1.0  T
  10   -292.2867414 -0.227503E-04  0.362E-03    0.05       2.6  T
  11   -292.2867392  0.221751E-05  0.488E-03    0.05       2.0  T
  12   -292.2867439 -0.473602E-05  0.915E-04    0.05      10.5  T
  13   -292.2867441 -0.197785E-06  0.367E-04    0.05      26.1  T
  14   -292.2867441 -0.882773E-08  0.254E-04    0.05      37.8  T
     SCC iter.                  ...        0 min,  4.986 sec
     gradient                   ...        0 min,  0.056 sec
 * total energy  :  -290.1308183 Eh     change       -0.1446310E-02 Eh
   gradient norm :     0.0140487 Eh/α   predicted    -0.1268269E-02 ( -12.31%)
   displ. norm   :     0.7232446 α      lambda       -0.1744195E-02
   maximum displ.:     0.3019907 α      in ANC's #1, #6, #15, ...

........................................................................
.............................. CYCLE   33 ..............................
........................................................................

 iter      E             dE          RMSdq      gap      omega  full diag
   1   -292.2930467 -0.292293E+03  0.687E-02    0.05       0.0  T
   2   -292.2832794  0.976724E-02  0.203E-01    0.07       1.0  T
   3   -292.2863810 -0.310161E-02  0.163E-01    0.04       1.0  T
   4   -292.2538253  0.325558E-01  0.400E-01    0.08       1.0  T
   5   -292.2923053 -0.384801E-01  0.660E-02    0.05       1.0  T
   6   -292.2916216  0.683737E-03  0.755E-02    0.06       1.0  T
   7   -292.2928773 -0.125572E-02  0.350E-02    0.05       1.0  T
   8   -292.2931337 -0.256376E-03  0.119E-02    0.05       1.0  T
   9   -292.2931621 -0.284099E-04  0.254E-03    0.05       3.8  T
  10   -292.2931629 -0.821407E-06  0.127E-03    0.05       7.5  T
  11   -292.2931627  0.225602E-06  0.147E-03    0.05       6.5  T
  12   -292.2931632 -0.465919E-06  0.491E-04    0.05      19.5  T
  13   -292.2931632 -0.269703E-07  0.358E-04    0.05      26.8  T
     SCC iter.                  ...        0 min,  4.679 sec
     gradient                   ...        0 min,  0.056 sec
 * total energy  :  -290.1322161 Eh     change       -0.1397787E-02 Eh
   gradient norm :     0.0120243 Eh/α   predicted    -0.1328281E-02 (  -4.97%)
   displ. norm   :     0.8319037 α      lambda       -0.1675510E-02
   maximum displ.:     0.3170408 α      in ANC's #1, #6, #15, ...

........................................................................
.............................. CYCLE   34 ..............................
........................................................................

 iter      E             dE          RMSdq      gap      omega  full diag
   1   -292.2886389 -0.292289E+03  0.109E-01    0.06       0.0  T
   2   -292.2079732  0.806657E-01  0.586E-01    0.09       1.0  T
   3   -292.2615007 -0.535276E-01  0.315E-01    0.12       1.0  T
   4   -292.2829241 -0.214234E-01  0.168E-01    0.04       1.0  T
   5   -292.2828452  0.788940E-04  0.178E-01    0.05       1.0  T
   6   -292.2885712 -0.572599E-02  0.741E-02    0.06       1.0  T
   7   -292.2896860 -0.111479E-02  0.281E-02    0.06       1.0  T
   8   -292.2898720 -0.185975E-03  0.128E-02    0.05       1.0  T
   9   -292.2898988 -0.268278E-04  0.795E-03    0.05       1.2  T
  10   -292.2899074 -0.857416E-05  0.416E-03    0.05       2.3  T
  11   -292.2899090 -0.165304E-05  0.312E-03    0.05       3.1  T
  12   -292.2899113 -0.226701E-05  0.522E-04    0.05      18.3  T
  13   -292.2899113 -0.338597E-07  0.383E-04    0.05      25.0  T
  14   -292.2899114 -0.230024E-07  0.173E-04    0.05      55.5  T
     SCC iter.                  ...        0 min,  4.910 sec
     gradient                   ...        0 min,  0.065 sec
 * total energy  :  -290.1335822 Eh     change       -0.1366111E-02 Eh
   gradient norm :     0.0142832 Eh/α   predicted    -0.1417544E-02 (   3.76%)
   displ. norm   :     0.7079440 α      lambda       -0.1469707E-02
   maximum displ.:     0.3379369 α      in ANC's #1, #6, #4, ...

........................................................................
.............................. CYCLE   35 ..............................
........................................................................

 iter      E             dE          RMSdq      gap      omega  full diag
   1   -292.2926182 -0.292293E+03  0.720E-02    0.06       0.0  T
   2   -292.2909286  0.168963E-02  0.973E-02    0.05       1.0  T
   3   -292.2697602  0.211684E-01  0.310E-01    0.07       1.0  T
   4   -292.2597282  0.100319E-01  0.338E-01    0.05       1.0  T
   5   -292.2886128 -0.288845E-01  0.130E-01    0.06       1.0  T
   6   -292.2923867 -0.377393E-02  0.357E-02    0.06       1.0  T
   7   -292.2926158 -0.229063E-03  0.123E-02    0.06       1.0  T
   8   -292.2926331 -0.173076E-04  0.813E-03    0.06       1.2  T
   9   -292.2926475 -0.144103E-04  0.219E-03    0.06       4.4  T
  10   -292.2926481 -0.620395E-06  0.120E-03    0.06       8.0  T
  11   -292.2926484 -0.275075E-06  0.497E-04    0.06      19.3  T
  12   -292.2926484 -0.241332E-07  0.298E-04    0.06      32.2  T
     SCC iter.                  ...        0 min,  4.223 sec
     gradient                   ...        0 min,  0.053 sec
 * total energy  :  -290.1348598 Eh     change       -0.1277616E-02 Eh
   gradient norm :     0.0143077 Eh/α   predicted    -0.1103160E-02 ( -13.65%)
   displ. norm   :     0.7212724 α      lambda       -0.1636879E-02
   maximum displ.:     0.3448463 α      in ANC's #1, #4, #15, ...

........................................................................
.............................. CYCLE   36 ..............................
........................................................................

 iter      E             dE          RMSdq      gap      omega  full diag
   1   -292.2933886 -0.292293E+03  0.851E-02    0.05       0.0  T
   2   -292.2815946  0.117941E-01  0.238E-01    0.07       1.0  T
   3   -292.2892816 -0.768698E-02  0.144E-01    0.06       1.0  T
   4   -292.2783473  0.109342E-01  0.257E-01    0.05       1.0  T
   5   -292.2925109 -0.141636E-01  0.616E-02    0.06       1.0  T
   6   -292.2851254  0.738555E-02  0.178E-01    0.04       1.0  T
   7   -292.2934305 -0.830518E-02  0.214E-02    0.06       1.0  T
   8   -292.2934987 -0.681199E-04  0.112E-02    0.06       1.0  T
   9   -292.2935262 -0.275841E-04  0.319E-03    0.06       3.0  T
  10   -292.2935278 -0.154573E-05  0.102E-03    0.06       9.3  T
  11   -292.2935278 -0.132693E-07  0.813E-04    0.06      11.8  T
  12   -292.2935279 -0.708091E-07  0.509E-04    0.06      18.8  T
     SCC iter.                  ...        0 min,  4.323 sec
     gradient                   ...        0 min,  0.056 sec
 * total energy  :  -290.1362402 Eh     change       -0.1380364E-02 Eh
   gradient norm :     0.0113667 Eh/α   predicted    -0.1244221E-02 (  -9.86%)
   displ. norm   :     0.7893323 α      lambda       -0.1515634E-02
   maximum displ.:     0.4111616 α      in ANC's #1, #4, #2, ...

........................................................................
.............................. CYCLE   37 ..............................
........................................................................

 iter      E             dE          RMSdq      gap      omega  full diag
   1   -292.2951808 -0.292295E+03  0.961E-02    0.05       0.0  T
   2   -292.2792203  0.159605E-01  0.256E-01    0.10       1.0  T
   3   -292.2760460  0.317433E-02  0.274E-01    0.04       1.0  T
   4   -292.2650594  0.109865E-01  0.361E-01    0.08       1.0  T
   5   -292.2903626 -0.253031E-01  0.139E-01    0.05       1.0  T
   6   -292.2931399 -0.277738E-02  0.932E-02    0.06       1.0  T
   7   -292.2951317 -0.199179E-02  0.281E-02    0.06       1.0  T
   8   -292.2952614 -0.129676E-03  0.146E-02    0.06       1.0  T
   9   -292.2952990 -0.375782E-04  0.603E-03    0.06       1.6  T
  10   -292.2953065 -0.751971E-05  0.250E-03    0.06       3.8  T
  11   -292.2953076 -0.107899E-05  0.114E-03    0.06       8.4  T
  12   -292.2953077 -0.107435E-06  0.741E-04    0.06      12.9  T
  13   -292.2953078 -0.104988E-06  0.308E-04    0.06      31.1  T
     SCC iter.                  ...        0 min,  4.625 sec
     gradient                   ...        0 min,  0.057 sec
 * total energy  :  -290.1375962 Eh     change       -0.1355970E-02 Eh
   gradient norm :     0.0112557 Eh/α   predicted    -0.1229974E-02 (  -9.29%)
   displ. norm   :     0.8088414 α      lambda       -0.1553774E-02
   maximum displ.:     0.4114169 α      in ANC's #1, #4, #15, ...

........................................................................
.............................. CYCLE   38 ..............................
........................................................................

 iter      E             dE          RMSdq      gap      omega  full diag
   1   -292.2962448 -0.292296E+03  0.105E-01    0.05       0.0  T
   2   -292.2743252  0.219195E-01  0.320E-01    0.10       1.0  T
   3   -292.2837861 -0.946090E-02  0.237E-01    0.04       1.0  T
   4   -292.2571121  0.266741E-01  0.396E-01    0.09       1.0  T
   5   -292.2603027 -0.319062E-02  0.352E-01    0.05       1.0  T
   6   -292.2949137 -0.346110E-01  0.838E-02    0.06       1.0  T
   7   -292.2962989 -0.138520E-02  0.341E-02    0.06       1.0  T
   8   -292.2964515 -0.152607E-03  0.206E-02    0.06       1.0  T
   9   -292.2965301 -0.786503E-04  0.799E-03    0.06       1.2  T
  10   -292.2965446 -0.145262E-04  0.275E-03    0.06       3.5  T
  11   -292.2965446  0.556709E-07  0.245E-03    0.06       3.9  T
  12   -292.2965454 -0.841207E-06  0.136E-03    0.06       7.0  T
  13   -292.2965459 -0.448204E-06  0.414E-04    0.06      23.1  T
  14   -292.2965459 -0.190830E-07  0.268E-04    0.06      35.8  T
     SCC iter.                  ...        0 min,  4.878 sec
     gradient                   ...        0 min,  0.060 sec
 * total energy  :  -290.1389118 Eh     change       -0.1315648E-02 Eh
   gradient norm :     0.0117693 Eh/α   predicted    -0.1285147E-02 (  -2.32%)
   displ. norm   :     0.7848782 α      lambda       -0.1761871E-02
   maximum displ.:     0.4196359 α      in ANC's #1, #4, #12, ...

........................................................................
.............................. CYCLE   39 ..............................
........................................................................

 iter      E             dE          RMSdq      gap      omega  full diag
   1   -292.2979434 -0.292298E+03  0.147E-01    0.05       0.0  T
   2   -292.1883654  0.109578E+00  0.670E-01    0.12       1.0  T
   3   -292.2947142 -0.106349E+00  0.155E-01    0.05       1.0  T
   4   -292.2622272  0.324870E-01  0.408E-01    0.08       1.0  T
   5   -292.2814455 -0.192183E-01  0.266E-01    0.05       1.0  T
   6   -292.2931402 -0.116947E-01  0.152E-01    0.07       1.0  T
   7   -292.2991260 -0.598575E-02  0.379E-02    0.06       1.0  T
   8   -292.2992125 -0.864671E-04  0.329E-02    0.05       1.0  T
   9   -292.2993923 -0.179807E-03  0.159E-02    0.06       1.0  T
  10   -292.2994506 -0.583065E-04  0.705E-03    0.06       1.4  T
  11   -292.2994411  0.944930E-05  0.883E-03    0.06       1.1  T
  12   -292.2994622 -0.210863E-04  0.140E-03    0.06       6.8  T
[...]
Writing corrected topology to xtbtopo.mol

molecular dipole:
                 x           y           z       tot (Debye)
 q only:       -0.787      -3.487      -2.848
   full:       -0.721      -3.003      -1.787       9.070
molecular quadrupole (traceless):
                xx          xy          yy          xz          yz          zz
 q only:      -26.512     -27.339      21.927      49.419      43.278       4.585
  q+dip:      -26.643     -17.845      26.340      30.857      31.361       0.303
   full:      -36.450     -21.010      21.552      36.754      42.143      14.897

           -------------------------------------------------
          |                Geometry Summary                 |
           -------------------------------------------------

      molecular mass/u    :     2831.6329614
   center of mass at/Å    :        0.1958191      -0.0331650       4.1025981
  moments of inertia/u·Å² :        0.8063172E+05   0.9207911E+05   0.1225153E+06
rotational constants/cm⁻¹ :        0.2090695E-03   0.1830777E-03   0.1375962E-03

 * 219 selected distances

     #   Z          #   Z                                           value/Å
     1   6 C        2   6 C                                       1.3910645
     2   6 C        3   6 C                                       1.4106456
     4   6 C        5   6 C                                       1.4279364
     1   6 C        6   6 C                                       1.3773923
     5   6 C        6   6 C                                       1.3560723
     7   6 C        8   6 C                                       1.4204564
     8   6 C        9   6 C                                       1.4300319
     4   6 C       10   7 N                                       1.3252892
     9   6 C       10   7 N                                       1.3245365
    12   6 C       13   7 N                                       1.3203202
     8   6 C       14   6 C                                       1.4249569
    13   7 N       14   6 C                                       1.3173747
    14   6 C       15   6 C                                       1.4159225
    15   6 C       16   6 C                                       1.3684131
     9   6 C       17   6 C                                       1.4180425
    16   6 C       17   6 C                                       1.3703904
    18   6 C       19   6 C                                       1.4066614
    19   6 C       20   6 C                                       1.3775621
    12   6 C       21   6 C                                       1.4231255
    20   6 C       21   6 C                                       1.3530777
     2   6 C       22   8 O                                       1.3123474
    23   6 C       24   6 C                                       1.3926271
    24   6 C       25   6 C                                       1.4170760
    25   6 C       26   6 C                                       1.4378268
    26   6 C       27   6 C                                       1.4266339
    23   6 C       28   6 C                                       1.3761710
    27   6 C       28   6 C                                       1.3545447
    29   6 C       30   6 C                                       1.4157192
    30   6 C       31   6 C                                       1.4293427
    26   6 C       32   7 N                                       1.3272500
    31   6 C       32   7 N                                       1.3239994
    34   6 C       35   7 N                                       1.3238991
    30   6 C       36   6 C                                       1.4267342
    35   7 N       36   6 C                                       1.3205974
    36   6 C       37   6 C                                       1.4151015
    37   6 C       38   6 C                                       1.3697291
    31   6 C       39   6 C                                       1.4170491
    38   6 C       39   6 C                                       1.3691927
    33   6 C       40   6 C                                       1.4306259
    40   6 C       41   6 C                                       1.4021501
    41   6 C       42   6 C                                       1.3746029
    34   6 C       43   6 C                                       1.4265159
    42   6 C       43   6 C                                       1.3541203
    24   6 C       44   8 O                                       1.3155809
    22   8 O       45   5 B                                       1.4559386
    44   8 O       45   5 B                                       1.4714866
    18   6 C       46   7 N                                       1.3735974
    45   5 B       46   7 N                                       1.5272645
    46   7 N       48   6 C                                       1.4550587
    47   6 C       48   6 C                                       1.5281265
    40   6 C       49   7 N                                       1.3827266
    45   5 B       49   7 N                                       1.5262522
    49   7 N       51   6 C                                       1.4557037
    50   6 C       51   6 C                                       1.5252954
    38   6 C       52  16 S                                       1.8462436
    52  16 S       53   9 F                                       1.6608937
    52  16 S       54   9 F                                       1.6583351
    52  16 S       55   9 F                                       1.6101601
    52  16 S       56   9 F                                       1.6490393
    52  16 S       57   9 F                                       1.6436063
    42   6 C       58  16 S                                       1.8555143
    58  16 S       59   9 F                                       1.6694502
    58  16 S       60   9 F                                       1.6304870
    58  16 S       61   9 F                                       1.6082556
    58  16 S       62   9 F                                       1.6607855
    58  16 S       63   9 F                                       1.6821641
    28   6 C       64  16 S                                       1.8530335
    64  16 S       65   9 F                                       1.6517204
    64  16 S       66   9 F                                       1.6525380
    64  16 S       67   9 F                                       1.6128313
    64  16 S       69   9 F                                       1.6788090
    20   6 C       70  16 S                                       1.8544876
    70  16 S       71   9 F                                       1.6486114
    70  16 S       72   9 F                                       1.6682723
    70  16 S       73   9 F                                       1.6299258
    70  16 S       75   9 F                                       1.6578975
    16   6 C       76  16 S                                       1.8465159
    76  16 S       77   9 F                                       1.6451493
    76  16 S       78   9 F                                       1.6469099
    76  16 S       79   9 F                                       1.6098188
    76  16 S       80   9 F                                       1.6598797
    76  16 S       81   9 F                                       1.6582978
     6   6 C       82  16 S                                       1.8471184
    82  16 S       83   9 F                                       1.6439733
    82  16 S       84   9 F                                       1.6117539
    82  16 S       86   9 F                                       1.6460025
    82  16 S       87   9 F                                       1.6697412
    47   6 C       88   1 H                                       1.0858325
    47   6 C       89   1 H                                       1.0858773
    47   6 C       90   1 H                                       1.0869045
    48   6 C       91   1 H                                       1.0912132
    48   6 C       92   1 H                                       1.0946570
    51   6 C       93   1 H                                       1.0914417
    51   6 C       94   1 H                                       1.0971579
    50   6 C       95   1 H                                       1.0869313
    50   6 C       96   1 H                                       1.0862155
    50   6 C       97   1 H                                       1.0862047
    27   6 C       98   1 H                                       1.0752367
    39   6 C       99   1 H                                       1.0769140
    37   6 C      100   1 H                                       1.0766256
     5   6 C      101   1 H                                       1.0758736
    15   6 C      102   1 H                                       1.0763482
    17   6 C      103   1 H                                       1.0774332
    21   6 C      104   1 H                                       1.0737272
    43   6 C      105   1 H                                       1.0760395
    19   6 C      106   1 H                                       1.0765185
     1   6 C      107   1 H                                       1.0749286
    41   6 C      108   1 H                                       1.0740510
    23   6 C      109   1 H                                       1.0748760
   110   6 C      111   6 C                                       1.3959516
   111   6 C      112   6 C                                       1.4142319
   113   6 C      114   6 C                                       1.4205035
   110   6 C      115   6 C                                       1.3815290
   114   6 C      115   6 C                                       1.3573421
   116   6 C      117   6 C                                       1.4147204
   117   6 C      118   6 C                                       1.4287976
   113   6 C      119   7 N                                       1.3239579
   118   6 C      119   7 N                                       1.3181408
   121   6 C      122   7 N                                       1.3216783
   117   6 C      123   6 C                                       1.4234919
   122   7 N      123   6 C                                       1.3216135
   123   6 C      124   6 C                                       1.4143349
   124   6 C      125   6 C                                       1.3738904
   118   6 C      126   6 C                                       1.4140026
   125   6 C      126   6 C                                       1.3701673
   127   6 C      128   6 C                                       1.4102891
   128   6 C      129   6 C                                       1.3754752
   121   6 C      130   6 C                                       1.4224894
   129   6 C      130   6 C                                       1.3568084
   111   6 C      131   8 O                                       1.3162605
   132   6 C      133   6 C                                       1.4042562
   133   6 C      134   6 C                                       1.4246236
   135   6 C      136   6 C                                       1.4222729
   132   6 C      137   6 C                                       1.3783630
   136   6 C      137   6 C                                       1.3530498
   138   6 C      139   6 C                                       1.4177247
   139   6 C      140   6 C                                       1.4286847
   135   6 C      141   7 N                                       1.3226219
   140   6 C      141   7 N                                       1.3214031
   143   6 C      144   7 N                                       1.3253457
   139   6 C      145   6 C                                       1.4275332
   144   7 N      145   6 C                                       1.3199440
   145   6 C      146   6 C                                       1.4153340
   146   6 C      147   6 C                                       1.3668544
   140   6 C      148   6 C                                       1.4155183
   147   6 C      148   6 C                                       1.3680170
   142   6 C      149   6 C                                       1.4199355
   149   6 C      150   6 C                                       1.3906890
   150   6 C      151   6 C                                       1.3793081
   143   6 C      152   6 C                                       1.4222029
   151   6 C      152   6 C                                       1.3509612
   133   6 C      153   8 O                                       1.3187456
   131   8 O      154   5 B                                       1.4487696
   153   8 O      154   5 B                                       1.4754744
   127   6 C      155   7 N                                       1.3617373
   154   5 B      155   7 N                                       1.5319081
   155   7 N      157   6 C                                       1.4502410
   156   6 C      157   6 C                                       1.5270684
   149   6 C      158   7 N                                       1.4015401
   154   5 B      158   7 N                                       1.5227036
   158   7 N      160   6 C                                       1.4427674
   159   6 C      160   6 C                                       1.5241688
   147   6 C      161  16 S                                       1.8455660
   161  16 S      162   9 F                                       1.6770470
   161  16 S      163   9 F                                       1.6799169
   161  16 S      164   9 F                                       1.6171224
   161  16 S      165   9 F                                       1.6450864
   161  16 S      166   9 F                                       1.6463579
   151   6 C      167  16 S                                       1.8496942
   167  16 S      169   9 F                                       1.6589831
   167  16 S      170   9 F                                       1.6078238
   167  16 S      171   9 F                                       1.6335737
   167  16 S      172   9 F                                       1.6728168
   137   6 C      173  16 S                                       1.8439045
   173  16 S      174   9 F                                       1.6520079
   173  16 S      175   9 F                                       1.6585491
   173  16 S      176   9 F                                       1.6078108
   173  16 S      177   9 F                                       1.6686674
   173  16 S      178   9 F                                       1.6498802
   129   6 C      179  16 S                                       1.8423307
   179  16 S      180   9 F                                       1.6558514
   179  16 S      181   9 F                                       1.6570750
   179  16 S      182   9 F                                       1.6075895
   179  16 S      183   9 F                                       1.6551219
   179  16 S      184   9 F                                       1.6500784
   125   6 C      185  16 S                                       1.8561910 (max)
   185  16 S      186   9 F                                       1.6646079
   185  16 S      187   9 F                                       1.6465998
   185  16 S      188   9 F                                       1.6248741
   185  16 S      189   9 F                                       1.6859652
   185  16 S      190   9 F                                       1.6511872
   115   6 C      191  16 S                                       1.8517803
   191  16 S      192   9 F                                       1.6572275
   191  16 S      193   9 F                                       1.6126867
   191  16 S      194   9 F                                       1.6655302
   191  16 S      195   9 F                                       1.6400065
   191  16 S      196   9 F                                       1.6634041
   156   6 C      197   1 H                                       1.0860398
   156   6 C      198   1 H                                       1.0833235
   156   6 C      199   1 H                                       1.0833102
   157   6 C      200   1 H                                       1.0901795
   157   6 C      201   1 H                                       1.0979931
   160   6 C      202   1 H                                       1.0989623
   160   6 C      203   1 H                                       1.0912059
   159   6 C      204   1 H                                       1.0868206
   159   6 C      205   1 H                                       1.0844425
   159   6 C      206   1 H                                       1.0865965
   136   6 C      207   1 H                                       1.0756481
   148   6 C      208   1 H                                       1.0754357
   146   6 C      209   1 H                                       1.0757829
   114   6 C      210   1 H                                       1.0749439
   124   6 C      211   1 H                                       1.0758412
   126   6 C      212   1 H                                       1.0758796
   130   6 C      213   1 H                                       1.0752130
   152   6 C      214   1 H                                       1.0760107
   128   6 C      215   1 H                                       1.0774390
   110   6 C      216   1 H                                       1.0757207
   150   6 C      217   1 H                                       1.0717345 (min)
   132   6 C      218   1 H                                       1.0771647

 * 8 distinct bonds (by element types)

   Z      Z             #   av. dist./Å        max./Å        min./Å
   1 H    6 C          44     1.0817431     1.0989623     1.0717345
   6 C    6 C          71     1.4066412     1.5281265     1.3509612
   5 B    7 N           4     1.5270321     1.5319081     1.5227036
   6 C    7 N          24     1.3533893     1.4557037     1.3173747
Note: The following floating-point exceptions are signalling: IEEE_UNDERFLOW_FLAG
normal termination of xtb
   5 B    8 O           4     1.4629173     1.4754744     1.4487696
   6 C    8 O           4     1.3157336     1.3187456     1.3123474
   6 C   16 S          12     1.8493650     1.8561910     1.8423307
   9 F   16 S          56     1.6478350     1.6859652     1.6075895


optimized geometry written to: xtbopt.mol


           -------------------------------------------------
          | TOTAL ENERGY             -580.412452018745 Eh   |
          | GRADIENT NORM               0.000529904759 Eh/α |
          | HOMO-LUMO GAP               0.024916681648 eV   |
           -------------------------------------------------
########################################################################
[WARNING] Runtime exception occurred
-3- restart_readRestart: Dimension missmatch in restart file.
-2- restart_readRestart: Multiplicity missmatch in restart file.
-1- restart_readRestart: Number of electron missmatch in restart file.
########################################################################

------------------------------------------------------------------------
 * finished run on 2024/11/28 at 14:18:38.289     
------------------------------------------------------------------------
 total:
 * wall-time:     0 d,  0 h, 32 min,  0.535 sec
 *  cpu-time:     0 d,  2 h, 38 min, 26.218 sec
 * ratio c/w:     4.950 speedup
 SCF:
 * wall-time:     0 d,  0 h,  0 min, 45.273 sec
 *  cpu-time:     0 d,  0 h,  3 min, 44.491 sec
 * ratio c/w:     4.959 speedup
 ANC optimizer:
 * wall-time:     0 d,  0 h, 31 min, 15.092 sec
 *  cpu-time:     0 d,  2 h, 34 min, 41.581 sec
 * ratio c/w:     4.950 speedup

Running optimization for loose_opt_dimer.mol
