      -----------------------------------------------------------      
     |                   =====================                   |     
     |                           x T B                           |     
     |                   =====================                   |     
     |                         S. Grimme                         |     
     |          Mulliken Center for Theoretical Chemistry        |     
     |                    University of Bonn                     |     
      -----------------------------------------------------------      

   * xtb version 6.6.1 (8d0f1dd) compiled by 'runner@Mac-1690902418499.local' on 2023-08-01

   xtb is free software: you can redistribute it and/or modify it under
   the terms of the GNU Lesser General Public License as published by
   the Free Software Foundation, either version 3 of the License, or
   (at your option) any later version.
   
   xtb is distributed in the hope that it will be useful,
   but WITHOUT ANY WARRANTY; without even the implied warranty of
   MERCHANTABILITY or FITNESS FOR A PARTICULAR PURPOSE.  See the
   GNU Lesser General Public License for more details.
   
   Cite this work as:
   * C. Bannwarth, E. Caldeweyher, S. Ehlert, A. Hansen, P. Pracht,
     J. Seibert, S. Spicher, S. Grimme, WIREs Comput. Mol. Sci., 2020, 11,
     e01493. DOI: 10.1002/wcms.1493
   
   for GFN2-xTB:
   * C. Bannwarth, S. Ehlert and S. Grimme., J. Chem. Theory Comput., 2019,
     15, 1652-1671. DOI: 10.1021/acs.jctc.8b01176
   for GFN1-xTB:
   * S. Grimme, C. Bannwarth, P. Shushkov, J. Chem. Theory Comput., 2017,
     13, 1989-2009. DOI: 10.1021/acs.jctc.7b00118
   for GFN0-xTB:
   * P. Pracht, E. Caldeweyher, S. Ehlert, S. Grimme, ChemRxiv, 2019, preprint.
     DOI: 10.26434/chemrxiv.8326202.v1
   for GFN-FF:
   * S. Spicher and S. Grimme, Angew. Chem. Int. Ed., 2020, 59, 15665-15673.
     DOI: 10.1002/anie.202004239
   
   for ALPB and GBSA implicit solvation:
   * S. Ehlert, M. Stahn, S. Spicher, S. Grimme, J. Chem. Theory Comput.,
     2021, 17, 4250-4261. DOI: 10.1021/acs.jctc.1c00471
   
   for DFT-D4:
   * E. Caldeweyher, C. Bannwarth and S. Grimme, J. Chem. Phys., 2017,
     147, 034112. DOI: 10.1063/1.4993215
   * E. Caldeweyher, S. Ehlert, A. Hansen, H. Neugebauer, S. Spicher,
     C. Bannwarth and S. Grimme, J. Chem. Phys., 2019, 150, 154122.
     DOI: 10.1063/1.5090222
   * E. Caldeweyher, J.-M. Mewes, S. Ehlert and S. Grimme, Phys. Chem. Chem. Phys.
     2020, 22, 8499-8512. DOI: 10.1039/D0CP00502A
   
   for sTDA-xTB:
   * S. Grimme and C. Bannwarth, J. Chem. Phys., 2016, 145, 054103.
     DOI: 10.1063/1.4959605
   
   in the mass-spec context:
   * V. Asgeirsson, C. Bauer and S. Grimme, Chem. Sci., 2017, 8, 4879.
     DOI: 10.1039/c7sc00601b
   * J. Koopman and S. Grimme, ACS Omega 2019, 4, 12, 15120-15133.
     DOI: 10.1021/acsomega.9b02011
   
   for metadynamics refer to:
   * S. Grimme, J. Chem. Theory Comput., 2019, 155, 2847-2862
     DOI: 10.1021/acs.jctc.9b00143
   
   for SPH calculations refer to:
   * S. Spicher and S. Grimme, J. Chem. Theory Comput., 2021, 17, 1701-1714
     DOI: 10.1021/acs.jctc.0c01306
   
   with help from (in alphabetical order)
   P. Atkinson, C. Bannwarth, F. Bohle, G. Brandenburg, E. Caldeweyher
   M. Checinski, S. Dohm, S. Ehlert, S. Ehrlich, I. Gerasimov, C. Hölzer
   A. Katbashev, J. Koopman, C. Lavigne, S. Lehtola, F. März, M. Müller,
   F. Musil, H. Neugebauer, J. Pisarek, C. Plett, P. Pracht, F. Pultar,
   J. Seibert, P. Shushkov, S. Spicher, M. Stahn, M. Steiner, T. Strunk,
   J. Stückrath, T. Rose, and J. Unsleber
   
 * started run on 2024/11/07 at 16:36:28.985     

           -------------------------------------------------
          |                Calculation Setup                |
           -------------------------------------------------

          program call               : xtb stacked_dimer_Base2SF5.mol --opt --gfn2 --chrg 0 --uhf 1 --tight
          coordinate file            : stacked_dimer_Base2SF5.mol
          omp threads                :                     8

   ID    Z sym.   atoms
    1    6 C      1-9, 11, 12, 14-21, 23-31, 33, 34, 36-43, 47, 48, 50, 51,
                  110-118, 120, 121, 123-130, 132-140, 142, 143, 145-152,
                  156, 157, 159, 160
    2    7 N      10, 13, 32, 35, 46, 49, 119, 122, 141, 144, 155, 158
    3    8 O      22, 44, 131, 153
    4    5 B      45, 154
    5   16 S      52, 58, 64, 70, 76, 82, 161, 167, 173, 179, 185, 191
    6    9 F      53-57, 59-63, 65-69, 71-75, 77-81, 83-87, 162-166, 168-172,
                  174-178, 180-184, 186-190, 192-196
    7    1 H      88-109, 197-218

molecular fragmentation (1/2 indicates fragments):
111111111111111111111111111111111111111111111111111111111111111111111111
111111111111111111111111111111111111122222222222222222222222222222222222
222222222222222222222222222222222222222222222222222222222222222222222222
22
# atoms in fragment 1/2:   109   109
 fragment masses (1/2) :     1415.82     1415.82
CMA distance (Bohr)    :  18.897
constraining FC (au)   :  0.0500
########################################################################
[WARNING] Please study the warnings concerning your input carefully
-1- prog_main_parseArguments: Unknown option '--tight' provided
########################################################################

           -------------------------------------------------
          |                 G F N 2 - x T B                 |
           -------------------------------------------------

        Reference                      10.1021/acs.jctc.8b01176
      * Hamiltonian:
        H0-scaling (s, p, d)           1.850000    2.230000    2.230000
        zeta-weighting                 0.500000
      * Dispersion:
        s8                             2.700000
        a1                             0.520000
        a2                             5.000000
        s9                             5.000000
      * Repulsion:
        kExp                           1.500000    1.000000
        rExp                           1.000000
      * Coulomb:
        alpha                          2.000000
        third order                    shell-resolved
        anisotropic                    true
        a3                             3.000000
        a5                             4.000000
        cn-shift                       1.200000
        cn-exp                         4.000000
        max-rad                        5.000000


          ...................................................
          :                      SETUP                      :
          :.................................................:
          :  # basis functions                 812          :
          :  # atomic orbitals                 800          :
          :  # shells                          404          :
          :  # electrons                       962          :
          :  max. iterations                   250          :
          :  Hamiltonian                  GFN2-xTB          :
          :  restarted?                      false          :
          :  GBSA solvation                  false          :
          :  PC potential                    false          :
          :  electronic temp.          300.0000000     K    :
          :  accuracy                    1.0000000          :
          :  -> integral cutoff          0.2500000E+02      :
          :  -> integral neglect         0.1000000E-07      :
          :  -> SCF convergence          0.1000000E-05 Eh   :
          :  -> wf. convergence          0.1000000E-03 e    :
          :  Broyden damping             0.4000000          :
          ...................................................

 iter      E             dE          RMSdq      gap      omega  full diag
   1   -583.6324124 -0.583632E+03  0.698E+00    0.02       0.0  T
   2   -583.2495676  0.382845E+00  0.427E+00    0.04       1.0  T
   3   -572.6187526  0.106308E+02  0.450E+00    0.11       1.0  T
   4   -562.3583454  0.102604E+02  0.442E+00    0.20       1.0  T
   5   -577.9884434 -0.156301E+02  0.282E+00    0.11       1.0  T
   6   -583.2163796 -0.522794E+01  0.187E+00    0.15       1.0  T
   7   -583.4481958 -0.231816E+00  0.146E+00    0.08       1.0  T
   8   -584.1557620 -0.707566E+00  0.108E+00    0.05       1.0  T
   9   -583.6769379  0.478824E+00  0.116E+00    0.10       1.0  T
  10   -584.2272188 -0.550281E+00  0.984E-01    0.01       1.0  T
  11   -584.4609156 -0.233697E+00  0.819E-01    0.03       1.0  T
  12   -584.3250668  0.135849E+00  0.793E-01    0.01       1.0  T
  13   -584.5567490 -0.231682E+00  0.562E-01    0.02       1.0  T
  14   -584.4881096  0.686395E-01  0.583E-01    0.03       1.0  T
  15   -584.4051022  0.830073E-01  0.713E-01    0.06       1.0  T
  16   -584.5798580 -0.174756E+00  0.421E-01    0.01       1.0  T
  17   -584.5418648  0.379933E-01  0.468E-01    0.02       1.0  T
  18   -584.6246136 -0.827488E-01  0.278E-01    0.02       1.0  T
  19   -584.5535992  0.710143E-01  0.425E-01    0.01       1.0  T
  20   -584.6334194 -0.798201E-01  0.221E-01    0.02       1.0  T
  21   -584.6327688  0.650536E-03  0.258E-01    0.01       1.0  T
  22   -584.6099775  0.227913E-01  0.265E-01    0.02       1.0  T
  23   -584.6268832 -0.169057E-01  0.194E-01    0.02       1.0  T
  24   -584.6415925 -0.147093E-01  0.155E-01    0.01       1.0  T
  25   -584.6564725 -0.148800E-01  0.686E-02    0.01       1.0  T
  26   -584.6583617 -0.188920E-02  0.455E-02    0.00       1.0  T
  27   -584.6583905 -0.288008E-04  0.432E-02    0.00       1.0  T
  28   -584.6588897 -0.499189E-03  0.298E-02    0.00       1.0  T
  29   -584.6590775 -0.187820E-03  0.207E-02    0.00       1.0  T
  30   -584.6592312 -0.153650E-03  0.100E-02    0.00       1.0  T
  31   -584.6592687 -0.375319E-04  0.495E-03    0.00       1.4  T
  32   -584.6592514  0.172895E-04  0.642E-03    0.00       1.1  T
  33   -584.6592845 -0.331092E-04  0.163E-03    0.00       4.2  T
  34   -584.6592852 -0.639277E-06  0.112E-03    0.00       6.0  T
  35   -584.6592857 -0.503676E-06  0.626E-04    0.00      10.8  T
  36   -584.6592858 -0.142248E-06  0.388E-04    0.00      17.4  T

   *** convergence criteria satisfied after 36 iterations ***

         #    Occupation            Energy/Eh            Energy/eV
      -------------------------------------------------------------
         1        2.0000           -0.8965668             -24.3968
       ...           ...                  ...                  ...
       475        2.0000           -0.4447341             -12.1018
       476        2.0000           -0.4444913             -12.0952
       477        1.9999           -0.4442084             -12.0875
       478        1.9999           -0.4439797             -12.0813
       479        1.5262           -0.4353336             -11.8460
       480        1.4792           -0.4352141             -11.8428
       481        1.1889           -0.4345856             -11.8257 (HOMO)
       482        1.1433           -0.4344963             -11.8232 (LUMO)
       483        0.3570           -0.4327720             -11.7763
       484        0.3055           -0.4325947             -11.7715
       485                         -0.3731933             -10.1551
       486                         -0.3725163             -10.1367
       ...                                ...                  ...
       800                          1.0375847              28.2341
      -------------------------------------------------------------
                  HL-Gap            0.0000893 Eh            0.0024 eV
             Fermi-level           -0.4342222 Eh          -11.8158 eV

 SCC (total)                   0 d,  0 h,  0 min,  8.607 sec
 SCC setup                      ...        0 min,  0.002 sec (  0.020%)
 Dispersion                     ...        0 min,  0.005 sec (  0.053%)
 classical contributions        ...        0 min,  0.001 sec (  0.012%)
 integral evaluation            ...        0 min,  0.034 sec (  0.396%)
 iterations                     ...        0 min,  8.277 sec ( 96.172%)
 molecular gradient             ...        0 min,  0.230 sec (  2.668%)
 printout                       ...        0 min,  0.058 sec (  0.679%)

         :::::::::::::::::::::::::::::::::::::::::::::::::::::
         ::                     SUMMARY                     ::
         :::::::::::::::::::::::::::::::::::::::::::::::::::::
         :: total energy            -580.334063284976 Eh    ::
         :: gradient norm              0.015686451568 Eh/a0 ::
         :: HOMO-LUMO gap              0.002430128789 eV    ::
         ::.................................................::
         :: SCC energy              -584.659285810024 Eh    ::
         :: -> isotropic ES            0.021945692571 Eh    ::
         :: -> anisotropic ES         -0.193248835022 Eh    ::
         :: -> anisotropic XC         -0.000012471996 Eh    ::
         :: -> dispersion             -0.397252030753 Eh    ::
         :: repulsion energy           4.309589644199 Eh    ::
         :: add. restraining           0.000000000000 Eh    ::
         :: total charge              -0.000000000001 e     ::
         :::::::::::::::::::::::::::::::::::::::::::::::::::::

      ----------------------------------------------------------- 
     |                   =====================                   |
     |                        A N C O P T                        |
     |                   =====================                   |
     |               Approximate Normal Coordinate               |
     |                Rational Function Optimizer                |
      ----------------------------------------------------------- 

          ...................................................
          :                      SETUP                      :
          :.................................................:
          :   optimization level            normal          :
          :   max. optcycles                   654          :
          :   ANC micro-cycles                  20          :
          :   degrees of freedom               648          :
          :.................................................:
          :   RF solver                   davidson          :
          :   write xtbopt.log                true          :
          :   linear?                        false          :
          :   energy convergence         0.5000000E-05 Eh   :
          :   grad. convergence          0.1000000E-02 Eh/α :
          :   maxmium RF displ.          1.0000000          :
          :   Hlow (freq-cutoff)         0.1000000E-01      :
          :   Hmax (freq-cutoff)         5.0000000          :
          :   S6 in model hess.         20.0000000          :
          ...................................................

generating ANC from model Hessian ...
Using Lindh-Hessian (1995)
 Shifting diagonal of input Hessian by    1.0021027842948520E-002
 Lowest  eigenvalues of input Hessian
    0.010000    0.010007    0.010010    0.010016    0.010021    0.000000
    0.000000    0.000000    0.000000    0.000000    0.000000    0.010043
    0.010122    0.010132    0.010220    0.010226    0.010308    0.010311
 Highest eigenvalues
    2.308514    2.308514    2.348098    2.348139    2.371331    2.371392


........................................................................
.............................. CYCLE    1 ..............................
........................................................................

 iter      E             dE          RMSdq      gap      omega  full diag
   1   -584.6592858 -0.584659E+03  0.232E-04    0.00       0.0  T
   2   -584.6592425  0.433489E-04  0.687E-03    0.00       1.0  T
   3   -584.6592846 -0.420710E-04  0.142E-03    0.00       4.8  T
   4   -584.6592858 -0.124887E-05  0.358E-04    0.00      18.9  T
   5   -584.6592858  0.419649E-07  0.415E-04    0.00      16.3  T
   6   -584.6592858 -0.284994E-07  0.375E-04    0.00      18.1  T
     SCC iter.                  ...        0 min,  1.167 sec
     gradient                   ...        0 min,  0.220 sec
 * total energy  :  -580.3340633 Eh     change        0.1395404E-07 Eh
   gradient norm :     0.0156879 Eh/α   predicted     0.0000000E+00 (-100.00%)
   displ. norm   :     0.1060058 α      lambda       -0.3819558E-03
   maximum displ.:     0.0569654 α      in ANC's #14, #6, #7, ...

........................................................................
.............................. CYCLE    2 ..............................
........................................................................

 iter      E             dE          RMSdq      gap      omega  full diag
   1   -584.6575318 -0.584658E+03  0.439E-02    0.01       0.0  T
   2   -583.9911169  0.666415E+00  0.856E-01    0.12       1.0  T
   3   -584.6254369 -0.634320E+00  0.240E-01    0.00       1.0  T
   4   -584.6503599 -0.249231E-01  0.126E-01    0.00       1.0  T
   5   -584.6580514 -0.769148E-02  0.466E-02    0.00       1.0  T
   6   -584.6553958  0.265564E-02  0.825E-02    0.00       1.0  T
   7   -584.6552983  0.974898E-04  0.814E-02    0.00       1.0  T
   8   -584.6589299 -0.363161E-02  0.217E-02    0.01       1.0  T
   9   -584.6587260  0.203853E-03  0.276E-02    0.00       1.0  T
  10   -584.6591150 -0.388961E-03  0.108E-02    0.00       1.0  T
  11   -584.6590786  0.363563E-04  0.139E-02    0.00       1.0  T
  12   -584.6591380 -0.594055E-04  0.610E-03    0.00       1.1  T
  13   -584.6591554 -0.173689E-04  0.297E-03    0.00       2.3  T
  14   -584.6591592 -0.376824E-05  0.205E-03    0.00       3.3  T
  15   -584.6591629 -0.370950E-05  0.503E-04    0.00      13.5  T
  16   -584.6591625  0.390421E-06  0.778E-04    0.00       8.7  T
  17   -584.6591628 -0.336066E-06  0.516E-04    0.00      13.1  T
     SCC iter.                  ...        0 min,  4.471 sec
     gradient                   ...        0 min,  0.216 sec
 * total energy  :  -580.3343740 Eh     change       -0.3106828E-03 Eh
   gradient norm :     0.0106030 Eh/α   predicted    -0.1931319E-03 ( -37.84%)
   displ. norm   :     0.2718845 α      lambda       -0.5604752E-03
   maximum displ.:     0.1578850 α      in ANC's #14, #6, #7, ...

........................................................................
.............................. CYCLE    3 ..............................
........................................................................

 iter      E             dE          RMSdq      gap      omega  full diag
   1   -584.6533320 -0.584653E+03  0.876E-02    0.02       0.0  T
   2   -583.8570326  0.796299E+00  0.952E-01    0.17       1.0  T
   3   -584.5794393 -0.722407E+00  0.359E-01    0.01       1.0  T
   4   -584.6201939 -0.407546E-01  0.238E-01    0.02       1.0  T
   5   -584.6533587 -0.331648E-01  0.935E-02    0.01       1.0  T
   6   -584.6556313 -0.227262E-02  0.898E-02    0.00       1.0  T
   7   -584.6504006  0.523071E-02  0.129E-01    0.00       1.0  T
   8   -584.6492250  0.117556E-02  0.111E-01    0.01       1.0  T
   9   -584.6555312 -0.630621E-02  0.726E-02    0.01       1.0  T
  10   -584.6593632 -0.383195E-02  0.345E-02    0.01       1.0  T
  11   -584.6581462  0.121701E-02  0.471E-02    0.00       1.0  T
  12   -584.6585834 -0.437216E-03  0.417E-02    0.00       1.0  T
  13   -584.6596766 -0.109318E-02  0.196E-02    0.00       1.0  T
  14   -584.6599967 -0.320101E-03  0.661E-03    0.00       1.0  T
  15   -584.6600375 -0.407876E-04  0.129E-03    0.00       5.2  T
  16   -584.6600366  0.846669E-06  0.137E-03    0.00       4.9  T
  17   -584.6600380 -0.139555E-05  0.549E-04    0.00      12.3  T
  18   -584.6600372  0.847998E-06  0.104E-03    0.00       6.5  T
  19   -584.6600380 -0.884943E-06  0.408E-04    0.00      16.6  T
  20   -584.6600380 -0.498653E-08  0.379E-04    0.00      17.9  T
     SCC iter.                  ...        0 min,  3.981 sec
     gradient                   ...        0 min,  0.223 sec
 * total energy  :  -580.3347389 Eh     change       -0.3649328E-03 Eh
   gradient norm :     0.0036779 Eh/α   predicted    -0.3009583E-03 ( -17.53%)
   displ. norm   :     0.2187093 α      lambda       -0.2055343E-03
   maximum displ.:     0.1316085 α      in ANC's #14, #6, #7, ...

........................................................................
.............................. CYCLE    4 ..............................
........................................................................

 iter      E             dE          RMSdq      gap      omega  full diag
   1   -584.6589893 -0.584659E+03  0.477E-02    0.01       0.0  T
   2   -583.9462476  0.712742E+00  0.888E-01    0.14       1.0  T
   3   -584.6207431 -0.674496E+00  0.257E-01    0.00       1.0  T
   4   -584.6538657 -0.331226E-01  0.106E-01    0.00       1.0  T
   5   -584.6595395 -0.567376E-02  0.526E-02    0.00       1.0  T
   6   -584.6544202  0.511932E-02  0.110E-01    0.00       1.0  T
   7   -584.6596090 -0.518882E-02  0.514E-02    0.00       1.0  T
   8   -584.6606533 -0.104426E-02  0.250E-02    0.00       1.0  T
   9   -584.6608098 -0.156568E-03  0.169E-02    0.00       1.0  T
  10   -584.6607404  0.694636E-04  0.230E-02    0.00       1.0  T
  11   -584.6609437 -0.203327E-03  0.877E-03    0.00       1.0  T
  12   -584.6609431  0.620928E-06  0.899E-03    0.00       1.0  T
  13   -584.6609509 -0.788719E-05  0.575E-03    0.00       1.2  T
  14   -584.6609742 -0.232243E-04  0.278E-03    0.00       2.4  T
  15   -584.6609802 -0.603460E-05  0.136E-03    0.00       5.0  T
  16   -584.6609816 -0.138126E-05  0.236E-04    0.00      28.7  T
  17   -584.6609816 -0.124459E-07  0.162E-04    0.00      41.8  T
  18   -584.6609816  0.910381E-08  0.170E-04    0.00      39.8  T
     SCC iter.                  ...        0 min,  3.652 sec
     gradient                   ...        0 min,  0.226 sec
 * total energy  :  -580.3349075 Eh     change       -0.1685932E-03 Eh
   gradient norm :     0.0052476 Eh/α   predicted    -0.1078983E-03 ( -36.00%)
   displ. norm   :     0.3244601 α      lambda       -0.2814301E-03
   maximum displ.:     0.1857433 α      in ANC's #14, #6, #7, ...

........................................................................
.............................. CYCLE    5 ..............................
........................................................................

 iter      E             dE          RMSdq      gap      omega  full diag
   1   -584.6601031 -0.584660E+03  0.488E-02    0.01       0.0  T
   2   -583.9525110  0.707592E+00  0.884E-01    0.14       1.0  T
   3   -584.6190416 -0.666531E+00  0.267E-01    0.00       1.0  T
   4   -584.6555372 -0.364956E-01  0.102E-01    0.00       1.0  T
   5   -584.6601757 -0.463853E-02  0.606E-02    0.00       1.0  T
   6   -584.6522962  0.787949E-02  0.134E-01    0.00       1.0  T
   7   -584.6611315 -0.883529E-02  0.443E-02    0.00       1.0  T
   8   -584.6616756 -0.544077E-03  0.283E-02    0.00       1.0  T
   9   -584.6619811 -0.305512E-03  0.134E-02    0.00       1.0  T
  10   -584.6617294  0.251751E-03  0.256E-02    0.00       1.0  T
  11   -584.6620015 -0.272133E-03  0.101E-02    0.00       1.0  T
  12   -584.6620144 -0.129098E-04  0.101E-02    0.00       1.0  T
  13   -584.6620377 -0.233029E-04  0.514E-03    0.00       1.3  T
  14   -584.6620534 -0.157331E-04  0.263E-03    0.00       2.6  T
  15   -584.6620597 -0.622638E-05  0.831E-04    0.00       8.1  T
  16   -584.6620600 -0.336182E-06  0.279E-04    0.00      24.3  T
  17   -584.6620600 -0.231054E-07  0.179E-04    0.00      37.9  T
     SCC iter.                  ...        0 min,  3.262 sec
     gradient                   ...        0 min,  0.222 sec
 * total energy  :  -580.3351472 Eh     change       -0.2397288E-03 Eh
   gradient norm :     0.0072967 Eh/α   predicted    -0.1555306E-03 ( -35.12%)
   displ. norm   :     0.4504678 α      lambda       -0.3606948E-03
   maximum displ.:     0.2512535 α      in ANC's #14, #6, #8, ...

........................................................................
.............................. CYCLE    6 ..............................
........................................................................

 iter      E             dE          RMSdq      gap      omega  full diag
   1   -584.6609171 -0.584661E+03  0.499E-02    0.01       0.0  T
   2   -583.9746923  0.686225E+00  0.869E-01    0.12       1.0  T
   3   -584.6166017 -0.641909E+00  0.278E-01    0.01       1.0  T
   4   -584.6548390 -0.382374E-01  0.115E-01    0.00       1.0  T
   5   -584.6602033 -0.536432E-02  0.697E-02    0.01       1.0  T
   6   -584.6485613  0.116421E-01  0.163E-01    0.00       1.0  T
   7   -584.6615274 -0.129662E-01  0.508E-02    0.00       1.0  T
   8   -584.6624207 -0.893265E-03  0.268E-02    0.00       1.0  T
   9   -584.6623819  0.388296E-04  0.233E-02    0.00       1.0  T
  10   -584.6625357 -0.153883E-03  0.208E-02    0.00       1.0  T
  11   -584.6625132  0.225945E-04  0.162E-02    0.00       1.0  T
  12   -584.6626825 -0.169347E-03  0.109E-02    0.00       1.0  T
  13   -584.6627305 -0.479821E-04  0.320E-03    0.00       2.1  T
  14   -584.6627242  0.627311E-05  0.346E-03    0.00       2.0  T
  15   -584.6627329 -0.873556E-05  0.165E-03    0.00       4.1  T
  16   -584.6627352 -0.223598E-05  0.283E-04    0.00      24.0  T
  17   -584.6627352 -0.348517E-07  0.163E-04    0.00      41.5  T
  18   -584.6627352 -0.363002E-09  0.141E-04    0.00      48.1  T
     SCC iter.                  ...        0 min,  3.353 sec
     gradient                   ...        0 min,  0.219 sec
 * total energy  :  -580.3354545 Eh     change       -0.3072496E-03 Eh
   gradient norm :     0.0084154 Eh/α   predicted    -0.2169483E-03 ( -29.39%)
   displ. norm   :     0.5364886 α      lambda       -0.3932424E-03
   maximum displ.:     0.2946869 α      in ANC's #14, #6, #8, ...

........................................................................
.............................. CYCLE    7 ..............................
........................................................................

 iter      E             dE          RMSdq      gap      omega  full diag
   1   -584.6613304 -0.584661E+03  0.480E-02    0.01       0.0  T
   2   -584.0360873  0.625243E+00  0.825E-01    0.09       1.0  T
   3   -584.6199105 -0.583823E+00  0.273E-01    0.01       1.0  T
   4   -584.6535245 -0.336140E-01  0.127E-01    0.00       1.0  T
   5   -584.6597043 -0.617985E-02  0.752E-02    0.01       1.0  T
   6   -584.6436270  0.160773E-01  0.187E-01    0.00       1.0  T
   7   -584.6612580 -0.176310E-01  0.559E-02    0.00       1.0  T
   8   -584.6618241 -0.566148E-03  0.377E-02    0.00       1.0  T
   9   -584.6622366 -0.412499E-03  0.330E-02    0.00       1.0  T
  10   -584.6625015 -0.264897E-03  0.233E-02    0.00       1.0  T
  11   -584.6623909  0.110656E-03  0.205E-02    0.01       1.0  T
  12   -584.6626916 -0.300736E-03  0.996E-03    0.00       1.0  T
  13   -584.6627624 -0.707706E-04  0.564E-03    0.00       1.2  T
  14   -584.6627658 -0.340422E-05  0.359E-03    0.00       1.9  T
  15   -584.6627766 -0.108228E-04  0.919E-04    0.00       7.4  T
  16   -584.6627770 -0.342639E-06  0.362E-04    0.00      18.7  T
  17   -584.6627770 -0.563994E-07  0.139E-04    0.00      48.6  T
     SCC iter.                  ...        0 min,  3.281 sec
     gradient                   ...        0 min,  0.218 sec
 * total energy  :  -580.3357981 Eh     change       -0.3436582E-03 Eh
   gradient norm :     0.0084713 Eh/α   predicted    -0.2532128E-03 ( -26.32%)
   displ. norm   :     0.6109212 α      lambda       -0.4468469E-03
   maximum displ.:     0.3312445 α      in ANC's #14, #6, #8, ...

........................................................................
.............................. CYCLE    8 ..............................
........................................................................

 iter      E             dE          RMSdq      gap      omega  full diag
   1   -584.6613360 -0.584661E+03  0.472E-02    0.01       0.0  T
   2   -584.1119178  0.549418E+00  0.769E-01    0.07       1.0  T
   3   -584.6231648 -0.511247E+00  0.270E-01    0.01       1.0  T
   4   -584.6521852 -0.290204E-01  0.136E-01    0.00       1.0  T
   5   -584.6588881 -0.670286E-02  0.807E-02    0.01       1.0  T
   6   -584.6337130  0.251751E-01  0.223E-01    0.00       1.0  T
   7   -584.6605792 -0.268663E-01  0.609E-02    0.00       1.0  T
   8   -584.6595801  0.999116E-03  0.661E-02    0.00       1.0  T
   9   -584.6616023 -0.202218E-02  0.329E-02    0.00       1.0  T
  10   -584.6621141 -0.511835E-03  0.288E-02    0.00       1.0  T
  11   -584.6621859 -0.717817E-04  0.189E-02    0.00       1.0  T
  12   -584.6623368 -0.150909E-03  0.130E-02    0.00       1.0  T
  13   -584.6624815 -0.144676E-03  0.632E-03    0.00       1.1  T
  14   -584.6624872 -0.565791E-05  0.363E-03    0.00       1.9  T
  15   -584.6624964 -0.920422E-05  0.172E-03    0.00       3.9  T
  16   -584.6624984 -0.207754E-05  0.332E-04    0.00      20.4  T
  17   -584.6624985 -0.397563E-07  0.145E-04    0.00      46.8  T
  18   -584.6624985  0.366072E-08  0.137E-04    0.00      49.4  T
     SCC iter.                  ...        0 min,  3.338 sec
     gradient                   ...        0 min,  0.219 sec
 * total energy  :  -580.3362002 Eh     change       -0.4020798E-03 Eh
   gradient norm :     0.0076483 Eh/α   predicted    -0.3068354E-03 ( -23.69%)
   displ. norm   :     0.6890660 α      lambda       -0.5354221E-03
   maximum displ.:     0.3680298 α      in ANC's #14, #6, #8, ...

........................................................................
.............................. CYCLE    9 ..............................
........................................................................

 iter      E             dE          RMSdq      gap      omega  full diag
   1   -584.6611827 -0.584661E+03  0.497E-02    0.01       0.0  T
   2   -584.1714809  0.489702E+00  0.725E-01    0.06       1.0  T
   3   -584.6215888 -0.450108E+00  0.285E-01    0.02       1.0  T
   4   -584.6505529 -0.289641E-01  0.146E-01    0.00       1.0  T
   5   -584.6583617 -0.780879E-02  0.840E-02    0.01       1.0  T
   6   -584.6217748  0.365869E-01  0.258E-01    0.00       1.0  T
   7   -584.6581209 -0.363461E-01  0.896E-02    0.00       1.0  T
   8   -584.6609500 -0.282916E-02  0.503E-02    0.00       1.0  T
   9   -584.6613089 -0.358869E-03  0.411E-02    0.00       1.0  T
  10   -584.6615419 -0.233015E-03  0.307E-02    0.00       1.0  T
  11   -584.6619514 -0.409488E-03  0.189E-02    0.00       1.0  T
  12   -584.6620366 -0.852369E-04  0.157E-02    0.00       1.0  T
  13   -584.6622346 -0.197992E-03  0.523E-03    0.00       1.3  T
  14   -584.6622388 -0.421174E-05  0.424E-03    0.00       1.6  T
  15   -584.6622490 -0.101363E-04  0.242E-03    0.00       2.8  T
  16   -584.6622534 -0.440454E-05  0.385E-04    0.00      17.6  T
  17   -584.6622534 -0.710343E-07  0.208E-04    0.00      32.5  T
  18   -584.6622535 -0.170401E-07  0.131E-04    0.00      51.9  T
     SCC iter.                  ...        0 min,  3.541 sec
     gradient                   ...        0 min,  0.225 sec
 * total energy  :  -580.3366849 Eh     change       -0.4847409E-03 Eh
   gradient norm :     0.0064755 Eh/α   predicted    -0.3948248E-03 ( -18.55%)
   displ. norm   :     0.7347113 α      lambda       -0.5906870E-03
   maximum displ.:     0.3824574 α      in ANC's #14, #6, #8, ...

........................................................................
.............................. CYCLE   10 ..............................
........................................................................

 iter      E             dE          RMSdq      gap      omega  full diag
   1   -584.6611881 -0.584661E+03  0.544E-02    0.01       0.0  T
   2   -584.1525743  0.508614E+00  0.744E-01    0.06       1.0  T
   3   -584.6155834 -0.463009E+00  0.312E-01    0.02       1.0  T
   4   -584.6486922 -0.331087E-01  0.159E-01    0.00       1.0  T
   5   -584.6588844 -0.101922E-01  0.813E-02    0.01       1.0  T
   6   -584.6226348  0.362496E-01  0.256E-01    0.01       1.0  T
   7   -584.6486887 -0.260539E-01  0.154E-01    0.01       1.0  T
   8   -584.6618671 -0.131784E-01  0.365E-02    0.00       1.0  T
   9   -584.6615759  0.291296E-03  0.460E-02    0.00       1.0  T
  10   -584.6620614 -0.485524E-03  0.241E-02    0.00       1.0  T
  11   -584.6623636 -0.302187E-03  0.129E-02    0.00       1.0  T
  12   -584.6623382  0.253470E-04  0.123E-02    0.00       1.0  T
  13   -584.6624567 -0.118480E-03  0.339E-03    0.00       2.0  T
  14   -584.6624478  0.885707E-05  0.410E-03    0.00       1.7  T
  15   -584.6624613 -0.134859E-04  0.112E-03    0.00       6.1  T
  16   -584.6624619 -0.540524E-06  0.368E-04    0.00      18.4  T
  17   -584.6624618  0.294797E-07  0.388E-04    0.00      17.5  T
     SCC iter.                  ...        0 min,  3.426 sec
     gradient                   ...        0 min,  0.225 sec
 * total energy  :  -580.3372139 Eh     change       -0.5289948E-03 Eh
   gradient norm :     0.0060932 Eh/α   predicted    -0.4547704E-03 ( -14.03%)
   displ. norm   :     0.7559531 α      lambda       -0.5740187E-03
   maximum displ.:     0.3905277 α      in ANC's #6, #14, #8, ...

........................................................................
.............................. CYCLE   11 ..............................
........................................................................

 iter      E             dE          RMSdq      gap      omega  full diag
   1   -584.6609427 -0.584661E+03  0.629E-02    0.01       0.0  T
   2   -584.0091858  0.651757E+00  0.847E-01    0.10       1.0  T
   3   -584.5974770 -0.588291E+00  0.364E-01    0.01       1.0  T
   4   -584.6440620 -0.465850E-01  0.183E-01    0.00       1.0  T
   5   -584.6608653 -0.168033E-01  0.666E-02    0.00       1.0  T
   6   -584.6410004  0.198649E-01  0.200E-01    0.01       1.0  T
   7   -584.6334139  0.758647E-02  0.219E-01    0.01       1.0  T
   8   -584.6621561 -0.287421E-01  0.460E-02    0.00       1.0  T
   9   -584.6618246  0.331495E-03  0.517E-02    0.00       1.0  T
  10   -584.6629140 -0.108943E-02  0.186E-02    0.00       1.0  T
  11   -584.6630420 -0.128005E-03  0.697E-03    0.00       1.0  T
  12   -584.6630270  0.149641E-04  0.948E-03    0.00       1.0  T
  13   -584.6630549 -0.278978E-04  0.403E-03    0.00       1.7  T
  14   -584.6630608 -0.584761E-05  0.273E-03    0.00       2.5  T
  15   -584.6630673 -0.649420E-05  0.801E-04    0.00       8.5  T
  16   -584.6630677 -0.420966E-06  0.258E-04    0.00      26.3  T
  17   -584.6630676  0.915541E-07  0.403E-04    0.00      16.8  T
     SCC iter.                  ...        0 min,  3.199 sec
     gradient                   ...        0 min,  0.224 sec
 * total energy  :  -580.3377317 Eh     change       -0.5178078E-03 Eh
   gradient norm :     0.0067390 Eh/α   predicted    -0.4510311E-03 ( -12.90%)
   displ. norm   :     0.7626765 α      lambda       -0.5472879E-03
   maximum displ.:     0.4029852 α      in ANC's #6, #14, #8, ...

........................................................................
.............................. CYCLE   12 ..............................
........................................................................

 iter      E             dE          RMSdq      gap      omega  full diag
   1   -584.6608024 -0.584661E+03  0.708E-02    0.01       0.0  T
   2   -583.9233768  0.737426E+00  0.906E-01    0.16       1.0  T
   3   -584.5834599 -0.660083E+00  0.395E-01    0.00       1.0  T
   4   -584.6408343 -0.573744E-01  0.198E-01    0.01       1.0  T
   5   -584.6621629 -0.213285E-01  0.613E-02    0.00       1.0  T
   6   -584.6573184  0.484449E-02  0.121E-01    0.00       1.0  T
   7   -584.6571871  0.131291E-03  0.113E-01    0.00       1.0  T
   8   -584.6572433 -0.562549E-04  0.104E-01    0.01       1.0  T
   9   -584.6608579 -0.361455E-02  0.730E-02    0.00       1.0  T
  10   -584.6637445 -0.288664E-02  0.208E-02    0.00       1.0  T
  11   -584.6637766 -0.320832E-04  0.186E-02    0.00       1.0  T
  12   -584.6638482 -0.715829E-04  0.118E-02    0.00       1.0  T
  13   -584.6639171 -0.688801E-04  0.523E-03    0.00       1.3  T
  14   -584.6639283 -0.112366E-04  0.343E-03    0.00       2.0  T
  15   -584.6639393 -0.109880E-04  0.812E-04    0.00       8.3  T
  16   -584.6639395 -0.228217E-06  0.328E-04    0.00      20.7  T
  17   -584.6639392  0.320521E-06  0.662E-04    0.00      10.2  T
     SCC iter.                  ...        0 min,  3.279 sec
     gradient                   ...        0 min,  0.225 sec
 * total energy  :  -580.3382377 Eh     change       -0.5060057E-03 Eh
   gradient norm :     0.0071603 Eh/α   predicted    -0.4328215E-03 ( -14.46%)
   displ. norm   :     0.7567803 α      lambda       -0.5515629E-03
   maximum displ.:     0.4114657 α      in ANC's #6, #14, #8, ...

........................................................................
.............................. CYCLE   13 ..............................
........................................................................

 iter      E             dE          RMSdq      gap      omega  full diag
   1   -584.6616791 -0.584662E+03  0.740E-02    0.01       0.0  T
   2   -583.8988812  0.762798E+00  0.925E-01    0.19       1.0  T
   3   -584.5861603 -0.687279E+00  0.388E-01    0.01       1.0  T
   4   -584.6423835 -0.562232E-01  0.197E-01    0.01       1.0  T
   5   -584.6630712 -0.206877E-01  0.661E-02    0.00       1.0  T
   6   -584.6579769  0.509437E-02  0.120E-01    0.00       1.0  T
   7   -584.6360610  0.219159E-01  0.225E-01    0.02       1.0  T
   8   -584.6614778 -0.254168E-01  0.849E-02    0.01       1.0  T
   9   -584.6625472 -0.106935E-02  0.664E-02    0.00       1.0  T
  10   -584.6650532 -0.250602E-02  0.221E-02    0.00       1.0  T
  11   -584.6650224  0.307379E-04  0.227E-02    0.00       1.0  T
  12   -584.6651456 -0.123166E-03  0.139E-02    0.00       1.0  T
  13   -584.6652762 -0.130623E-03  0.362E-03    0.00       1.9  T
  14   -584.6652657  0.105710E-04  0.454E-03    0.00       1.5  T
  15   -584.6652848 -0.191672E-04  0.100E-03    0.00       6.8  T
  16   -584.6652854 -0.526949E-06  0.334E-04    0.00      20.3  T
  17   -584.6652852  0.197384E-06  0.578E-04    0.00      11.7  T
     SCC iter.                  ...        0 min,  3.314 sec
     gradient                   ...        0 min,  0.219 sec
 * total energy  :  -580.3387551 Eh     change       -0.5173836E-03 Eh
   gradient norm :     0.0067153 Eh/α   predicted    -0.4337267E-03 ( -16.17%)
   displ. norm   :     0.7554997 α      lambda       -0.5727416E-03
   maximum displ.:     0.4237633 α      in ANC's #6, #8, #14, ...

........................................................................
.............................. CYCLE   14 ..............................
........................................................................

 iter      E             dE          RMSdq      gap      omega  full diag
   1   -584.6633993 -0.584663E+03  0.727E-02    0.01       0.0  T
   2   -583.8972775  0.766122E+00  0.928E-01    0.20       1.0  T
   3   -584.6012299 -0.703952E+00  0.354E-01    0.01       1.0  T
   4   -584.6478468 -0.466169E-01  0.182E-01    0.01       1.0  T
   5   -584.6635310 -0.156842E-01  0.762E-02    0.00       1.0  T
   6   -584.6575404  0.599066E-02  0.130E-01    0.00       1.0  T
   7   -584.6334443  0.240960E-01  0.242E-01    0.02       1.0  T
   8   -584.6640696 -0.306253E-01  0.744E-02    0.01       1.0  T
   9   -584.6643539 -0.284278E-03  0.644E-02    0.00       1.0  T
  10   -584.6666199 -0.226608E-02  0.230E-02    0.00       1.0  T
  11   -584.6665737  0.462452E-04  0.244E-02    0.00       1.0  T
  12   -584.6667644 -0.190663E-03  0.120E-02    0.00       1.0  T
  13   -584.6668617 -0.973729E-04  0.209E-03    0.00       3.2  T
  14   -584.6668581  0.362011E-05  0.249E-03    0.00       2.7  T
  15   -584.6668591 -0.996873E-06  0.223E-03    0.00       3.0  T
  16   -584.6668636 -0.446914E-05  0.272E-04    0.00      24.9  T
  17   -584.6668635  0.577943E-07  0.388E-04    0.00      17.5  T
  18   -584.6668636 -0.723549E-07  0.139E-04    0.00      48.9  T
     SCC iter.                  ...        0 min,  3.386 sec
     gradient                   ...        0 min,  0.220 sec
 * total energy  :  -580.3392935 Eh     change       -0.5383355E-03 Eh
   gradient norm :     0.0056431 Eh/α   predicted    -0.4498259E-03 ( -16.44%)
   displ. norm   :     0.7483605 α      lambda       -0.5802004E-03
   maximum displ.:     0.4319652 α      in ANC's #6, #8, #14, ...

........................................................................
.............................. CYCLE   15 ..............................
........................................................................

 iter      E             dE          RMSdq      gap      omega  full diag
   1   -584.6655175 -0.584666E+03  0.664E-02    0.01       0.0  T
   2   -583.9160434  0.749474E+00  0.917E-01    0.18       1.0  T
   3   -584.6230796 -0.707036E+00  0.298E-01    0.01       1.0  T
   4   -584.6557728 -0.326932E-01  0.153E-01    0.00       1.0  T
   5   -584.6626554 -0.688253E-02  0.930E-02    0.01       1.0  T
   6   -584.6564083  0.624704E-02  0.145E-01    0.00       1.0  T
   7   -584.6399796  0.164287E-01  0.227E-01    0.01       1.0  T
   8   -584.6657970 -0.258174E-01  0.658E-02    0.00       1.0  T
   9   -584.6662853 -0.488332E-03  0.593E-02    0.00       1.0  T
  10   -584.6680574 -0.177209E-02  0.221E-02    0.00       1.0  T
  11   -584.6680042  0.532560E-04  0.238E-02    0.00       1.0  T
  12   -584.6682326 -0.228458E-03  0.700E-03    0.00       1.0  T
  13   -584.6682539 -0.212362E-04  0.235E-03    0.00       2.9  T
  14   -584.6682571 -0.323217E-05  0.132E-03    0.00       5.1  T
  15   -584.6682556  0.154463E-05  0.162E-03    0.00       4.2  T
  16   -584.6682577 -0.214062E-05  0.516E-04    0.00      13.1  T
  17   -584.6682579 -0.193845E-06  0.246E-04    0.00      27.6  T
  18   -584.6682579 -0.256796E-07  0.717E-05    0.00      94.5  T
     SCC iter.                  ...        0 min,  3.341 sec
     gradient                   ...        0 min,  0.225 sec
 * total energy  :  -580.3398370 Eh     change       -0.5435323E-03 Eh
   gradient norm :     0.0047411 Eh/α   predicted    -0.4525699E-03 ( -16.74%)
   displ. norm   :     0.7398807 α      lambda       -0.5686848E-03
   maximum displ.:     0.4357623 α      in ANC's #6, #8, #7, ...

........................................................................
.............................. CYCLE   16 ..............................
........................................................................

 iter      E             dE          RMSdq      gap      omega  full diag
   1   -584.6674686 -0.584667E+03  0.568E-02    0.01       0.0  T
   2   -583.9724755  0.694993E+00  0.880E-01    0.14       1.0  T
   3   -584.6433285 -0.670853E+00  0.233E-01    0.00       1.0  T
   4   -584.6624279 -0.190994E-01  0.116E-01    0.00       1.0  T
   5   -584.6579828  0.444511E-02  0.128E-01    0.01       1.0  T
   6   -584.6535272  0.445557E-02  0.165E-01    0.00       1.0  T
   7   -584.6493292  0.419804E-02  0.196E-01    0.01       1.0  T
   8   -584.6672562 -0.179270E-01  0.546E-02    0.00       1.0  T
   9   -584.6678902 -0.634034E-03  0.496E-02    0.00       1.0  T
  10   -584.6689445 -0.105430E-02  0.246E-02    0.00       1.0  T
  11   -584.6690028 -0.583096E-04  0.222E-02    0.00       1.0  T
  12   -584.6692018 -0.198995E-03  0.597E-03    0.00       1.1  T
  13   -584.6692236 -0.217885E-04  0.169E-03    0.00       4.0  T
  14   -584.6692192  0.439015E-05  0.283E-03    0.00       2.4  T
  15   -584.6692253 -0.607281E-05  0.680E-04    0.00      10.0  T
  16   -584.6692250  0.217447E-06  0.754E-04    0.00       9.0  T
  17   -584.6692255 -0.437858E-06  0.230E-04    0.00      29.5  T
     SCC iter.                  ...        0 min,  3.790 sec
     gradient                   ...        0 min,  0.223 sec
 * total energy  :  -580.3403685 Eh     change       -0.5315208E-03 Eh
   gradient norm :     0.0046812 Eh/α   predicted    -0.4400017E-03 ( -17.22%)
   displ. norm   :     0.7327827 α      lambda       -0.5494626E-03
   maximum displ.:     0.4366623 α      in ANC's #6, #8, #7, ...

........................................................................
.............................. CYCLE   17 ..............................
........................................................................

 iter      E             dE          RMSdq      gap      omega  full diag
   1   -584.6688100 -0.584669E+03  0.482E-02    0.01       0.0  T
   2   -584.0901969  0.578613E+00  0.800E-01    0.09       1.0  T
   3   -584.6549803 -0.564783E+00  0.181E-01    0.01       1.0  T
   4   -584.6648833 -0.990300E-02  0.938E-02    0.01       1.0  T
   5   -584.6495326  0.153507E-01  0.176E-01    0.01       1.0  T
   6   -584.6537650 -0.423238E-02  0.168E-01    0.01       1.0  T
   7   -584.6565826 -0.281761E-02  0.161E-01    0.00       1.0  T
   8   -584.6685191 -0.119365E-01  0.448E-02    0.00       1.0  T
   9   -584.6692990 -0.779885E-03  0.310E-02    0.00       1.0  T
  10   -584.6692335  0.655193E-04  0.331E-02    0.00       1.0  T
  11   -584.6696665 -0.433038E-03  0.174E-02    0.00       1.0  T
  12   -584.6698017 -0.135215E-03  0.648E-03    0.00       1.0  T
  13   -584.6698283 -0.266165E-04  0.145E-03    0.00       4.7  T
  14   -584.6698224  0.592623E-05  0.289E-03    0.00       2.3  T
  15   -584.6698289 -0.645114E-05  0.909E-04    0.00       7.4  T
  16   -584.6698289 -0.729045E-07  0.734E-04    0.00       9.2  T
  17   -584.6698293 -0.324798E-06  0.194E-04    0.00      34.9  T
     SCC iter.                  ...        0 min,  3.478 sec
     gradient                   ...        0 min,  0.227 sec
 * total energy  :  -580.3408817 Eh     change       -0.5131534E-03 Eh
   gradient norm :     0.0050935 Eh/α   predicted    -0.4222555E-03 ( -17.71%)
   displ. norm   :     0.7260597 α      lambda       -0.5335525E-03
   maximum displ.:     0.4355693 α      in ANC's #6, #8, #7, ...

........................................................................
.............................. CYCLE   18 ..............................
........................................................................

 iter      E             dE          RMSdq      gap      omega  full diag
   1   -584.6697831 -0.584670E+03  0.415E-02    0.01       0.0  T
   2   -584.2720621  0.397721E+00  0.661E-01    0.04       1.0  T
   3   -584.6611387 -0.389077E+00  0.140E-01    0.01       1.0  T
   4   -584.6649544 -0.381566E-02  0.922E-02    0.01       1.0  T
   5   -584.6406702  0.242841E-01  0.219E-01    0.01       1.0  T
   6   -584.6555883 -0.149181E-01  0.157E-01    0.01       1.0  T
   7   -584.6638719 -0.828359E-02  0.113E-01    0.00       1.0  T
   8   -584.6695334 -0.566146E-02  0.370E-02    0.00       1.0  T
   9   -584.6700592 -0.525776E-03  0.242E-02    0.00       1.0  T
  10   -584.6695177  0.541431E-03  0.331E-02    0.00       1.0  T
  11   -584.6702936 -0.775863E-03  0.779E-03    0.00       1.0  T
  12   -584.6702922  0.137117E-05  0.766E-03    0.00       1.0  T
  13   -584.6703175 -0.252902E-04  0.210E-03    0.00       3.2  T
  14   -584.6703085  0.897067E-05  0.372E-03    0.00       1.8  T
  15   -584.6703196 -0.110451E-04  0.993E-04    0.00       6.8  T
  16   -584.6703201 -0.502747E-06  0.463E-04    0.00      14.6  T
  17   -584.6703201 -0.527263E-07  0.231E-04    0.00      29.3  T
     SCC iter.                  ...        0 min,  3.552 sec
     gradient                   ...        0 min,  0.220 sec
 * total energy  :  -580.3413793 Eh     change       -0.4976086E-03 Eh
   gradient norm :     0.0053529 Eh/α   predicted    -0.4074122E-03 ( -18.13%)
   displ. norm   :     0.7309401 α      lambda       -0.5328602E-03
   maximum displ.:     0.4396099 α      in ANC's #6, #8, #7, ...

........................................................................
.............................. CYCLE   19 ..............................
........................................................................

 iter      E             dE          RMSdq      gap      omega  full diag
   1   -584.6704228 -0.584670E+03  0.383E-02    0.01       0.0  T
   2   -584.4002460  0.270177E+00  0.543E-01    0.01       1.0  T
   3   -584.6628788 -0.262633E+00  0.121E-01    0.01       1.0  T
   4   -584.6645663 -0.168744E-02  0.981E-02    0.01       1.0  T
   5   -584.6411092  0.234571E-01  0.230E-01    0.00       1.0  T
   6   -584.6592217 -0.181125E-01  0.136E-01    0.00       1.0  T
   7   -584.6676541 -0.843241E-02  0.784E-02    0.00       1.0  T
   8   -584.6700355 -0.238137E-02  0.348E-02    0.00       1.0  T
   9   -584.6702420 -0.206553E-03  0.326E-02    0.00       1.0  T
  10   -584.6703501 -0.108088E-03  0.217E-02    0.01       1.0  T
  11   -584.6707012 -0.351093E-03  0.875E-03    0.00       1.0  T
  12   -584.6707280 -0.268133E-04  0.675E-03    0.00       1.0  T
  13   -584.6707460 -0.180082E-04  0.234E-03    0.00       2.9  T
  14   -584.6707456  0.398358E-06  0.231E-03    0.00       2.9  T
  15   -584.6707484 -0.283239E-05  0.763E-04    0.00       8.9  T
  16   -584.6707487 -0.286437E-06  0.469E-04    0.00      14.4  T
  17   -584.6707488 -0.586609E-07  0.257E-04    0.00      26.3  T
     SCC iter.                  ...        0 min,  3.307 sec
     gradient                   ...        0 min,  0.220 sec
 * total energy  :  -580.3418753 Eh     change       -0.4959741E-03 Eh
   gradient norm :     0.0052603 Eh/α   predicted    -0.4087792E-03 ( -17.58%)
   displ. norm   :     0.7510982 α      lambda       -0.5492278E-03
   maximum displ.:     0.4516531 α      in ANC's #6, #8, #7, ...

........................................................................
.............................. CYCLE   20 ..............................
........................................................................

 iter      E             dE          RMSdq      gap      omega  full diag
   1   -584.6709045 -0.584671E+03  0.380E-02    0.01       0.0  T
   2   -584.4389919  0.231913E+00  0.501E-01    0.01       1.0  T
   3   -584.6637589 -0.224767E+00  0.115E-01    0.02       1.0  T
   4   -584.6632166  0.542263E-03  0.110E-01    0.02       1.0  T
   5   -584.6494307  0.137860E-01  0.208E-01    0.00       1.0  T
   6   -584.6632439 -0.138133E-01  0.124E-01    0.00       1.0  T
   7   -584.6706933 -0.744937E-02  0.316E-02    0.00       1.0  T
   8   -584.6678522  0.284112E-02  0.730E-02    0.00       1.0  T
   9   -584.6707838 -0.293160E-02  0.275E-02    0.01       1.0  T
  10   -584.6708511 -0.672916E-04  0.233E-02    0.01       1.0  T
  11   -584.6710981 -0.247008E-03  0.126E-02    0.00       1.0  T
  12   -584.6711550 -0.568882E-04  0.671E-03    0.00       1.0  T
  13   -584.6711739 -0.189655E-04  0.133E-03    0.00       5.1  T
  14   -584.6711696  0.435867E-05  0.237E-03    0.00       2.9  T
  15   -584.6711741 -0.453692E-05  0.871E-04    0.00       7.8  T
  16   -584.6711746 -0.450522E-06  0.539E-04    0.00      12.6  T
  17   -584.6711746 -0.644325E-07  0.302E-04    0.00      22.4  T
     SCC iter.                  ...        0 min,  4.385 sec
     gradient                   ...        0 min,  0.238 sec
 * total energy  :  -580.3423855 Eh     change       -0.5102164E-03 Eh
   gradient norm :     0.0049558 Eh/α   predicted    -0.4295395E-03 ( -15.81%)
   displ. norm   :     0.7774345 α      lambda       -0.5748220E-03
   maximum displ.:     0.4658848 α      in ANC's #6, #8, #7, ...
 * RMSD in coord.:     0.7754182 α      energy gain  -0.8322185E-02 Eh

generating ANC from model Hessian ...
Using Lindh-Hessian (1995)
 Shifting diagonal of input Hessian by    1.0019589855774426E-002
 Lowest  eigenvalues of input Hessian
    0.010000    0.010005    0.010011    0.000000    0.000000    0.000000
    0.000000    0.000000    0.000000    0.010038    0.010073    0.010091
    0.010127    0.010210    0.010237    0.010265    0.010290    0.010347
 Highest eigenvalues
    2.302077    2.312937    2.363364    2.367968    2.380025    2.388039


........................................................................
.............................. CYCLE   21 ..............................
........................................................................

 iter      E             dE          RMSdq      gap      omega  full diag
   1   -584.6712224 -0.584671E+03  0.398E-02    0.01       0.0  T
   2   -584.3878568  0.283366E+00  0.553E-01    0.02       1.0  T
   3   -584.6654413 -0.277584E+00  0.112E-01    0.01       1.0  T
   4   -584.6621008  0.334044E-02  0.117E-01    0.02       1.0  T
   5   -584.6563157  0.578510E-02  0.176E-01    0.00       1.0  T
   6   -584.6570017 -0.685962E-03  0.164E-01    0.00       1.0  T
   7   -584.6700562 -0.130545E-01  0.528E-02    0.01       1.0  T
   8   -584.6695149  0.541335E-03  0.598E-02    0.00       1.0  T
   9   -584.6713364 -0.182153E-02  0.224E-02    0.00       1.0  T
  10   -584.6708477  0.488742E-03  0.352E-02    0.00       1.0  T
  11   -584.6714937 -0.646070E-03  0.117E-02    0.00       1.0  T
  12   -584.6715296 -0.358925E-04  0.781E-03    0.00       1.0  T
  13   -584.6715561 -0.265085E-04  0.124E-03    0.00       5.5  T
  14   -584.6715558  0.368082E-06  0.124E-03    0.00       5.4  T
  15   -584.6715540  0.177132E-05  0.163E-03    0.00       4.2  T
  16   -584.6715562 -0.224345E-05  0.696E-04    0.00       9.7  T
  17   -584.6715563 -0.551896E-07  0.513E-04    0.00      13.2  T
  18   -584.6715565 -0.196486E-06  0.172E-04    0.00      39.4  T
     SCC iter.                  ...        0 min,  3.593 sec
     gradient                   ...        0 min,  0.228 sec
 * total energy  :  -580.3429182 Eh     change       -0.5327541E-03 Eh
   gradient norm :     0.0047811 Eh/α   predicted     0.0000000E+00 (-100.00%)
   displ. norm   :     0.0911664 α      lambda       -0.1279527E-03
   maximum displ.:     0.0434043 α      in ANC's #12, #5, #11, ...

........................................................................
.............................. CYCLE   22 ..............................
........................................................................

 iter      E             dE          RMSdq      gap      omega  full diag
   1   -584.6717613 -0.584672E+03  0.101E-02    0.01       0.0  T
   2   -584.6225874  0.491738E-01  0.235E-01    0.01       1.0  T
   3   -584.6707432 -0.481558E-01  0.422E-02    0.01       1.0  T
   4   -584.6709629 -0.219675E-03  0.334E-02    0.00       1.0  T
   5   -584.6712591 -0.296242E-03  0.316E-02    0.00       1.0  T
   6   -584.6716501 -0.390952E-03  0.186E-02    0.00       1.0  T
   7   -584.6715690  0.811029E-04  0.217E-02    0.00       1.0  T
   8   -584.6717449 -0.175928E-03  0.110E-02    0.00       1.0  T
   9   -584.6717955 -0.506352E-04  0.529E-03    0.00       1.3  T
  10   -584.6717519  0.436008E-04  0.104E-02    0.00       1.0  T
  11   -584.6718079 -0.559902E-04  0.184E-03    0.00       3.7  T
  12   -584.6718059  0.206466E-05  0.281E-03    0.00       2.4  T
  13   -584.6718092 -0.333573E-05  0.593E-04    0.00      11.4  T
  14   -584.6718094 -0.156795E-06  0.287E-04    0.00      23.6  T
  15   -584.6718093  0.940952E-08  0.316E-04    0.00      21.4  T
     SCC iter.                  ...        0 min,  2.925 sec
     gradient                   ...        0 min,  0.225 sec
 * total energy  :  -580.3430408 Eh     change       -0.1225768E-03 Eh
   gradient norm :     0.0034313 Eh/α   predicted    -0.6610125E-04 ( -46.07%)
   displ. norm   :     0.4701000 α      lambda       -0.5715631E-03
   maximum displ.:     0.2180690 α      in ANC's #12, #5, #11, ...

........................................................................
.............................. CYCLE   23 ..............................
........................................................................

 iter      E             dE          RMSdq      gap      omega  full diag
   1   -584.6719052 -0.584672E+03  0.434E-02    0.01       0.0  T
   2   -584.3377695  0.334136E+00  0.645E-01    0.02       1.0  T
   3   -584.6449502 -0.307181E+00  0.204E-01    0.03       1.0  T
   4   -584.6579121 -0.129619E-01  0.134E-01    0.01       1.0  T
   5   -584.6576158  0.296261E-03  0.148E-01    0.01       1.0  T
   6   -584.6601334 -0.251757E-02  0.160E-01    0.00       1.0  T
   7   -584.6686114 -0.847803E-02  0.895E-02    0.01       1.0  T
   8   -584.6708022 -0.219081E-02  0.524E-02    0.01       1.0  T
   9   -584.6712597 -0.457520E-03  0.543E-02    0.00       1.0  T
  10   -584.6723456 -0.108581E-02  0.205E-02    0.00       1.0  T
  11   -584.6725207 -0.175190E-03  0.115E-02    0.00       1.0  T
  12   -584.6725349 -0.141091E-04  0.996E-03    0.00       1.0  T
  13   -584.6725749 -0.400824E-04  0.285E-03    0.00       2.4  T
  14   -584.6725783 -0.331800E-05  0.100E-03    0.00       6.8  T
  15   -584.6725773  0.954696E-06  0.145E-03    0.00       4.7  T
  16   -584.6725783 -0.997273E-06  0.643E-04    0.00      10.5  T
  17   -584.6725785 -0.172142E-06  0.400E-04    0.00      16.9  T
     SCC iter.                  ...        0 min,  4.212 sec
     gradient                   ...        0 min,  0.228 sec
 * total energy  :  -580.3434718 Eh     change       -0.4310247E-03 Eh
   gradient norm :     0.0036087 Eh/α   predicted    -0.3489526E-03 ( -19.04%)
   displ. norm   :     0.4745877 α      lambda       -0.3508766E-03
   maximum displ.:     0.2263001 α      in ANC's #12, #5, #11, ...

........................................................................
.............................. CYCLE   24 ..............................
........................................................................

 iter      E             dE          RMSdq      gap      omega  full diag
   1   -584.6725344 -0.584673E+03  0.364E-02    0.00       0.0  T
   2   -584.5331456  0.139389E+00  0.464E-01    0.03       1.0  T
   3   -584.6613163 -0.128171E+00  0.126E-01    0.02       1.0  T
   4   -584.6537960  0.752037E-02  0.146E-01    0.02       1.0  T
   5   -584.6566317 -0.283577E-02  0.146E-01    0.01       1.0  T
   6   -584.6645032 -0.787146E-02  0.130E-01    0.00       1.0  T
   7   -584.6697078 -0.520463E-02  0.826E-02    0.01       1.0  T
   8   -584.6715231 -0.181529E-02  0.454E-02    0.01       1.0  T
   9   -584.6727284 -0.120526E-02  0.187E-02    0.00       1.0  T
  10   -584.6724322  0.296210E-03  0.313E-02    0.00       1.0  T
  11   -584.6727659 -0.333742E-03  0.170E-02    0.00       1.0  T
  12   -584.6728738 -0.107918E-03  0.701E-03    0.00       1.0  T
  13   -584.6728938 -0.199078E-04  0.201E-03    0.00       3.4  T
  14   -584.6728953 -0.150753E-05  0.791E-04    0.00       8.6  T
  15   -584.6728952  0.292147E-07  0.660E-04    0.00      10.3  T
  16   -584.6728953 -0.321135E-07  0.537E-04    0.00      12.6  T
     SCC iter.                  ...        0 min,  4.115 sec
     gradient                   ...        0 min,  0.230 sec
 * total energy  :  -580.3437513 Eh     change       -0.2794445E-03 Eh
   gradient norm :     0.0067470 Eh/α   predicted    -0.2149573E-03 ( -23.08%)
   displ. norm   :     0.4725977 α      lambda       -0.3207590E-03
   maximum displ.:     0.2283795 α      in ANC's #12, #5, #11, ...

........................................................................
.............................. CYCLE   25 ..............................
........................................................................

 iter      E             dE          RMSdq      gap      omega  full diag
   1   -584.6729247 -0.584673E+03  0.333E-02    0.00       0.0  T
   2   -584.5513821  0.121543E+00  0.439E-01    0.03       1.0  T
   3   -584.6527454 -0.101363E+00  0.150E-01    0.01       1.0  T
   4   -584.6594488 -0.670344E-02  0.133E-01    0.02       1.0  T
   5   -584.6694995 -0.100507E-01  0.838E-02    0.00       1.0  T
   6   -584.6640527  0.544682E-02  0.124E-01    0.01       1.0  T
   7   -584.6710024 -0.694966E-02  0.728E-02    0.00       1.0  T
   8   -584.6713317 -0.329344E-03  0.527E-02    0.01       1.0  T
   9   -584.6731520 -0.182028E-02  0.135E-02    0.00       1.0  T
  10   -584.6730598  0.922585E-04  0.200E-02    0.00       1.0  T
  11   -584.6730852 -0.254756E-04  0.176E-02    0.00       1.0  T
  12   -584.6732249 -0.139719E-03  0.449E-03    0.00       1.5  T
  13   -584.6732333 -0.831442E-05  0.249E-03    0.00       2.7  T
  14   -584.6732382 -0.491208E-05  0.972E-04    0.00       7.0  T
  15   -584.6732382 -0.752133E-07  0.683E-04    0.00       9.9  T
  16   -584.6732386 -0.336577E-06  0.202E-04    0.00      33.5  T
     SCC iter.                  ...        0 min,  4.116 sec
     gradient                   ...        0 min,  0.228 sec
 * total energy  :  -580.3440378 Eh     change       -0.2865289E-03 Eh
   gradient norm :     0.0076126 Eh/α   predicted    -0.1962111E-03 ( -31.52%)
   displ. norm   :     0.5711905 α      lambda       -0.4622579E-03
   maximum displ.:     0.2776579 α      in ANC's #12, #5, #11, ...

........................................................................
.............................. CYCLE   26 ..............................
........................................................................

 iter      E             dE          RMSdq      gap      omega  full diag
   1   -584.6731180 -0.584673E+03  0.425E-02    0.00       0.0  T
   2   -584.4243084  0.248810E+00  0.558E-01    0.01       1.0  T
   3   -584.6305894 -0.206281E+00  0.234E-01    0.02       1.0  T
   4   -584.6651098 -0.345204E-01  0.118E-01    0.02       1.0  T
   5   -584.6691962 -0.408634E-02  0.912E-02    0.00       1.0  T
   6   -584.6611370  0.805914E-02  0.145E-01    0.01       1.0  T
   7   -584.6689676 -0.783056E-02  0.983E-02    0.01       1.0  T
   8   -584.6725136 -0.354601E-02  0.501E-02    0.00       1.0  T
   9   -584.6735592 -0.104558E-02  0.226E-02    0.00       1.0  T
  10   -584.6728544  0.704753E-03  0.367E-02    0.00       1.0  T
  11   -584.6736507 -0.796348E-03  0.192E-02    0.00       1.0  T
  12   -584.6737504 -0.996062E-04  0.106E-02    0.00       1.0  T
  13   -584.6738191 -0.687306E-04  0.156E-03    0.00       4.4  T
  14   -584.6738191 -0.604643E-07  0.138E-03    0.00       4.9  T
  15   -584.6738192 -0.678403E-08  0.117E-03    0.00       5.8  T
  16   -584.6738199 -0.793107E-06  0.572E-04    0.00      11.8  T
  17   -584.6738201 -0.147508E-06  0.205E-04    0.00      33.0  T
     SCC iter.                  ...        0 min,  3.583 sec
     gradient                   ...        0 min,  0.222 sec
 * total energy  :  -580.3444522 Eh     change       -0.4143598E-03 Eh
   gradient norm :     0.0062544 Eh/α   predicted    -0.3065381E-03 ( -26.02%)
   displ. norm   :     0.6542291 α      lambda       -0.5527991E-03
   maximum displ.:     0.3200396 α      in ANC's #12, #5, #10, ...

........................................................................
.............................. CYCLE   27 ..............................
........................................................................

 iter      E             dE          RMSdq      gap      omega  full diag
   1   -584.6733557 -0.584673E+03  0.494E-02    0.00       0.0  T
   2   -584.3125248  0.360831E+00  0.646E-01    0.03       1.0  T
   3   -584.6258716 -0.313347E+00  0.286E-01    0.02       1.0  T
   4   -584.6681685 -0.422969E-01  0.105E-01    0.01       1.0  T
   5   -584.6690295 -0.861060E-03  0.101E-01    0.00       1.0  T
   6   -584.6654006  0.362896E-02  0.117E-01    0.01       1.0  T
   7   -584.6585468  0.685380E-02  0.163E-01    0.00       1.0  T
   8   -584.6723676 -0.138208E-01  0.620E-02    0.00       1.0  T
   9   -584.6739505 -0.158291E-02  0.295E-02    0.00       1.0  T
  10   -584.6737548  0.195768E-03  0.362E-02    0.00       1.0  T
  11   -584.6741884 -0.433607E-03  0.217E-02    0.00       1.0  T
  12   -584.6741717  0.166631E-04  0.172E-02    0.00       1.0  T
  13   -584.6744254 -0.253687E-03  0.269E-03    0.00       2.5  T
  14   -584.6744260 -0.589888E-06  0.246E-03    0.00       2.8  T
  15   -584.6744286 -0.264350E-05  0.110E-03    0.00       6.1  T
  16   -584.6744289 -0.303977E-06  0.720E-04    0.00       9.4  T
  17   -584.6744292 -0.249692E-06  0.286E-04    0.00      23.7  T
     SCC iter.                  ...        0 min,  3.371 sec
     gradient                   ...        0 min,  0.224 sec
 * total energy  :  -580.3449171 Eh     change       -0.4649892E-03 Eh
   gradient norm :     0.0044504 Eh/α   predicted    -0.3947119E-03 ( -15.11%)
   displ. norm   :     0.6656705 α      lambda       -0.4468815E-03
   maximum displ.:     0.3249682 α      in ANC's #12, #5, #10, ...

........................................................................
.............................. CYCLE   28 ..............................
........................................................................

 iter      E             dE          RMSdq      gap      omega  full diag
   1   -584.6740953 -0.584674E+03  0.416E-02    0.00       0.0  T
   2   -584.4100366  0.264059E+00  0.565E-01    0.00       1.0  T
   3   -584.6417462 -0.231710E+00  0.212E-01    0.02       1.0  T
   4   -584.6691148 -0.273686E-01  0.962E-02    0.01       1.0  T
   5   -584.6687472  0.367572E-03  0.105E-01    0.01       1.0  T
   6   -584.6569196  0.118276E-01  0.170E-01    0.01       1.0  T
   7   -584.6668561 -0.993646E-02  0.114E-01    0.01       1.0  T
   8   -584.6732873 -0.643126E-02  0.495E-02    0.00       1.0  T
   9   -584.6744452 -0.115790E-02  0.225E-02    0.00       1.0  T
  10   -584.6741971  0.248118E-03  0.332E-02    0.00       1.0  T
  11   -584.6745109 -0.313833E-03  0.183E-02    0.00       1.0  T
  12   -584.6746656 -0.154670E-03  0.745E-03    0.00       1.0  T
  13   -584.6746999 -0.342803E-04  0.234E-03    0.00       2.9  T
  14   -584.6747025 -0.256992E-05  0.148E-03    0.00       4.6  T
  15   -584.6747033 -0.876428E-06  0.108E-03    0.00       6.3  T
  16   -584.6747041 -0.748981E-06  0.404E-04    0.00      16.8  T
  17   -584.6747041  0.145828E-07  0.349E-04    0.00      19.4  T
     SCC iter.                  ...        0 min,  3.547 sec
     gradient                   ...        0 min,  0.234 sec
 * total energy  :  -580.3452869 Eh     change       -0.3697387E-03 Eh
   gradient norm :     0.0050377 Eh/α   predicted    -0.3224536E-03 ( -12.79%)
   displ. norm   :     0.6329596 α      lambda       -0.3501124E-03
   maximum displ.:     0.3077828 α      in ANC's #5, #12, #10, ...

........................................................................
.............................. CYCLE   29 ..............................
........................................................................

 iter      E             dE          RMSdq      gap      omega  full diag
   1   -584.6748182 -0.584675E+03  0.321E-02    0.00       0.0  T
   2   -584.5618449  0.112973E+00  0.412E-01    0.02       1.0  T
   3   -584.6595059 -0.976609E-01  0.133E-01    0.02       1.0  T
   4   -584.6675822 -0.807633E-02  0.974E-02    0.01       1.0  T
   5   -584.6669228  0.659414E-03  0.123E-01    0.01       1.0  T
   6   -584.6646836  0.223922E-02  0.132E-01    0.01       1.0  T
   7   -584.6717030 -0.701947E-02  0.706E-02    0.00       1.0  T
   8   -584.6728552 -0.115213E-02  0.602E-02    0.00       1.0  T
   9   -584.6747929 -0.193777E-02  0.185E-02    0.00       1.0  T
  10   -584.6749324 -0.139447E-03  0.156E-02    0.00       1.0  T
  11   -584.6750267 -0.943184E-04  0.533E-03    0.00       1.3  T
  12   -584.6750089  0.178012E-04  0.908E-03    0.00       1.0  T
  13   -584.6750410 -0.320479E-04  0.233E-03    0.00       2.9  T
  14   -584.6750434 -0.240414E-05  0.157E-03    0.00       4.3  T
  15   -584.6750414  0.192987E-05  0.194E-03    0.00       3.5  T
  16   -584.6750450 -0.358373E-05  0.252E-04    0.00      26.9  T
  17   -584.6750450  0.268105E-07  0.273E-04    0.00      24.8  T
  18   -584.6750450 -0.418526E-07  0.118E-04    0.00      57.2  T
     SCC iter.                  ...        0 min,  3.302 sec
     gradient                   ...        0 min,  0.229 sec
 * total energy  :  -580.3455852 Eh     change       -0.2982930E-03 Eh
   gradient norm :     0.0055069 Eh/α   predicted    -0.2451940E-03 ( -17.80%)
   displ. norm   :     0.6144684 α      lambda       -0.3293256E-03
   maximum displ.:     0.3040224 α      in ANC's #5, #12, #10, ...

........................................................................
.............................. CYCLE   30 ..............................
........................................................................

 iter      E             dE          RMSdq      gap      omega  full diag
   1   -584.6756290 -0.584676E+03  0.315E-02    0.00       0.0  T
   2   -584.5286789  0.146950E+00  0.453E-01    0.02       1.0  T
   3   -584.6611127 -0.132434E+00  0.134E-01    0.01       1.0  T
   4   -584.6710296 -0.991688E-02  0.774E-02    0.01       1.0  T
   5   -584.6657514  0.527819E-02  0.139E-01    0.01       1.0  T
   6   -584.6696128 -0.386143E-02  0.113E-01    0.00       1.0  T
   7   -584.6735072 -0.389435E-02  0.565E-02    0.01       1.0  T
   8   -584.6746016 -0.109442E-02  0.429E-02    0.01       1.0  T
   9   -584.6753720 -0.770394E-03  0.241E-02    0.00       1.0  T
  10   -584.6758069 -0.434875E-03  0.131E-02    0.00       1.0  T
  11   -584.6757384  0.684245E-04  0.135E-02    0.00       1.0  T
  12   -584.6758495 -0.111052E-03  0.980E-03    0.00       1.0  T
  13   -584.6758905 -0.409704E-04  0.480E-03    0.00       1.4  T
  14   -584.6759028 -0.123474E-04  0.160E-03    0.00       4.2  T
  15   -584.6759027  0.734371E-07  0.141E-03    0.00       4.8  T
  16   -584.6759041 -0.132582E-05  0.284E-04    0.00      23.8  T
  17   -584.6759040  0.824365E-07  0.372E-04    0.00      18.2  T
  18   -584.6759041 -0.988792E-07  0.133E-04    0.00      51.1  T
     SCC iter.                  ...        0 min,  3.283 sec
     gradient                   ...        0 min,  0.225 sec
 * total energy  :  -580.3458650 Eh     change       -0.2798053E-03 Eh
   gradient norm :     0.0047822 Eh/α   predicted    -0.2268358E-03 ( -18.93%)
   displ. norm   :     0.5889004 α      lambda       -0.3034482E-03
   maximum displ.:     0.2981658 α      in ANC's #5, #12, #10, ...

........................................................................
.............................. CYCLE   31 ..............................
........................................................................

 iter      E             dE          RMSdq      gap      omega  full diag
   1   -584.6763735 -0.584676E+03  0.377E-02    0.00       0.0  T
   2   -584.3069997  0.369374E+00  0.668E-01    0.01       1.0  T
   3   -584.6430606 -0.336061E+00  0.215E-01    0.01       1.0  T
   4   -584.6736714 -0.306108E-01  0.706E-02    0.01       1.0  T
   5   -584.6745149 -0.843505E-03  0.759E-02    0.00       1.0  T
   6   -584.6741457  0.369233E-03  0.818E-02    0.00       1.0  T
   7   -584.6737476  0.398044E-03  0.735E-02    0.01       1.0  T
   8   -584.6745060 -0.758387E-03  0.690E-02    0.00       1.0  T
   9   -584.6765385 -0.203250E-02  0.265E-02    0.00       1.0  T
  10   -584.6759216  0.616853E-03  0.389E-02    0.00       1.0  T
  11   -584.6767191 -0.797413E-03  0.180E-02    0.00       1.0  T
  12   -584.6769585 -0.239474E-03  0.950E-03    0.00       1.0  T
  13   -584.6770096 -0.510991E-04  0.373E-03    0.00       1.8  T
  14   -584.6770128 -0.313341E-05  0.258E-03    0.00       2.6  T
  15   -584.6770159 -0.309707E-05  0.110E-03    0.00       6.2  T
  16   -584.6770165 -0.684574E-06  0.396E-04    0.00      17.1  T
  17   -584.6770164  0.179497E-06  0.560E-04    0.00      12.1  T
     SCC iter.                  ...        0 min,  3.244 sec
     gradient                   ...        0 min,  0.252 sec
 * total energy  :  -580.3461113 Eh     change       -0.2463308E-03 Eh
   gradient norm :     0.0037495 Eh/α   predicted    -0.2043565E-03 ( -17.04%)
   displ. norm   :     0.5312883 α      lambda       -0.2251840E-03
   maximum displ.:     0.2762057 α      in ANC's #5, #12, #10, ...

........................................................................
.............................. CYCLE   32 ..............................
........................................................................

 iter      E             dE          RMSdq      gap      omega  full diag
   1   -584.6771161 -0.584677E+03  0.370E-02    0.00       0.0  T
   2   -584.2776284  0.399488E+00  0.690E-01    0.02       1.0  T
   3   -584.6436375 -0.366009E+00  0.219E-01    0.01       1.0  T
   4   -584.6740852 -0.304477E-01  0.756E-02    0.01       1.0  T
   5   -584.6761100 -0.202479E-02  0.619E-02    0.00       1.0  T
   6   -584.6760931  0.169728E-04  0.629E-02    0.00       1.0  T
   7   -584.6762449 -0.151874E-03  0.538E-02    0.01       1.0  T
   8   -584.6767657 -0.520815E-03  0.461E-02    0.00       1.0  T
   9   -584.6772358 -0.470046E-03  0.296E-02    0.00       1.0  T
  10   -584.6767505  0.485309E-03  0.389E-02    0.00       1.0  T
  11   -584.6775387 -0.788223E-03  0.180E-02    0.00       1.0  T
  12   -584.6777023 -0.163589E-03  0.115E-02    0.00       1.0  T
  13   -584.6778005 -0.982313E-04  0.324E-03    0.00       2.1  T
  14   -584.6778029 -0.239442E-05  0.214E-03    0.00       3.2  T
  15   -584.6778051 -0.214779E-05  0.104E-03    0.00       6.5  T
  16   -584.6778057 -0.616796E-06  0.353E-04    0.00      19.2  T
  17   -584.6778055  0.139687E-06  0.511E-04    0.00      13.3  T
     SCC iter.                  ...        0 min,  3.136 sec
     gradient                   ...        0 min,  0.228 sec
 * total energy  :  -580.3462900 Eh     change       -0.1786579E-03 Eh
   gradient norm :     0.0038453 Eh/α   predicted    -0.1444078E-03 ( -19.17%)
   displ. norm   :     0.4521237 α      lambda       -0.1630477E-03
   maximum displ.:     0.2410288 α      in ANC's #5, #12, #10, ...

........................................................................
.............................. CYCLE   33 ..............................
........................................................................

 iter      E             dE          RMSdq      gap      omega  full diag
   1   -584.6778362 -0.584678E+03  0.295E-02    0.00       0.0  T
   2   -584.3896783  0.288158E+00  0.589E-01    0.01       1.0  T
   3   -584.6564613 -0.266783E+00  0.172E-01    0.01       1.0  T
   4   -584.6758839 -0.194226E-01  0.611E-02    0.01       1.0  T
   5   -584.6765201 -0.636211E-03  0.605E-02    0.00       1.0  T
   6   -584.6731534  0.336672E-02  0.102E-01    0.00       1.0  T
   7   -584.6774445 -0.429114E-02  0.393E-02    0.00       1.0  T
   8   -584.6774317  0.127659E-04  0.436E-02    0.00       1.0  T
   9   -584.6780090 -0.577246E-03  0.167E-02    0.00       1.0  T
  10   -584.6780165 -0.746773E-05  0.198E-02    0.00       1.0  T
  11   -584.6781985 -0.182033E-03  0.110E-02    0.00       1.0  T
  12   -584.6781833  0.151485E-04  0.102E-02    0.00       1.0  T
  13   -584.6782599 -0.765498E-04  0.227E-03    0.00       3.0  T
  14   -584.6782622 -0.232290E-05  0.824E-04    0.00       8.2  T
  15   -584.6782625 -0.253859E-06  0.642E-04    0.00      10.6  T
  16   -584.6782626 -0.146318E-06  0.294E-04    0.00      23.1  T
     SCC iter.                  ...        0 min,  3.055 sec
     gradient                   ...        0 min,  0.220 sec
 * total energy  :  -580.3464245 Eh     change       -0.1345674E-03 Eh
   gradient norm :     0.0040469 Eh/α   predicted    -0.9818922E-04 ( -27.03%)
   displ. norm   :     0.4201515 α      lambda       -0.1570879E-03
   maximum displ.:     0.2279465 α      in ANC's #5, #4, #10, ...

........................................................................
.............................. CYCLE   34 ..............................
........................................................................

 iter      E             dE          RMSdq      gap      omega  full diag
   1   -584.6782975 -0.584678E+03  0.246E-02    0.00       0.0  T
   2   -584.4998471  0.178450E+00  0.469E-01    0.01       1.0  T
   3   -584.6635240 -0.163677E+00  0.141E-01    0.01       1.0  T
   4   -584.6768006 -0.132766E-01  0.520E-02    0.01       1.0  T
   5   -584.6757834  0.101713E-02  0.717E-02    0.00       1.0  T
   6   -584.6744528  0.133064E-02  0.896E-02    0.00       1.0  T
   7   -584.6780479 -0.359509E-02  0.319E-02    0.00       1.0  T
   8   -584.6777886  0.259323E-03  0.407E-02    0.00       1.0  T
   9   -584.6782914 -0.502871E-03  0.189E-02    0.00       1.0  T
  10   -584.6783669 -0.754200E-04  0.201E-02    0.00       1.0  T
  11   -584.6785144 -0.147509E-03  0.693E-03    0.00       1.0  T
  12   -584.6785186 -0.427539E-05  0.708E-03    0.00       1.0  T
  13   -584.6785429 -0.242528E-04  0.316E-03    0.00       2.1  T
  14   -584.6785494 -0.650577E-05  0.128E-03    0.00       5.3  T
  15   -584.6785506 -0.117659E-05  0.655E-04    0.00      10.3  T
  16   -584.6785508 -0.193112E-06  0.225E-04    0.00      30.0  T
  17   -584.6785507  0.525725E-07  0.326E-04    0.00      20.8  T
     SCC iter.                  ...        0 min,  3.332 sec
     gradient                   ...        0 min,  0.220 sec
 * total energy  :  -580.3465572 Eh     change       -0.1327080E-03 Eh
   gradient norm :     0.0036768 Eh/α   predicted    -0.9241152E-04 ( -30.36%)
   displ. norm   :     0.4375531 α      lambda       -0.1714340E-03
   maximum displ.:     0.2382078 α      in ANC's #5, #4, #10, ...

........................................................................
.............................. CYCLE   35 ..............................
........................................................................

 iter      E             dE          RMSdq      gap      omega  full diag
   1   -584.6783937 -0.584678E+03  0.237E-02    0.00       0.0  T
   2   -584.5869697  0.914240E-01  0.357E-01    0.01       1.0  T
   3   -584.6652518 -0.782821E-01  0.126E-01    0.02       1.0  T
   4   -584.6759329 -0.106811E-01  0.589E-02    0.01       1.0  T
   5   -584.6745661  0.136683E-02  0.843E-02    0.00       1.0  T
   6   -584.6737010  0.865162E-03  0.939E-02    0.00       1.0  T
   7   -584.6778949 -0.419394E-02  0.381E-02    0.00       1.0  T
   8   -584.6776480  0.246892E-03  0.439E-02    0.00       1.0  T
   9   -584.6783092 -0.661207E-03  0.231E-02    0.00       1.0  T
  10   -584.6784434 -0.134202E-03  0.148E-02    0.00       1.0  T
  11   -584.6785536 -0.110218E-03  0.405E-03    0.00       1.7  T
  12   -584.6785217  0.319495E-04  0.648E-03    0.00       1.0  T
  13   -584.6785609 -0.392174E-04  0.122E-03    0.00       5.5  T
  14   -584.6785601  0.823616E-06  0.171E-03    0.00       4.0  T
  15   -584.6785614 -0.128193E-05  0.665E-04    0.00      10.2  T
  16   -584.6785616 -0.201618E-06  0.226E-04    0.00      30.0  T
  17   -584.6785615  0.405799E-07  0.290E-04    0.00      23.3  T
     SCC iter.                  ...        0 min,  3.342 sec
     gradient                   ...        0 min,  0.228 sec
 * total energy  :  -580.3466998 Eh     change       -0.1425557E-03 Eh
   gradient norm :     0.0032569 Eh/α   predicted    -0.1021286E-03 ( -28.36%)
   displ. norm   :     0.4407139 α      lambda       -0.1653270E-03
   maximum displ.:     0.2376825 α      in ANC's #5, #4, #10, ...

........................................................................
.............................. CYCLE   36 ..............................
........................................................................

 iter      E             dE          RMSdq      gap      omega  full diag
   1   -584.6781970 -0.584678E+03  0.241E-02    0.00       0.0  T
   2   -584.6033440  0.748530E-01  0.340E-01    0.01       1.0  T
   3   -584.6664560 -0.631120E-01  0.118E-01    0.02       1.0  T
   4   -584.6741672 -0.771119E-02  0.708E-02    0.01       1.0  T
[...]
   full:       -0.494      -0.794      -3.567       9.374
molecular quadrupole (traceless):
                xx          xy          yy          xz          yz          zz
 q only:      -24.643     -38.708     -21.365       7.505       6.525      46.008
  q+dip:      -23.586     -18.776      -4.266     -10.434       8.621      27.852
   full:      -31.874     -22.412     -17.949     -17.960      14.096      49.823

           -------------------------------------------------
          |                Geometry Summary                 |
           -------------------------------------------------

      molecular mass/u    :     2831.6329614
   center of mass at/Å    :        0.0385942      -0.1172814       5.2230616
  moments of inertia/u·Å² :        0.7312654E+05   0.1219301E+06   0.1305769E+06
rotational constants/cm⁻¹ :        0.2305269E-03   0.1382565E-03   0.1291012E-03

 * 223 selected distances

     #   Z          #   Z                                           value/Å
     1   6 C        2   6 C                                       1.3937441
     2   6 C        3   6 C                                       1.4235041
     4   6 C        5   6 C                                       1.4207373
     1   6 C        6   6 C                                       1.3799012
     5   6 C        6   6 C                                       1.3549619
     7   6 C        8   6 C                                       1.4155003
     8   6 C        9   6 C                                       1.4298073
     4   6 C       10   7 N                                       1.3288995
     9   6 C       10   7 N                                       1.3214709
    12   6 C       13   7 N                                       1.3258670
     8   6 C       14   6 C                                       1.4264336
    13   7 N       14   6 C                                       1.3248597
    14   6 C       15   6 C                                       1.4134058
    15   6 C       16   6 C                                       1.3722032
     9   6 C       17   6 C                                       1.4180766
    16   6 C       17   6 C                                       1.3694193
    11   6 C       18   6 C                                       1.4283761
    18   6 C       19   6 C                                       1.4011819
    19   6 C       20   6 C                                       1.3775793
    12   6 C       21   6 C                                       1.4223419
    20   6 C       21   6 C                                       1.3585445
     2   6 C       22   8 O                                       1.3222135
    23   6 C       24   6 C                                       1.3994809
    24   6 C       25   6 C                                       1.4157265
    26   6 C       27   6 C                                       1.4246967
    23   6 C       28   6 C                                       1.3808618
    27   6 C       28   6 C                                       1.3547373
    29   6 C       30   6 C                                       1.4174908
    30   6 C       31   6 C                                       1.4279127
    26   6 C       32   7 N                                       1.3240462
    31   6 C       32   7 N                                       1.3249650
    34   6 C       35   7 N                                       1.3239441
    30   6 C       36   6 C                                       1.4251665
    35   7 N       36   6 C                                       1.3182695
    36   6 C       37   6 C                                       1.4168573
    37   6 C       38   6 C                                       1.3680543
    31   6 C       39   6 C                                       1.4146977
    38   6 C       39   6 C                                       1.3709807
    33   6 C       40   6 C                                       1.4338379
    40   6 C       41   6 C                                       1.4026985
    41   6 C       42   6 C                                       1.3740989
    34   6 C       43   6 C                                       1.4231277
    42   6 C       43   6 C                                       1.3526087
    24   6 C       44   8 O                                       1.3235304
    22   8 O       45   5 B                                       1.4596763
    44   8 O       45   5 B                                       1.4637582
    18   6 C       46   7 N                                       1.3825588
    45   5 B       46   7 N                                       1.5279855
    46   7 N       48   6 C                                       1.4507883
    47   6 C       48   6 C                                       1.5285620
    40   6 C       49   7 N                                       1.3825895
    45   5 B       49   7 N                                       1.5427657
    49   7 N       51   6 C                                       1.4571417
    50   6 C       51   6 C                                       1.5248007
    38   6 C       52  16 S                                       1.8472942
    52  16 S       53   9 F                                       1.6567577
    52  16 S       54   9 F                                       1.6453852
    52  16 S       55   9 F                                       1.6084881
    52  16 S       56   9 F                                       1.6580124
    52  16 S       57   9 F                                       1.6476742
    42   6 C       58  16 S                                       1.8475827
    58  16 S       59   9 F                                       1.6719849
    58  16 S       60   9 F                                       1.6355123
    58  16 S       61   9 F                                       1.6025651
    58  16 S       62   9 F                                       1.6573210
    58  16 S       63   9 F                                       1.6754649
    28   6 C       64  16 S                                       1.8522738
    64  16 S       65   9 F                                       1.6505096
    64  16 S       66   9 F                                       1.6519377
    64  16 S       67   9 F                                       1.5987668
    64  16 S       68   9 F                                       1.6715482
    64  16 S       69   9 F                                       1.6609861
    20   6 C       70  16 S                                       1.8577682 (max)
    70  16 S       71   9 F                                       1.6541533
    70  16 S       72   9 F                                       1.6512580
    70  16 S       73   9 F                                       1.5861868
    70  16 S       74   9 F                                       1.6788239
    70  16 S       75   9 F                                       1.6631696
    16   6 C       76  16 S                                       1.8492129
    76  16 S       77   9 F                                       1.6568693
    76  16 S       78   9 F                                       1.6545754
    76  16 S       79   9 F                                       1.6056382
    76  16 S       80   9 F                                       1.6556550
    76  16 S       81   9 F                                       1.6529309
     6   6 C       82  16 S                                       1.8475907
    82  16 S       83   9 F                                       1.6588431
    82  16 S       84   9 F                                       1.5954771
    82  16 S       85   9 F                                       1.6635601
    82  16 S       86   9 F                                       1.6382354
    47   6 C       88   1 H                                       1.0855921
    47   6 C       89   1 H                                       1.0859552
    47   6 C       90   1 H                                       1.0876995
    48   6 C       91   1 H                                       1.0918000
    48   6 C       92   1 H                                       1.0947611
    51   6 C       93   1 H                                       1.0901628
    51   6 C       94   1 H                                       1.0974658
    50   6 C       95   1 H                                       1.0869979
    50   6 C       96   1 H                                       1.0861595
    50   6 C       97   1 H                                       1.0863828
    27   6 C       98   1 H                                       1.0759868
    39   6 C       99   1 H                                       1.0773116
    37   6 C      100   1 H                                       1.0770027
     5   6 C      101   1 H                                       1.0752442
    15   6 C      102   1 H                                       1.0760494
    17   6 C      103   1 H                                       1.0763781
    21   6 C      104   1 H                                       1.0753914
    43   6 C      105   1 H                                       1.0756187
    19   6 C      106   1 H                                       1.0726861 (min)
     1   6 C      107   1 H                                       1.0754843
    41   6 C      108   1 H                                       1.0740181
    23   6 C      109   1 H                                       1.0774367
   110   6 C      111   6 C                                       1.3974475
   111   6 C      112   6 C                                       1.4220828
   113   6 C      114   6 C                                       1.4226076
   110   6 C      115   6 C                                       1.3798363
   114   6 C      115   6 C                                       1.3570365
   116   6 C      117   6 C                                       1.4164453
   117   6 C      118   6 C                                       1.4297051
   113   6 C      119   7 N                                       1.3279917
   118   6 C      119   7 N                                       1.3216059
   121   6 C      122   7 N                                       1.3242028
   117   6 C      123   6 C                                       1.4252525
   122   7 N      123   6 C                                       1.3250905
   123   6 C      124   6 C                                       1.4136701
   124   6 C      125   6 C                                       1.3727708
   118   6 C      126   6 C                                       1.4181951
   125   6 C      126   6 C                                       1.3699789
   120   6 C      127   6 C                                       1.4294697
   127   6 C      128   6 C                                       1.4026213
   128   6 C      129   6 C                                       1.3781171
   121   6 C      130   6 C                                       1.4244235
   129   6 C      130   6 C                                       1.3560504
   111   6 C      131   8 O                                       1.3160257
   132   6 C      133   6 C                                       1.4002407
   133   6 C      134   6 C                                       1.4170789
   135   6 C      136   6 C                                       1.4236446
   132   6 C      137   6 C                                       1.3815139
   136   6 C      137   6 C                                       1.3555043
   138   6 C      139   6 C                                       1.4198121
   139   6 C      140   6 C                                       1.4269119
   135   6 C      141   7 N                                       1.3252663
   140   6 C      141   7 N                                       1.3232023
   143   6 C      144   7 N                                       1.3251411
   139   6 C      145   6 C                                       1.4238126
   144   7 N      145   6 C                                       1.3220356
   145   6 C      146   6 C                                       1.4164766
   146   6 C      147   6 C                                       1.3688959
   140   6 C      148   6 C                                       1.4148153
   147   6 C      148   6 C                                       1.3679256
   142   6 C      149   6 C                                       1.4338616
   149   6 C      150   6 C                                       1.4046411
   150   6 C      151   6 C                                       1.3739172
   143   6 C      152   6 C                                       1.4231390
   151   6 C      152   6 C                                       1.3527976
   133   6 C      153   8 O                                       1.3190545
   131   8 O      154   5 B                                       1.4415979
   153   8 O      154   5 B                                       1.4445870
   127   6 C      155   7 N                                       1.3814363
   154   5 B      155   7 N                                       1.5342735
   155   7 N      157   6 C                                       1.4480186
   156   6 C      157   6 C                                       1.5276987
   149   6 C      158   7 N                                       1.3820515
   154   5 B      158   7 N                                       1.5526622
   158   7 N      160   6 C                                       1.4545175
   159   6 C      160   6 C                                       1.5260178
   147   6 C      161  16 S                                       1.8534327
   161  16 S      162   9 F                                       1.6762769
   161  16 S      163   9 F                                       1.6464752
   161  16 S      164   9 F                                       1.6212990
   161  16 S      165   9 F                                       1.6781946
   161  16 S      166   9 F                                       1.6451840
   151   6 C      167  16 S                                       1.8417518
   167  16 S      168   9 F                                       1.6842203
   167  16 S      169   9 F                                       1.6432540
   167  16 S      170   9 F                                       1.6021071
   167  16 S      171   9 F                                       1.6381469
   167  16 S      172   9 F                                       1.6508807
   137   6 C      173  16 S                                       1.8416969
   173  16 S      174   9 F                                       1.6533019
   173  16 S      175   9 F                                       1.6564594
   173  16 S      176   9 F                                       1.6014879
   173  16 S      177   9 F                                       1.6580628
   173  16 S      178   9 F                                       1.6322094
   129   6 C      179  16 S                                       1.8490068
   179  16 S      180   9 F                                       1.6437538
   179  16 S      181   9 F                                       1.6459557
   179  16 S      182   9 F                                       1.5999945
   179  16 S      183   9 F                                       1.6571661
   179  16 S      184   9 F                                       1.6591134
   125   6 C      185  16 S                                       1.8507081
   185  16 S      186   9 F                                       1.6558425
   185  16 S      187   9 F                                       1.6523321
   185  16 S      188   9 F                                       1.6050753
   185  16 S      189   9 F                                       1.6549369
   185  16 S      190   9 F                                       1.6513131
   115   6 C      191  16 S                                       1.8500337
   191  16 S      192   9 F                                       1.6617067
   191  16 S      193   9 F                                       1.6099297
   191  16 S      194   9 F                                       1.6540917
   191  16 S      195   9 F                                       1.6353605
   191  16 S      196   9 F                                       1.6674060
   156   6 C      197   1 H                                       1.0845922
   156   6 C      198   1 H                                       1.0854957
   156   6 C      199   1 H                                       1.0881313
   157   6 C      200   1 H                                       1.0920995
   157   6 C      201   1 H                                       1.0968396
   160   6 C      202   1 H                                       1.0910842
   160   6 C      203   1 H                                       1.0971743
   159   6 C      204   1 H                                       1.0874349
   159   6 C      205   1 H                                       1.0861583
   159   6 C      206   1 H                                       1.0854165
   136   6 C      207   1 H                                       1.0768171
   148   6 C      208   1 H                                       1.0751784
   146   6 C      209   1 H                                       1.0758874
   114   6 C      210   1 H                                       1.0759163
   124   6 C      211   1 H                                       1.0766325
   126   6 C      212   1 H                                       1.0769199
   130   6 C      213   1 H                                       1.0762311
   152   6 C      214   1 H                                       1.0756667
   128   6 C      215   1 H                                       1.0758163
   110   6 C      216   1 H                                       1.0763374
   150   6 C      217   1 H                                       1.0735770
   132   6 C      218   1 H                                       1.0776528

 * 8 distinct bonds (by element types)

   Z      Z             #   av. dist./Å        max./Å        min./Å
   1 H    6 C          44     1.0820146     1.0974658     1.0726861
   6 C    6 C          72     1.4074518     1.5285620     1.3526087
   5 B    7 N           4     1.5394217     1.5526622     1.5279855
   6 C    7 N          24     1.3552483     1.4571417     1.3182695
   5 B    8 O           4     1.4524048     1.4637582     1.4415979
   6 C    8 O           4     1.3202060     1.3235304     1.3160257
   6 C   16 S          12     1.8490294     1.8577682     1.8416969
   9 F   16 S          59     1.6449124     1.6842203     1.5861868
Note: The following floating-point exceptions are signalling: IEEE_UNDERFLOW_FLAG
normal termination of xtb


optimized geometry written to: xtbopt.mol


           -------------------------------------------------
          | TOTAL ENERGY             -580.399974083410 Eh   |
          | GRADIENT NORM               0.000208932545 Eh/α |
          | HOMO-LUMO GAP               0.001687616477 eV   |
           -------------------------------------------------
########################################################################
[WARNING] Runtime exception occurred
-2- restart_readRestart: Dimension missmatch in restart file.
-1- restart_readRestart: Number of electron missmatch in restart file.
########################################################################

------------------------------------------------------------------------
 * finished run on 2024/11/07 at 16:47:55.228     
------------------------------------------------------------------------
 total:
 * wall-time:     0 d,  0 h, 11 min, 26.242 sec
 *  cpu-time:     0 d,  0 h, 40 min,  2.121 sec
 * ratio c/w:     3.500 speedup
 SCF:
 * wall-time:     0 d,  0 h,  0 min,  8.609 sec
 *  cpu-time:     0 d,  0 h,  0 min, 32.693 sec
 * ratio c/w:     3.797 speedup
 ANC optimizer:
 * wall-time:     0 d,  0 h, 11 min, 17.531 sec
 *  cpu-time:     0 d,  0 h, 39 min, 29.300 sec
 * ratio c/w:     3.497 speedup

