      -----------------------------------------------------------      
     |                   =====================                   |     
     |                           x T B                           |     
     |                   =====================                   |     
     |                         S. Grimme                         |     
     |          Mulliken Center for Theoretical Chemistry        |     
     |                    University of Bonn                     |     
      -----------------------------------------------------------      

   * xtb version 6.6.1 (8d0f1dd) compiled by 'runner@Mac-1690902418499.local' on 2023-08-01

   xtb is free software: you can redistribute it and/or modify it under
   the terms of the GNU Lesser General Public License as published by
   the Free Software Foundation, either version 3 of the License, or
   (at your option) any later version.
   
   xtb is distributed in the hope that it will be useful,
   but WITHOUT ANY WARRANTY; without even the implied warranty of
   MERCHANTABILITY or FITNESS FOR A PARTICULAR PURPOSE.  See the
   GNU Lesser General Public License for more details.
   
   Cite this work as:
   * C. Bannwarth, E. Caldeweyher, S. Ehlert, A. Hansen, P. Pracht,
     J. Seibert, S. Spicher, S. Grimme, WIREs Comput. Mol. Sci., 2020, 11,
     e01493. DOI: 10.1002/wcms.1493
   
   for GFN2-xTB:
   * C. Bannwarth, S. Ehlert and S. Grimme., J. Chem. Theory Comput., 2019,
     15, 1652-1671. DOI: 10.1021/acs.jctc.8b01176
   for GFN1-xTB:
   * S. Grimme, C. Bannwarth, P. Shushkov, J. Chem. Theory Comput., 2017,
     13, 1989-2009. DOI: 10.1021/acs.jctc.7b00118
   for GFN0-xTB:
   * P. Pracht, E. Caldeweyher, S. Ehlert, S. Grimme, ChemRxiv, 2019, preprint.
     DOI: 10.26434/chemrxiv.8326202.v1
   for GFN-FF:
   * S. Spicher and S. Grimme, Angew. Chem. Int. Ed., 2020, 59, 15665-15673.
     DOI: 10.1002/anie.202004239
   
   for ALPB and GBSA implicit solvation:
   * S. Ehlert, M. Stahn, S. Spicher, S. Grimme, J. Chem. Theory Comput.,
     2021, 17, 4250-4261. DOI: 10.1021/acs.jctc.1c00471
   
   for DFT-D4:
   * E. Caldeweyher, C. Bannwarth and S. Grimme, J. Chem. Phys., 2017,
     147, 034112. DOI: 10.1063/1.4993215
   * E. Caldeweyher, S. Ehlert, A. Hansen, H. Neugebauer, S. Spicher,
     C. Bannwarth and S. Grimme, J. Chem. Phys., 2019, 150, 154122.
     DOI: 10.1063/1.5090222
   * E. Caldeweyher, J.-M. Mewes, S. Ehlert and S. Grimme, Phys. Chem. Chem. Phys.
     2020, 22, 8499-8512. DOI: 10.1039/D0CP00502A
   
   for sTDA-xTB:
   * S. Grimme and C. Bannwarth, J. Chem. Phys., 2016, 145, 054103.
     DOI: 10.1063/1.4959605
   
   in the mass-spec context:
   * V. Asgeirsson, C. Bauer and S. Grimme, Chem. Sci., 2017, 8, 4879.
     DOI: 10.1039/c7sc00601b
   * J. Koopman and S. Grimme, ACS Omega 2019, 4, 12, 15120-15133.
     DOI: 10.1021/acsomega.9b02011
   
   for metadynamics refer to:
   * S. Grimme, J. Chem. Theory Comput., 2019, 155, 2847-2862
     DOI: 10.1021/acs.jctc.9b00143
   
   for SPH calculations refer to:
   * S. Spicher and S. Grimme, J. Chem. Theory Comput., 2021, 17, 1701-1714
     DOI: 10.1021/acs.jctc.0c01306
   
   with help from (in alphabetical order)
   P. Atkinson, C. Bannwarth, F. Bohle, G. Brandenburg, E. Caldeweyher
   M. Checinski, S. Dohm, S. Ehlert, S. Ehrlich, I. Gerasimov, C. Hölzer
   A. Katbashev, J. Koopman, C. Lavigne, S. Lehtola, F. März, M. Müller,
   F. Musil, H. Neugebauer, J. Pisarek, C. Plett, P. Pracht, F. Pultar,
   J. Seibert, P. Shushkov, S. Spicher, M. Stahn, M. Steiner, T. Strunk,
   J. Stückrath, T. Rose, and J. Unsleber
   
 * started run on 2024/11/07 at 16:28:41.753     

           -------------------------------------------------
          |                Calculation Setup                |
           -------------------------------------------------

          program call               : xtb Base2SF5.mol --opt --gfn2 --chrg 0 --uhf 1 --tight
          coordinate file            : Base2SF5.mol
          omp threads                :                     8

   ID    Z sym.   atoms
    1    6 C      1-9, 11, 12, 14-21, 23-31, 33, 34, 36-43, 47, 48, 50, 51
    2    7 N      10, 13, 32, 35, 46, 49
    3    8 O      22, 44
    4    5 B      45
    5   16 S      52, 58, 64, 70, 76, 82
    6    9 F      53-57, 59-63, 65-69, 71-75, 77-81, 83-87
    7    1 H      88-109
########################################################################
[WARNING] Please study the warnings concerning your input carefully
-1- prog_main_parseArguments: Unknown option '--tight' provided
########################################################################

           -------------------------------------------------
          |                 G F N 2 - x T B                 |
           -------------------------------------------------

        Reference                      10.1021/acs.jctc.8b01176
      * Hamiltonian:
        H0-scaling (s, p, d)           1.850000    2.230000    2.230000
        zeta-weighting                 0.500000
      * Dispersion:
        s8                             2.700000
        a1                             0.520000
        a2                             5.000000
        s9                             5.000000
      * Repulsion:
        kExp                           1.500000    1.000000
        rExp                           1.000000
      * Coulomb:
        alpha                          2.000000
        third order                    shell-resolved
        anisotropic                    true
        a3                             3.000000
        a5                             4.000000
        cn-shift                       1.200000
        cn-exp                         4.000000
        max-rad                        5.000000


          ...................................................
          :                      SETUP                      :
          :.................................................:
          :  # basis functions                 406          :
          :  # atomic orbitals                 400          :
          :  # shells                          202          :
          :  # electrons                       481          :
          :  max. iterations                   250          :
          :  Hamiltonian                  GFN2-xTB          :
          :  restarted?                      false          :
          :  GBSA solvation                  false          :
          :  PC potential                    false          :
          :  electronic temp.          300.0000000     K    :
          :  accuracy                    1.0000000          :
          :  -> integral cutoff          0.2500000E+02      :
          :  -> integral neglect         0.1000000E-07      :
          :  -> SCF convergence          0.1000000E-05 Eh   :
          :  -> wf. convergence          0.1000000E-03 e    :
          :  Broyden damping             0.4000000          :
          ...................................................

 iter      E             dE          RMSdq      gap      omega  full diag
   1   -291.5071313 -0.291507E+03  0.684E+00    0.16       0.0  T
   2   -291.0589655  0.448166E+00  0.441E+00    0.25       1.0  T
   3   -287.8472646  0.321170E+01  0.426E+00    0.75       1.0  T
   4   -283.6604796  0.418679E+01  0.447E+00    0.28       1.0  T
   5   -289.8829183 -0.622244E+01  0.288E+00    0.21       1.0  T
   6   -291.8445864 -0.196167E+01  0.165E+00    0.32       1.0  T
   7   -291.7637024  0.808840E-01  0.159E+00    0.14       1.0  T
   8   -291.9572244 -0.193522E+00  0.109E+00    0.14       1.0  T
   9   -292.0037062 -0.464818E-01  0.822E-01    0.11       1.0  T
  10   -291.8408835  0.162823E+00  0.122E+00    0.17       1.0  T
  11   -292.0609885 -0.220105E+00  0.454E-01    0.04       1.0  T
  12   -291.8499521  0.211036E+00  0.119E+00    0.03       1.0  T
  13   -291.9277529 -0.778008E-01  0.851E-01    0.21       1.0  T
  14   -291.8810862  0.466667E-01  0.114E+00    0.04       1.0  T
  15   -292.0531609 -0.172075E+00  0.423E-01    0.05       1.0  T
  16   -292.0597435 -0.658268E-02  0.520E-01    0.01       1.0  T
  17   -292.0871982 -0.274547E-01  0.263E-01    0.02       1.0  T
  18   -292.1031745 -0.159763E-01  0.110E-01    0.02       1.0  T
  19   -292.1044032 -0.122871E-02  0.694E-02    0.02       1.0  T
  20   -292.1048816 -0.478314E-03  0.478E-02    0.02       1.0  T
  21   -292.1050983 -0.216741E-03  0.329E-02    0.02       1.0  T
  22   -292.1052718 -0.173484E-03  0.109E-02    0.03       1.0  T
  23   -292.1052829 -0.110813E-04  0.638E-03    0.03       1.5  T
  24   -292.1052888 -0.598810E-05  0.418E-03    0.03       2.3  T
  25   -292.1052902 -0.131567E-05  0.186E-03    0.03       5.1  T
  26   -292.1052910 -0.804921E-06  0.889E-04    0.03      10.8  T
  27   -292.1052911 -0.164629E-06  0.450E-04    0.03      21.3  T

   *** convergence criteria satisfied after 27 iterations ***

         #    Occupation            Energy/Eh            Energy/eV
      -------------------------------------------------------------
         1        2.0000           -0.9084125             -24.7192
       ...           ...                  ...                  ...
       235        2.0000           -0.4608923             -12.5415
       236        2.0000           -0.4565995             -12.4247
       237        2.0000           -0.4454425             -12.1211
       238        1.9971           -0.4413078             -12.0086
       239        1.9807           -0.4394908             -11.9592
       240        1.8283           -0.4372821             -11.8991
       241        0.7556           -0.4338386             -11.8053 (HOMO)
       242        0.4383           -0.4328989             -11.7798 (LUMO)
       243                         -0.3862114             -10.5093
       244                         -0.3828779             -10.4186
       245                         -0.3704555             -10.0806
       246                         -0.3647770              -9.9261
       ...                                ...                  ...
       400                          0.9582578              26.0755
      -------------------------------------------------------------
                  HL-Gap            0.0009397 Eh            0.0256 eV
             Fermi-level           -0.4345069 Eh          -11.8235 eV

 SCC (total)                   0 d,  0 h,  0 min,  2.239 sec
 SCC setup                      ...        0 min,  0.001 sec (  0.058%)
 Dispersion                     ...        0 min,  0.002 sec (  0.074%)
 classical contributions        ...        0 min,  0.001 sec (  0.024%)
 integral evaluation            ...        0 min,  0.012 sec (  0.532%)
 iterations                     ...        0 min,  2.170 sec ( 96.931%)
 molecular gradient             ...        0 min,  0.043 sec (  1.922%)
 printout                       ...        0 min,  0.010 sec (  0.458%)

         :::::::::::::::::::::::::::::::::::::::::::::::::::::
         ::                     SUMMARY                     ::
         :::::::::::::::::::::::::::::::::::::::::::::::::::::
         :: total energy            -289.711228082218 Eh    ::
         :: gradient norm              0.457180847488 Eh/a0 ::
         :: HOMO-LUMO gap              0.025571351948 eV    ::
         ::.................................................::
         :: SCC energy              -292.105291130060 Eh    ::
         :: -> isotropic ES            0.064037317468 Eh    ::
         :: -> anisotropic ES         -0.091365034784 Eh    ::
         :: -> anisotropic XC          0.014358102927 Eh    ::
         :: -> dispersion             -0.208898888753 Eh    ::
         :: repulsion energy           2.388348333341 Eh    ::
         :: add. restraining           0.000000000000 Eh    ::
         :: total charge               0.000000000007 e     ::
         :::::::::::::::::::::::::::::::::::::::::::::::::::::

      ----------------------------------------------------------- 
     |                   =====================                   |
     |                        A N C O P T                        |
     |                   =====================                   |
     |               Approximate Normal Coordinate               |
     |                Rational Function Optimizer                |
      ----------------------------------------------------------- 

          ...................................................
          :                      SETUP                      :
          :.................................................:
          :   optimization level            normal          :
          :   max. optcycles                   327          :
          :   ANC micro-cycles                  20          :
          :   degrees of freedom               321          :
          :.................................................:
          :   RF solver                   davidson          :
          :   write xtbopt.log                true          :
          :   linear?                        false          :
          :   energy convergence         0.5000000E-05 Eh   :
          :   grad. convergence          0.1000000E-02 Eh/α :
          :   maxmium RF displ.          1.0000000          :
          :   Hlow (freq-cutoff)         0.1000000E-01      :
          :   Hmax (freq-cutoff)         5.0000000          :
          :   S6 in model hess.         20.0000000          :
          ...................................................

generating ANC from model Hessian ...
Using Lindh-Hessian (1995)
 Shifting diagonal of input Hessian by    9.8535345318053625E-003
 Lowest  eigenvalues of input Hessian
    0.000000    0.000000    0.000000    0.000000    0.000000    0.000000
    0.010000    0.010290    0.010365    0.010435    0.010764    0.010921
    0.011107    0.011259    0.011391    0.011553    0.011685    0.012071
 Highest eigenvalues
    2.296591    2.301848    2.319330    2.325820    2.360394    2.387737


........................................................................
.............................. CYCLE    1 ..............................
........................................................................

 iter      E             dE          RMSdq      gap      omega  full diag
   1   -292.1052912 -0.292105E+03  0.312E-04    0.03       0.0  T
   2   -292.1052856  0.551230E-05  0.419E-03    0.03       2.3  T
   3   -292.1052910 -0.537905E-05  0.804E-04    0.03      11.9  T
   4   -292.1052912 -0.142917E-06  0.267E-04    0.03      35.9  T
   5   -292.1052912 -0.584197E-08  0.245E-04    0.03      39.1  T
     SCC iter.                  ...        0 min,  0.354 sec
     gradient                   ...        0 min,  0.039 sec
 * total energy  :  -289.7112281 Eh     change       -0.3696618E-07 Eh
   gradient norm :     0.4571800 Eh/α   predicted     0.0000000E+00 (-100.00%)
   displ. norm   :     0.5391677 α      lambda       -0.1824143E+00
   maximum displ.:     0.1040196 α      in ANC's #171, #199, #38, ...

........................................................................
.............................. CYCLE    2 ..............................
........................................................................

 iter      E             dE          RMSdq      gap      omega  full diag
   1   -292.1678219 -0.292168E+03  0.310E-01    0.02       0.0  T
   2   -291.9465088  0.221313E+00  0.108E+00    0.04       1.0  T
   3   -292.1511757 -0.204667E+00  0.356E-01    0.03       1.0  T
   4   -292.0314311  0.119745E+00  0.801E-01    0.08       1.0  T
   5   -292.1306965 -0.992654E-01  0.394E-01    0.10       1.0  T
   6   -292.0760243  0.546723E-01  0.557E-01    0.14       1.0  T
   7   -292.1614546 -0.854303E-01  0.207E-01    0.05       1.0  T
   8   -292.1654736 -0.401900E-02  0.156E-01    0.03       1.0  T
   9   -292.1673238 -0.185023E-02  0.126E-01    0.02       1.0  T
  10   -292.1694235 -0.209965E-02  0.722E-02    0.02       1.0  T
  11   -292.1701261 -0.702616E-03  0.369E-02    0.02       1.0  T
  12   -292.1703271 -0.201011E-03  0.131E-02    0.02       1.0  T
  13   -292.1703700 -0.429154E-04  0.466E-03    0.02       2.1  T
  14   -292.1703724 -0.243470E-05  0.265E-03    0.02       3.6  T
  15   -292.1703737 -0.123191E-05  0.126E-03    0.02       7.6  T
  16   -292.1703739 -0.195785E-06  0.731E-04    0.02      13.1  T
  17   -292.1703738  0.272746E-07  0.718E-04    0.02      13.3  T
     SCC iter.                  ...        0 min,  1.566 sec
     gradient                   ...        0 min,  0.042 sec
 * total energy  :  -289.8579423 Eh     change       -0.1467142E+00 Eh
   gradient norm :     0.2660462 Eh/α   predicted    -0.1178494E+00 ( -19.67%)
   displ. norm   :     0.6182302 α      lambda       -0.1282582E+00
   maximum displ.:     0.1253848 α      in ANC's #38, #171, #51, ...

........................................................................
.............................. CYCLE    3 ..............................
........................................................................

 iter      E             dE          RMSdq      gap      omega  full diag
   1   -292.2274542 -0.292227E+03  0.366E-01    0.00       0.0  T
   2   -292.1038202  0.123634E+00  0.757E-01    0.08       1.0  T
   3   -292.1511374 -0.473173E-01  0.570E-01    0.16       1.0  T
   4   -292.0495075  0.101630E+00  0.841E-01    0.15       1.0  T
   5   -292.2161941 -0.166687E+00  0.280E-01    0.02       1.0  T
   6   -292.1309280  0.852661E-01  0.648E-01    0.06       1.0  T
   7   -292.2155629 -0.846349E-01  0.259E-01    0.03       1.0  T
   8   -292.2261368 -0.105739E-01  0.143E-01    0.02       1.0  T
   9   -292.2297938 -0.365699E-02  0.597E-02    0.01       1.0  T
  10   -292.2303704 -0.576547E-03  0.216E-02    0.01       1.0  T
  11   -292.2303861 -0.157031E-04  0.189E-02    0.01       1.0  T
  12   -292.2304072 -0.211691E-04  0.113E-02    0.01       1.0  T
  13   -292.2304356 -0.283804E-04  0.691E-03    0.01       1.4  T
  14   -292.2304389 -0.332675E-05  0.484E-03    0.01       2.0  T
  15   -292.2304411 -0.213573E-05  0.395E-03    0.01       2.4  T
  16   -292.2304433 -0.219458E-05  0.162E-03    0.01       5.9  T
  17   -292.2304436 -0.288901E-06  0.905E-04    0.01      10.6  T
  18   -292.2304438 -0.203811E-06  0.277E-04    0.01      34.6  T
     SCC iter.                  ...        0 min,  1.514 sec
     gradient                   ...        0 min,  0.042 sec
 * total energy  :  -289.9484747 Eh     change       -0.9053241E-01 Eh
   gradient norm :     0.1015867 Eh/α   predicted    -0.8863984E-01 (  -2.09%)
   displ. norm   :     0.6817741 α      lambda       -0.5225669E-01
   maximum displ.:     0.2229004 α      in ANC's #38, #51, #43, ...

........................................................................
.............................. CYCLE    4 ..............................
........................................................................

 iter      E             dE          RMSdq      gap      omega  full diag
   1   -292.2356967 -0.292236E+03  0.290E-01    0.02       0.0  T
   2   -292.0585882  0.177108E+00  0.823E-01    0.14       1.0  T
   3   -292.1893051 -0.130717E+00  0.481E-01    0.07       1.0  T
   4   -292.2156048 -0.262997E-01  0.352E-01    0.02       1.0  T
   5   -291.9795566  0.236048E+00  0.122E+00    0.08       1.0  T
   6   -292.2232754 -0.243719E+00  0.256E-01    0.05       1.0  T
   7   -292.2336911 -0.104157E-01  0.172E-01    0.01       1.0  T
   8   -292.2363887 -0.269764E-02  0.117E-01    0.01       1.0  T
   9   -292.2392979 -0.290915E-02  0.437E-02    0.00       1.0  T
  10   -292.2391453  0.152534E-03  0.464E-02    0.00       1.0  T
  11   -292.2394135 -0.268129E-03  0.241E-02    0.00       1.0  T
  12   -292.2395392 -0.125709E-03  0.922E-03    0.00       1.0  T
  13   -292.2395213  0.178756E-04  0.110E-02    0.00       1.0  T
  14   -292.2395504 -0.290988E-04  0.484E-03    0.00       2.0  T
  15   -292.2395525 -0.208798E-05  0.306E-03    0.00       3.1  T
  16   -292.2395520  0.452045E-06  0.344E-03    0.00       2.8  T
  17   -292.2395539 -0.182526E-05  0.123E-03    0.00       7.8  T
  18   -292.2395541 -0.206773E-06  0.628E-04    0.00      15.3  T
  19   -292.2395541 -0.561591E-07  0.160E-04    0.00      59.8  T
     SCC iter.                  ...        0 min,  1.593 sec
     gradient                   ...        0 min,  0.042 sec
 * total energy  :  -289.9892011 Eh     change       -0.4072640E-01 Eh
   gradient norm :     0.0612992 Eh/α   predicted    -0.3827323E-01 (  -6.02%)
   displ. norm   :     0.7414248 α      lambda       -0.3213095E-01
   maximum displ.:     0.2610160 α      in ANC's #38, #27, #43, ...

........................................................................
.............................. CYCLE    5 ..............................
........................................................................

 iter      E             dE          RMSdq      gap      omega  full diag
   1   -292.2281490 -0.292228E+03  0.257E-01    0.03       0.0  T
   2   -292.0351389  0.193010E+00  0.842E-01    0.27       1.0  T
   3   -292.2161995 -0.181061E+00  0.334E-01    0.03       1.0  T
   4   -292.1588371  0.573624E-01  0.646E-01    0.03       1.0  T
   5   -292.1730455 -0.142085E-01  0.504E-01    0.09       1.0  T
   6   -292.2268942 -0.538487E-01  0.185E-01    0.01       1.0  T
   7   -292.2263068  0.587418E-03  0.184E-01    0.01       1.0  T
   8   -292.2305478 -0.424102E-02  0.119E-01    0.01       1.0  T
   9   -292.2315929 -0.104514E-02  0.850E-02    0.01       1.0  T
  10   -292.2327980 -0.120505E-02  0.175E-02    0.01       1.0  T
  11   -292.2327454  0.525563E-04  0.200E-02    0.01       1.0  T
  12   -292.2328113 -0.658523E-04  0.101E-02    0.01       1.0  T
  13   -292.2328207 -0.944010E-05  0.622E-03    0.01       1.5  T
  14   -292.2328239 -0.321053E-05  0.529E-03    0.01       1.8  T
  15   -292.2328305 -0.661999E-05  0.267E-03    0.01       3.6  T
  16   -292.2328285  0.200177E-05  0.364E-03    0.01       2.6  T
  17   -292.2328317 -0.311530E-05  0.108E-03    0.01       8.8  T
  18   -292.2328318 -0.180906E-06  0.699E-04    0.01      13.7  T
  19   -292.2328320 -0.117563E-06  0.832E-05    0.01     115.1  T
     SCC iter.                  ...        0 min,  1.428 sec
     gradient                   ...        0 min,  0.041 sec
 * total energy  :  -290.0155719 Eh     change       -0.2637082E-01 Eh
   gradient norm :     0.0449863 Eh/α   predicted    -0.2489685E-01 (  -5.59%)
   displ. norm   :     0.7757787 α      lambda       -0.2267028E-01
   maximum displ.:     0.2700346 α      in ANC's #38, #27, #31, ...

........................................................................
.............................. CYCLE    6 ..............................
........................................................................

 iter      E             dE          RMSdq      gap      omega  full diag
   1   -292.2249720 -0.292225E+03  0.234E-01    0.03       0.0  T
   2   -292.0647496  0.160222E+00  0.776E-01    0.34       1.0  T
   3   -292.2045792 -0.139830E+00  0.350E-01    0.03       1.0  T
   4   -292.0963855  0.108194E+00  0.836E-01    0.03       1.0  T
   5   -292.1290084 -0.326229E-01  0.724E-01    0.07       1.0  T
   6   -292.2090385 -0.800301E-01  0.289E-01    0.04       1.0  T
   7   -292.2190169 -0.997844E-02  0.227E-01    0.01       1.0  T
   8   -292.2224012 -0.338426E-02  0.179E-01    0.02       1.0  T
   9   -292.2263255 -0.392434E-02  0.115E-01    0.01       1.0  T
  10   -292.2279297 -0.160420E-02  0.749E-02    0.01       1.0  T
  11   -292.2288538 -0.924083E-03  0.203E-02    0.01       1.0  T
  12   -292.2289204 -0.666175E-04  0.117E-02    0.01       1.0  T
  13   -292.2289494 -0.289333E-04  0.447E-03    0.01       2.1  T
  14   -292.2289532 -0.378720E-05  0.202E-03    0.01       4.7  T
  15   -292.2289531  0.693472E-07  0.206E-03    0.01       4.6  T
  16   -292.2289537 -0.635289E-06  0.911E-04    0.01      10.5  T
  17   -292.2289539 -0.196974E-06  0.430E-04    0.01      22.3  T
     SCC iter.                  ...        0 min,  1.260 sec
     gradient                   ...        0 min,  0.042 sec
 * total energy  :  -290.0347462 Eh     change       -0.1917432E-01 Eh
   gradient norm :     0.0346610 Eh/α   predicted    -0.1815701E-01 (  -5.31%)
   displ. norm   :     0.7965695 α      lambda       -0.1710980E-01
   maximum displ.:     0.2684913 α      in ANC's #27, #38, #23, ...

........................................................................
.............................. CYCLE    7 ..............................
........................................................................

 iter      E             dE          RMSdq      gap      omega  full diag
   1   -292.2234010 -0.292223E+03  0.225E-01    0.02       0.0  T
   2   -292.1162284  0.107173E+00  0.677E-01    0.28       1.0  T
   3   -292.1832139 -0.669855E-01  0.409E-01    0.10       1.0  T
   4   -292.1034686  0.797453E-01  0.728E-01    0.04       1.0  T
   5   -292.2090531 -0.105584E+00  0.337E-01    0.03       1.0  T
   6   -292.2116092 -0.255601E-02  0.276E-01    0.01       1.0  T
   7   -292.2185812 -0.697201E-02  0.193E-01    0.03       1.0  T
   8   -292.2240443 -0.546310E-02  0.114E-01    0.02       1.0  T
   9   -292.2263892 -0.234494E-02  0.610E-02    0.01       1.0  T
  10   -292.2267018 -0.312567E-03  0.372E-02    0.02       1.0  T
  11   -292.2270032 -0.301425E-03  0.109E-02    0.01       1.0  T
  12   -292.2270021  0.111201E-05  0.107E-02    0.01       1.0  T
  13   -292.2270260 -0.238926E-04  0.199E-03    0.01       4.8  T
  14   -292.2270257  0.238234E-06  0.223E-03    0.01       4.3  T
  15   -292.2270267 -0.989064E-06  0.876E-04    0.01      10.9  T
  16   -292.2270268 -0.908916E-07  0.577E-04    0.01      16.6  T
     SCC iter.                  ...        0 min,  0.986 sec
     gradient                   ...        0 min,  0.041 sec
 * total energy  :  -290.0493948 Eh     change       -0.1464856E-01 Eh
   gradient norm :     0.0267389 Eh/α   predicted    -0.1398320E-01 (  -4.54%)
   displ. norm   :     0.8053442 α      lambda       -0.1309384E-01
   maximum displ.:     0.2651156 α      in ANC's #23, #27, #31, ...

........................................................................
.............................. CYCLE    8 ..............................
........................................................................

 iter      E             dE          RMSdq      gap      omega  full diag
   1   -292.2225871 -0.292223E+03  0.218E-01    0.02       0.0  T
   2   -292.1318090  0.907781E-01  0.636E-01    0.16       1.0  T
   3   -292.1093068  0.225022E-01  0.669E-01    0.13       1.0  T
   4   -292.1957797 -0.864728E-01  0.340E-01    0.04       1.0  T
   5   -292.1717725  0.240071E-01  0.457E-01    0.12       1.0  T
   6   -292.2229478 -0.511753E-01  0.119E-01    0.03       1.0  T
   7   -292.2217033  0.124451E-02  0.148E-01    0.03       1.0  T
   8   -292.2250644 -0.336108E-02  0.713E-02    0.01       1.0  T
   9   -292.2262308 -0.116640E-02  0.180E-02    0.01       1.0  T
  10   -292.2262542 -0.234297E-04  0.146E-02    0.01       1.0  T
  11   -292.2262497  0.448594E-05  0.148E-02    0.01       1.0  T
  12   -292.2262839 -0.341484E-04  0.564E-03    0.01       1.7  T
  13   -292.2262891 -0.520549E-05  0.268E-03    0.01       3.6  T
  14   -292.2262902 -0.114604E-05  0.144E-03    0.01       6.7  T
  15   -292.2262905 -0.259331E-06  0.898E-04    0.01      10.7  T
  16   -292.2262905 -0.232758E-07  0.784E-04    0.01      12.2  T
     SCC iter.                  ...        0 min,  1.213 sec
     gradient                   ...        0 min,  0.042 sec
 * total energy  :  -290.0606579 Eh     change       -0.1126311E-01 Eh
   gradient norm :     0.0221266 Eh/α   predicted    -0.1079312E-01 (  -4.17%)
   displ. norm   :     0.8056652 α      lambda       -0.1015969E-01
   maximum displ.:     0.2810545 α      in ANC's #23, #31, #7, ...

........................................................................
.............................. CYCLE    9 ..............................
........................................................................

 iter      E             dE          RMSdq      gap      omega  full diag
   1   -292.2237215 -0.292224E+03  0.194E-01    0.02       0.0  T
   2   -292.1615033  0.622182E-01  0.545E-01    0.07       1.0  T
   3   -292.1062663  0.552370E-01  0.686E-01    0.11       1.0  T
   4   -292.2058412 -0.995749E-01  0.285E-01    0.03       1.0  T
   5   -292.1660599  0.397813E-01  0.475E-01    0.14       1.0  T
   6   -292.2246319 -0.585720E-01  0.964E-02    0.02       1.0  T
   7   -292.2235024  0.112955E-02  0.129E-01    0.02       1.0  T
   8   -292.2253890 -0.188663E-02  0.628E-02    0.01       1.0  T
   9   -292.2262699 -0.880908E-03  0.241E-02    0.01       1.0  T
  10   -292.2263470 -0.771224E-04  0.170E-02    0.01       1.0  T
  11   -292.2263641 -0.170242E-04  0.104E-02    0.01       1.0  T
  12   -292.2263726 -0.854254E-05  0.754E-03    0.01       1.3  T
  13   -292.2263822 -0.959661E-05  0.282E-03    0.01       3.4  T
  14   -292.2263836 -0.137424E-05  0.104E-03    0.01       9.2  T
  15   -292.2263837 -0.143774E-06  0.673E-04    0.01      14.2  T
  16   -292.2263838 -0.653121E-07  0.303E-04    0.01      31.7  T
     SCC iter.                  ...        0 min,  1.188 sec
     gradient                   ...        0 min,  0.040 sec
 * total energy  :  -290.0694526 Eh     change       -0.8794734E-02 Eh
   gradient norm :     0.0202739 Eh/α   predicted    -0.8377164E-02 (  -4.75%)
   displ. norm   :     0.8042980 α      lambda       -0.8160611E-02
   maximum displ.:     0.2848426 α      in ANC's #23, #7, #31, ...

........................................................................
.............................. CYCLE   10 ..............................
........................................................................

 iter      E             dE          RMSdq      gap      omega  full diag
   1   -292.2272244 -0.292227E+03  0.157E-01    0.02       0.0  T
   2   -292.1981943  0.290301E-01  0.399E-01    0.02       1.0  T
   3   -292.2039541 -0.575972E-02  0.307E-01    0.05       1.0  T
   4   -292.1050451  0.989090E-01  0.664E-01    0.09       1.0  T
   5   -292.1925089 -0.874638E-01  0.393E-01    0.06       1.0  T
   6   -292.2177449 -0.252360E-01  0.223E-01    0.01       1.0  T
   7   -292.2222500 -0.450508E-02  0.168E-01    0.01       1.0  T
   8   -292.2265129 -0.426294E-02  0.881E-02    0.01       1.0  T
   9   -292.2279256 -0.141272E-02  0.256E-02    0.01       1.0  T
  10   -292.2280505 -0.124852E-03  0.133E-02    0.02       1.0  T
  11   -292.2280349  0.155961E-04  0.144E-02    0.02       1.0  T
  12   -292.2280762 -0.412961E-04  0.334E-03    0.02       2.9  T
  13   -292.2280773 -0.106214E-05  0.261E-03    0.02       3.7  T
  14   -292.2280786 -0.130709E-05  0.108E-03    0.02       8.9  T
  15   -292.2280788 -0.200320E-06  0.258E-04    0.02      37.2  T
  16   -292.2280787  0.285885E-07  0.440E-04    0.02      21.8  T
     SCC iter.                  ...        0 min,  1.269 sec
     gradient                   ...        0 min,  0.040 sec
 * total energy  :  -290.0765590 Eh     change       -0.7106407E-02 Eh
   gradient norm :     0.0190907 Eh/α   predicted    -0.6719844E-02 (  -5.44%)
   displ. norm   :     0.8015719 α      lambda       -0.6748909E-02
   maximum displ.:     0.2980920 α      in ANC's #7, #23, #31, ...

........................................................................
.............................. CYCLE   11 ..............................
........................................................................

 iter      E             dE          RMSdq      gap      omega  full diag
   1   -292.2306763 -0.292231E+03  0.136E-01    0.02       0.0  T
   2   -292.2163280  0.143484E-01  0.272E-01    0.03       1.0  T
   3   -292.2126532  0.367476E-02  0.276E-01    0.02       1.0  T
   4   -292.1330329  0.796203E-01  0.628E-01    0.15       1.0  T
   5   -292.2128730 -0.798401E-01  0.281E-01    0.04       1.0  T
   6   -292.2221335 -0.926048E-02  0.210E-01    0.01       1.0  T
   7   -292.2284349 -0.630143E-02  0.110E-01    0.02       1.0  T
   8   -292.2297842 -0.134928E-02  0.727E-02    0.02       1.0  T
   9   -292.2305643 -0.780093E-03  0.339E-02    0.01       1.0  T
  10   -292.2307681 -0.203808E-03  0.127E-02    0.02       1.0  T
  11   -292.2307994 -0.312599E-04  0.638E-03    0.02       1.5  T
  12   -292.2308062 -0.686307E-05  0.262E-03    0.02       3.7  T
  13   -292.2308074 -0.122792E-05  0.119E-03    0.02       8.0  T
  14   -292.2308078 -0.311039E-06  0.762E-04    0.02      12.6  T
  15   -292.2308078 -0.784265E-07  0.365E-04    0.02      26.3  T
     SCC iter.                  ...        0 min,  1.137 sec
     gradient                   ...        0 min,  0.039 sec
 * total energy  :  -290.0824591 Eh     change       -0.5900026E-02 Eh
   gradient norm :     0.0181663 Eh/α   predicted    -0.5542605E-02 (  -6.06%)
   displ. norm   :     0.7978476 α      lambda       -0.5726263E-02
   maximum displ.:     0.3124598 α      in ANC's #7, #23, #8, ...

........................................................................
.............................. CYCLE   12 ..............................
........................................................................

 iter      E             dE          RMSdq      gap      omega  full diag
   1   -292.2337953 -0.292234E+03  0.141E-01    0.02       0.0  T
   2   -292.0084470  0.225348E+00  0.108E+00    0.07       1.0  T
   3   -292.2297317 -0.221285E+00  0.161E-01    0.03       1.0  T
   4   -292.0924974  0.137234E+00  0.704E-01    0.12       1.0  T
   5   -292.2230866 -0.130589E+00  0.226E-01    0.04       1.0  T
   6   -292.2305842 -0.749763E-02  0.125E-01    0.01       1.0  T
   7   -292.2332317 -0.264753E-02  0.771E-02    0.01       1.0  T
   8   -292.2342618 -0.103002E-02  0.334E-02    0.02       1.0  T
   9   -292.2344207 -0.158949E-03  0.205E-02    0.02       1.0  T
  10   -292.2344918 -0.710909E-04  0.568E-03    0.02       1.7  T
  11   -292.2344899  0.187092E-05  0.548E-03    0.02       1.7  T
  12   -292.2344935 -0.358775E-05  0.321E-03    0.02       3.0  T
  13   -292.2344949 -0.138682E-05  0.190E-03    0.02       5.0  T
  14   -292.2344958 -0.876499E-06  0.367E-04    0.02      26.1  T
  15   -292.2344958 -0.921818E-08  0.237E-04    0.02      40.5  T
     SCC iter.                  ...        0 min,  1.174 sec
     gradient                   ...        0 min,  0.041 sec
 * total energy  :  -290.0874840 Eh     change       -0.5024953E-02 Eh
   gradient norm :     0.0173151 Eh/α   predicted    -0.4685692E-02 (  -6.75%)
   displ. norm   :     0.7955157 α      lambda       -0.4971677E-02
   maximum displ.:     0.3207380 α      in ANC's #7, #8, #10, ...

........................................................................
.............................. CYCLE   13 ..............................
........................................................................

 iter      E             dE          RMSdq      gap      omega  full diag
   1   -292.2372176 -0.292237E+03  0.153E-01    0.02       0.0  T
   2   -291.9007407  0.336477E+00  0.135E+00    0.16       1.0  T
   3   -292.2328483 -0.332108E+00  0.155E-01    0.04       1.0  T
   4   -292.1200378  0.112810E+00  0.635E-01    0.12       1.0  T
   5   -292.2098172 -0.897793E-01  0.396E-01    0.03       1.0  T
   6   -292.2349819 -0.251647E-01  0.124E-01    0.01       1.0  T
   7   -292.2385527 -0.357084E-02  0.369E-02    0.02       1.0  T
   8   -292.2386620 -0.109237E-03  0.286E-02    0.02       1.0  T
   9   -292.2387880 -0.126041E-03  0.138E-02    0.02       1.0  T
  10   -292.2388200 -0.319434E-04  0.602E-03    0.02       1.6  T
  11   -292.2388254 -0.541286E-05  0.266E-03    0.02       3.6  T
  12   -292.2388265 -0.109512E-05  0.106E-03    0.02       9.1  T
  13   -292.2388265 -0.428322E-07  0.678E-04    0.02      14.1  T
  14   -292.2388264  0.925381E-07  0.795E-04    0.02      12.0  T
     SCC iter.                  ...        0 min,  1.032 sec
     gradient                   ...        0 min,  0.043 sec
 * total energy  :  -290.0918555 Eh     change       -0.4371543E-02 Eh
   gradient norm :     0.0164122 Eh/α   predicted    -0.4058994E-02 (  -7.15%)
   displ. norm   :     0.7963244 α      lambda       -0.4367139E-02
   maximum displ.:     0.3212723 α      in ANC's #7, #10, #8, ...

........................................................................
.............................. CYCLE   14 ..............................
........................................................................

 iter      E             dE          RMSdq      gap      omega  full diag
   1   -292.2418024 -0.292242E+03  0.157E-01    0.02       0.0  T
   2   -291.9109866  0.330816E+00  0.136E+00    0.20       1.0  T
   3   -292.2380335 -0.327047E+00  0.154E-01    0.04       1.0  T
   4   -292.1466804  0.913530E-01  0.580E-01    0.10       1.0  T
   5   -292.1730452 -0.263647E-01  0.588E-01    0.07       1.0  T
   6   -292.2382095 -0.651644E-01  0.154E-01    0.01       1.0  T
   7   -292.2431746 -0.496510E-02  0.546E-02    0.02       1.0  T
   8   -292.2436014 -0.426721E-03  0.288E-02    0.02       1.0  T
   9   -292.2437084 -0.107055E-03  0.163E-02    0.02       1.0  T
  10   -292.2437484 -0.399566E-04  0.863E-03    0.02       1.1  T
  11   -292.2437609 -0.124937E-04  0.235E-03    0.02       4.1  T
  12   -292.2437615 -0.678752E-06  0.139E-03    0.02       6.9  T
  13   -292.2437617 -0.193482E-06  0.734E-04    0.02      13.1  T
  14   -292.2437617  0.919010E-08  0.672E-04    0.02      14.3  T
     SCC iter.                  ...        0 min,  0.938 sec
     gradient                   ...        0 min,  0.039 sec
 * total energy  :  -290.0957047 Eh     change       -0.3849198E-02 Eh
   gradient norm :     0.0155250 Eh/α   predicted    -0.3568249E-02 (  -7.30%)
   displ. norm   :     0.7998164 α      lambda       -0.3869214E-02
   maximum displ.:     0.3208199 α      in ANC's #7, #10, #8, ...

........................................................................
.............................. CYCLE   15 ..............................
........................................................................

 iter      E             dE          RMSdq      gap      omega  full diag
   1   -292.2473032 -0.292247E+03  0.144E-01    0.02       0.0  T
   2   -291.9688221  0.278481E+00  0.126E+00    0.18       1.0  T
   3   -292.2433772 -0.274555E+00  0.154E-01    0.04       1.0  T
   4   -292.1740308  0.693464E-01  0.520E-01    0.08       1.0  T
   5   -292.1656398  0.839105E-02  0.596E-01    0.08       1.0  T
   6   -292.2443868 -0.787471E-01  0.138E-01    0.02       1.0  T
   7   -292.2481064 -0.371958E-02  0.593E-02    0.02       1.0  T
   8   -292.2485354 -0.428947E-03  0.341E-02    0.02       1.0  T
   9   -292.2487233 -0.187960E-03  0.155E-02    0.02       1.0  T
  10   -292.2487593 -0.359891E-04  0.814E-03    0.02       1.2  T
  11   -292.2487669 -0.759809E-05  0.381E-03    0.02       2.5  T
  12   -292.2487694 -0.251192E-05  0.217E-03    0.02       4.4  T
  13   -292.2487705 -0.111589E-05  0.420E-04    0.02      22.8  T
  14   -292.2487705  0.212116E-07  0.412E-04    0.02      23.2  T
  15   -292.2487706 -0.278866E-07  0.243E-04    0.02      39.4  T
     SCC iter.                  ...        0 min,  1.001 sec
     gradient                   ...        0 min,  0.043 sec
 * total energy  :  -290.0991229 Eh     change       -0.3418177E-02 Eh
   gradient norm :     0.0141856 Eh/α   predicted    -0.3172199E-02 (  -7.20%)
   displ. norm   :     0.8048241 α      lambda       -0.3439626E-02
   maximum displ.:     0.3290204 α      in ANC's #10, #7, #8, ...

........................................................................
.............................. CYCLE   16 ..............................
........................................................................

 iter      E             dE          RMSdq      gap      omega  full diag
   1   -292.2527450 -0.292253E+03  0.125E-01    0.02       0.0  T
   2   -292.0796879  0.173057E+00  0.979E-01    0.09       1.0  T
   3   -292.2453256 -0.165638E+00  0.193E-01    0.03       1.0  T
   4   -292.2234807  0.218449E-01  0.357E-01    0.04       1.0  T
   5   -292.1745555  0.489253E-01  0.528E-01    0.11       1.0  T
   6   -292.2510011 -0.764457E-01  0.104E-01    0.02       1.0  T
   7   -292.2525955 -0.159437E-02  0.633E-02    0.03       1.0  T
   8   -292.2530974 -0.501872E-03  0.410E-02    0.02       1.0  T
   9   -292.2534156 -0.318227E-03  0.151E-02    0.02       1.0  T
  10   -292.2534474 -0.317888E-04  0.694E-03    0.02       1.4  T
  11   -292.2534581 -0.107066E-04  0.214E-03    0.02       4.5  T
  12   -292.2534583 -0.209392E-06  0.199E-03    0.02       4.8  T
  13   -292.2534591 -0.807589E-06  0.353E-04    0.02      27.1  T
  14   -292.2534591  0.420582E-07  0.460E-04    0.02      20.8  T
     SCC iter.                  ...        0 min,  1.011 sec
     gradient                   ...        0 min,  0.042 sec
 * total energy  :  -290.1021646 Eh     change       -0.3041645E-02 Eh
   gradient norm :     0.0127647 Eh/α   predicted    -0.2833809E-02 (  -6.83%)
   displ. norm   :     0.8071534 α      lambda       -0.3049752E-02
   maximum displ.:     0.3544360 α      in ANC's #10, #7, #12, ...

........................................................................
.............................. CYCLE   17 ..............................
........................................................................

 iter      E             dE          RMSdq      gap      omega  full diag
   1   -292.2566503 -0.292257E+03  0.110E-01    0.03       0.0  T
   2   -292.2136406  0.430097E-01  0.409E-01    0.03       1.0  T
   3   -292.2344211 -0.207805E-01  0.282E-01    0.08       1.0  T
   4   -292.2390864 -0.466535E-02  0.279E-01    0.04       1.0  T
   5   -292.2129118  0.261747E-01  0.475E-01    0.05       1.0  T
   6   -292.2552976 -0.423858E-01  0.902E-02    0.03       1.0  T
   7   -292.2565060 -0.120845E-02  0.496E-02    0.03       1.0  T
   8   -292.2569114 -0.405385E-03  0.236E-02    0.03       1.0  T
   9   -292.2570367 -0.125248E-03  0.679E-03    0.03       1.4  T
  10   -292.2570363  0.405444E-06  0.593E-03    0.03       1.6  T
  11   -292.2570403 -0.399349E-05  0.411E-03    0.03       2.3  T
  12   -292.2570440 -0.375335E-05  0.198E-03    0.03       4.8  T
  13   -292.2570448 -0.800012E-06  0.440E-04    0.03      21.8  T
  14   -292.2570448 -0.226045E-07  0.314E-04    0.03      30.5  T
     SCC iter.                  ...        0 min,  1.022 sec
     gradient                   ...        0 min,  0.040 sec
 * total energy  :  -290.1048614 Eh     change       -0.2696817E-02 Eh
   gradient norm :     0.0122869 Eh/α   predicted    -0.2518332E-02 (  -6.62%)
   displ. norm   :     0.8024781 α      lambda       -0.2720523E-02
   maximum displ.:     0.3746492 α      in ANC's #10, #7, #12, ...

........................................................................
.............................. CYCLE   18 ..............................
........................................................................

 iter      E             dE          RMSdq      gap      omega  full diag
   1   -292.2587836 -0.292259E+03  0.107E-01    0.03       0.0  T
   2   -292.2068389  0.519447E-01  0.456E-01    0.08       1.0  T
   3   -292.2454230 -0.385842E-01  0.224E-01    0.07       1.0  T
   4   -292.2214803  0.239428E-01  0.388E-01    0.02       1.0  T
   5   -292.2351930 -0.137128E-01  0.353E-01    0.05       1.0  T
   6   -292.2579594 -0.227664E-01  0.775E-02    0.02       1.0  T
   7   -292.2584820 -0.522503E-03  0.607E-02    0.03       1.0  T
   8   -292.2591403 -0.658310E-03  0.229E-02    0.03       1.0  T
   9   -292.2592723 -0.132041E-03  0.684E-03    0.03       1.4  T
  10   -292.2592757 -0.341734E-05  0.442E-03    0.03       2.2  T
  11   -292.2592790 -0.324385E-05  0.193E-03    0.03       5.0  T
  12   -292.2592781  0.861307E-06  0.270E-03    0.03       3.5  T
  13   -292.2592796 -0.151728E-05  0.459E-04    0.03      20.9  T
  14   -292.2592796 -0.915713E-08  0.328E-04    0.03      29.2  T
  15   -292.2592796 -0.726715E-08  0.250E-04    0.03      38.4  T
     SCC iter.                  ...        0 min,  1.328 sec
     gradient                   ...        0 min,  0.040 sec
 * total energy  :  -290.1072688 Eh     change       -0.2407444E-02 Eh
   gradient norm :     0.0126274 Eh/α   predicted    -0.2236242E-02 (  -7.11%)
   displ. norm   :     0.7951006 α      lambda       -0.2492550E-02
   maximum displ.:     0.3904604 α      in ANC's #10, #7, #12, ...

........................................................................
.............................. CYCLE   19 ..............................
........................................................................

 iter      E             dE          RMSdq      gap      omega  full diag
   1   -292.2606680 -0.292261E+03  0.111E-01    0.03       0.0  T
   2   -292.1855945  0.750735E-01  0.551E-01    0.13       1.0  T
   3   -292.2474448 -0.618503E-01  0.224E-01    0.07       1.0  T
   4   -292.2238360  0.236088E-01  0.398E-01    0.01       1.0  T
   5   -292.2300410 -0.620498E-02  0.394E-01    0.05       1.0  T
   6   -292.2602220 -0.301810E-01  0.785E-02    0.03       1.0  T
   7   -292.2607068 -0.484861E-03  0.595E-02    0.03       1.0  T
   8   -292.2614090 -0.702201E-03  0.190E-02    0.03       1.0  T
   9   -292.2614957 -0.866463E-04  0.637E-03    0.03       1.5  T
  10   -292.2614989 -0.324722E-05  0.376E-03    0.03       2.5  T
  11   -292.2614956  0.332212E-05  0.559E-03    0.03       1.7  T
  12   -292.2615007 -0.515074E-05  0.229E-03    0.03       4.2  T
  13   -292.2615017 -0.921127E-06  0.765E-04    0.03      12.5  T
  14   -292.2615018 -0.101779E-06  0.317E-04    0.03      30.2  T
     SCC iter.                  ...        0 min,  1.187 sec
     gradient                   ...        0 min,  0.041 sec
 * total energy  :  -290.1094741 Eh     change       -0.2205273E-02 Eh
   gradient norm :     0.0126857 Eh/α   predicted    -0.2034153E-02 (  -7.76%)
   displ. norm   :     0.7948584 α      lambda       -0.2345303E-02
   maximum displ.:     0.3981099 α      in ANC's #10, #7, #11, ...

........................................................................
.............................. CYCLE   20 ..............................
........................................................................

 iter      E             dE          RMSdq      gap      omega  full diag
   1   -292.2616139 -0.292262E+03  0.102E-01    0.03       0.0  T
   2   -292.1989292  0.626847E-01  0.504E-01    0.10       1.0  T
   3   -292.2526787 -0.537495E-01  0.185E-01    0.06       1.0  T
   4   -292.2123146  0.403641E-01  0.461E-01    0.01       1.0  T
   5   -292.2480532 -0.357386E-01  0.261E-01    0.04       1.0  T
   6   -292.2609265 -0.128733E-01  0.752E-02    0.03       1.0  T
   7   -292.2614627 -0.536271E-03  0.573E-02    0.03       1.0  T
   8   -292.2620558 -0.593093E-03  0.198E-02    0.03       1.0  T
   9   -292.2621309 -0.750656E-04  0.527E-03    0.03       1.8  T
  10   -292.2621331 -0.224633E-05  0.359E-03    0.03       2.7  T
  11   -292.2621321  0.105700E-05  0.454E-03    0.03       2.1  T
  12   -292.2621349 -0.285323E-05  0.230E-03    0.03       4.2  T
  13   -292.2621358 -0.846640E-06  0.854E-04    0.03      11.2  T
  14   -292.2621359 -0.144019E-06  0.408E-04    0.03      23.5  T
     SCC iter.                  ...        0 min,  0.977 sec
     gradient                   ...        0 min,  0.047 sec
 * total energy  :  -290.1115265 Eh     change       -0.2052389E-02 Eh
   gradient norm :     0.0128320 Eh/α   predicted    -0.1913537E-02 (  -6.77%)
   displ. norm   :     0.8027713 α      lambda       -0.2218968E-02
   maximum displ.:     0.3857943 α      in ANC's #10, #7, #11, ...
 * RMSD in coord.:     1.1251987 α      energy gain  -0.4002984E+00 Eh

generating ANC from model Hessian ...
Using Lindh-Hessian (1995)
 Shifting diagonal of input Hessian by    9.9849367241397046E-003
 Lowest  eigenvalues of input Hessian
    0.000000    0.000000    0.000000    0.000000    0.000000    0.000000
    0.010000    0.010095    0.010252    0.010338    0.010491    0.010627
    0.010818    0.010958    0.011098    0.011276    0.011514    0.011833
 Highest eigenvalues
    2.262174    2.266172    2.274837    2.309336    2.350955    2.360578


........................................................................
.............................. CYCLE   21 ..............................
........................................................................

 iter      E             dE          RMSdq      gap      omega  full diag
   1   -292.2647239 -0.292265E+03  0.103E-01    0.04       0.0  T
   2   -292.1767368  0.879872E-01  0.574E-01    0.16       1.0  T
   3   -292.2574143 -0.806775E-01  0.177E-01    0.05       1.0  T
   4   -292.2253659  0.320484E-01  0.437E-01    0.02       1.0  T
   5   -292.2613310 -0.359651E-01  0.145E-01    0.04       1.0  T
   6   -292.2633772 -0.204621E-02  0.975E-02    0.03       1.0  T
   7   -292.2647612 -0.138397E-02  0.602E-02    0.03       1.0  T
   8   -292.2653704 -0.609293E-03  0.244E-02    0.03       1.0  T
   9   -292.2654770 -0.106507E-03  0.786E-03    0.03       1.2  T
  10   -292.2654879 -0.109276E-04  0.345E-03    0.03       2.8  T
  11   -292.2654854  0.251157E-05  0.487E-03    0.03       2.0  T
  12   -292.2654893 -0.389050E-05  0.190E-03    0.03       5.0  T
  13   -292.2654900 -0.734987E-06  0.544E-04    0.03      17.6  T
  14   -292.2654900 -0.511349E-07  0.293E-04    0.03      32.7  T
     SCC iter.                  ...        0 min,  0.893 sec
     gradient                   ...        0 min,  0.042 sec
 * total energy  :  -290.1134384 Eh     change       -0.1911891E-02 Eh
   gradient norm :     0.0132797 Eh/α   predicted     0.0000000E+00 (-100.00%)
   displ. norm   :     0.2183752 α      lambda       -0.8632534E-03
   maximum displ.:     0.0880546 α      in ANC's #8, #6, #15, ...

........................................................................
.............................. CYCLE   22 ..............................
........................................................................

 iter      E             dE          RMSdq      gap      omega  full diag
   1   -292.2670117 -0.292267E+03  0.292E-02    0.03       0.0  T
   2   -292.2597779  0.723383E-02  0.172E-01    0.02       1.0  T
   3   -292.2665315 -0.675366E-02  0.439E-02    0.04       1.0  T
   4   -292.2572784  0.925315E-02  0.196E-01    0.03       1.0  T
   5   -292.2669804 -0.970202E-02  0.167E-02    0.03       1.0  T
   6   -292.2670196 -0.392059E-04  0.956E-03    0.03       1.0  T
   7   -292.2669885  0.311320E-04  0.148E-02    0.03       1.0  T
   8   -292.2670315 -0.430029E-04  0.577E-03    0.03       1.7  T
   9   -292.2670377 -0.625105E-05  0.188E-03    0.03       5.1  T
  10   -292.2670384 -0.661782E-06  0.731E-04    0.03      13.1  T
  11   -292.2670385 -0.783691E-07  0.289E-04    0.03      33.1  T
     SCC iter.                  ...        0 min,  0.934 sec
     gradient                   ...        0 min,  0.040 sec
 * total energy  :  -290.1142168 Eh     change       -0.7783895E-03 Eh
   gradient norm :     0.0083163 Eh/α   predicted    -0.4522201E-03 ( -41.90%)
   displ. norm   :     0.7038960 α      lambda       -0.2214567E-02
   maximum displ.:     0.2892248 α      in ANC's #8, #6, #15, ...

........................................................................
.............................. CYCLE   23 ..............................
........................................................................

 iter      E             dE          RMSdq      gap      omega  full diag
   1   -292.2692895 -0.292269E+03  0.753E-02    0.04       0.0  T
   2   -292.2232367  0.460528E-01  0.415E-01    0.03       1.0  T
   3   -292.2674037 -0.441670E-01  0.907E-02    0.04       1.0  T
   4   -292.2347546  0.326491E-01  0.378E-01    0.06       1.0  T
   5   -292.2685858 -0.338312E-01  0.623E-02    0.03       1.0  T
   6   -292.2685641  0.217672E-04  0.630E-02    0.03       1.0  T
   7   -292.2692521 -0.688021E-03  0.310E-02    0.03       1.0  T
   8   -292.2694124 -0.160332E-03  0.130E-02    0.03       1.0  T
   9   -292.2694375 -0.250684E-04  0.667E-03    0.03       1.4  T
  10   -292.2694457 -0.821076E-05  0.317E-03    0.03       3.0  T
  11   -292.2694475 -0.176958E-05  0.876E-04    0.03      10.9  T
  12   -292.2694473  0.151931E-06  0.118E-03    0.03       8.1  T
  13   -292.2694475 -0.228094E-06  0.429E-04    0.03      22.4  T
  14   -292.2694476 -0.411953E-07  0.200E-04    0.03      47.9  T
     SCC iter.                  ...        0 min,  1.113 sec
     gradient                   ...        0 min,  0.041 sec
 * total energy  :  -290.1160570 Eh     change       -0.1840213E-02 Eh
   gradient norm :     0.0087810 Eh/α   predicted    -0.1655909E-02 ( -10.02%)
   displ. norm   :     0.7635570 α      lambda       -0.1833175E-02
   maximum displ.:     0.3190604 α      in ANC's #8, #6, #15, ...

........................................................................
.............................. CYCLE   24 ..............................
........................................................................

 iter      E             dE          RMSdq      gap      omega  full diag
   1   -292.2696730 -0.292270E+03  0.737E-02    0.04       0.0  T
   2   -292.1970206  0.726525E-01  0.504E-01    0.09       1.0  T
   3   -292.2690689 -0.720483E-01  0.730E-02    0.04       1.0  T
   4   -292.2358012  0.332677E-01  0.409E-01    0.03       1.0  T
   5   -292.2637741 -0.279729E-01  0.174E-01    0.04       1.0  T
   6   -292.2693626 -0.558855E-02  0.529E-02    0.03       1.0  T
   7   -292.2698822 -0.519638E-03  0.230E-02    0.03       1.0  T
   8   -292.2699856 -0.103379E-03  0.638E-03    0.03       1.5  T
   9   -292.2699929 -0.723880E-05  0.251E-03    0.03       3.8  T
  10   -292.2699917  0.118305E-05  0.310E-03    0.03       3.1  T
  11   -292.2699938 -0.215845E-05  0.770E-04    0.03      12.4  T
  12   -292.2699939 -0.935930E-07  0.361E-04    0.03      26.5  T
  13   -292.2699939 -0.450660E-08  0.251E-04    0.03      38.2  T
     SCC iter.                  ...        0 min,  0.835 sec
     gradient                   ...        0 min,  0.041 sec
 * total energy  :  -290.1177126 Eh     change       -0.1655643E-02 Eh
   gradient norm :     0.0146101 Eh/α   predicted    -0.1450983E-02 ( -12.36%)
   displ. norm   :     0.8169081 α      lambda       -0.1931726E-02
   maximum displ.:     0.3459484 α      in ANC's #8, #6, #15, ...

........................................................................
.............................. CYCLE   25 ..............................
........................................................................

 iter      E             dE          RMSdq      gap      omega  full diag
   1   -292.2693837 -0.292269E+03  0.885E-02    0.04       0.0  T
   2   -292.1746787  0.947050E-01  0.593E-01    0.17       1.0  T
   3   -292.2645721 -0.898935E-01  0.158E-01    0.05       1.0  T
   4   -292.2600112  0.456096E-02  0.210E-01    0.02       1.0  T
   5   -292.2604099 -0.398753E-03  0.218E-01    0.04       1.0  T
   6   -292.2694967 -0.908677E-02  0.561E-02    0.04       1.0  T
   7   -292.2700584 -0.561722E-03  0.276E-02    0.04       1.0  T
   8   -292.2702366 -0.178148E-03  0.683E-03    0.04       1.4  T
   9   -292.2702409 -0.429709E-05  0.451E-03    0.03       2.1  T
  10   -292.2702417 -0.852321E-06  0.391E-03    0.04       2.4  T
  11   -292.2702428 -0.104075E-05  0.316E-03    0.04       3.0  T
  12   -292.2702456 -0.283197E-05  0.527E-04    0.03      18.2  T
  13   -292.2702456 -0.999563E-08  0.547E-04    0.04      17.5  T
  14   -292.2702457 -0.525654E-07  0.165E-04    0.04      58.1  T
     SCC iter.                  ...        0 min,  1.140 sec
     gradient                   ...        0 min,  0.044 sec
 * total energy  :  -290.1194877 Eh     change       -0.1775088E-02 Eh
   gradient norm :     0.0174732 Eh/α   predicted    -0.1610422E-02 (  -9.28%)
   displ. norm   :     0.7952023 α      lambda       -0.2084543E-02
   maximum displ.:     0.3492441 α      in ANC's #8, #6, #15, ...

........................................................................
.............................. CYCLE   26 ..............................
........................................................................

 iter      E             dE          RMSdq      gap      omega  full diag
   1   -292.2699324 -0.292270E+03  0.115E-01    0.04       0.0  T
   2   -292.1367984  0.133134E+00  0.697E-01    0.23       1.0  T
   3   -292.2551227 -0.118324E+00  0.251E-01    0.07       1.0  T
   4   -292.2638095 -0.868681E-02  0.180E-01    0.02       1.0  T
   5   -292.2640574 -0.247854E-03  0.195E-01    0.04       1.0  T
   6   -292.2705760 -0.651866E-02  0.753E-02    0.03       1.0  T
   7   -292.2717799 -0.120387E-02  0.215E-02    0.04       1.0  T
   8   -292.2716165  0.163379E-03  0.352E-02    0.04       1.0  T
   9   -292.2718786 -0.262044E-03  0.625E-03    0.04       1.5  T
  10   -292.2718798 -0.123593E-05  0.487E-03    0.04       2.0  T
  11   -292.2718829 -0.313403E-05  0.248E-03    0.04       3.9  T
  12   -292.2718842 -0.123411E-05  0.110E-03    0.04       8.7  T
  13   -292.2718843 -0.145608E-06  0.599E-04    0.04      16.0  T
  14   -292.2718843  0.441307E-07  0.714E-04    0.04      13.4  T
     SCC iter.                  ...        0 min,  1.052 sec
     gradient                   ...        0 min,  0.046 sec
 * total energy  :  -290.1213504 Eh     change       -0.1862713E-02 Eh
   gradient norm :     0.0172273 Eh/α   predicted    -0.1701353E-02 (  -8.66%)
   displ. norm   :     0.7355579 α      lambda       -0.2128861E-02
   maximum displ.:     0.3365071 α      in ANC's #8, #6, #4, ...

........................................................................
.............................. CYCLE   27 ..............................
........................................................................

 iter      E             dE          RMSdq      gap      omega  full diag
   1   -292.2720184 -0.292272E+03  0.149E-01    0.05       0.0  T
   2   -292.0763514  0.195667E+00  0.818E-01    0.28       1.0  T
   3   -292.2333580 -0.157007E+00  0.391E-01    0.12       1.0  T
   4   -292.2713182 -0.379603E-01  0.135E-01    0.03       1.0  T
   5   -292.2722709 -0.952626E-03  0.127E-01    0.04       1.0  T
   6   -292.2732357 -0.964863E-03  0.103E-01    0.03       1.0  T
   7   -292.2750745 -0.183877E-02  0.558E-02    0.03       1.0  T
   8   -292.2753349 -0.260390E-03  0.380E-02    0.04       1.0  T
   9   -292.2755232 -0.188254E-03  0.219E-02    0.04       1.0  T
  10   -292.2756269 -0.103791E-03  0.580E-03    0.04       1.7  T
  11   -292.2756300 -0.304909E-05  0.436E-03    0.04       2.2  T
  12   -292.2756324 -0.237939E-05  0.251E-03    0.04       3.8  T
  13   -292.2756330 -0.653890E-06  0.132E-03    0.04       7.3  T
  14   -292.2756333 -0.226304E-06  0.119E-03    0.04       8.1  T
  15   -292.2756335 -0.219827E-06  0.433E-04    0.04      22.1  T
  16   -292.2756335 -0.474839E-07  0.163E-04    0.04      58.8  T
     SCC iter.                  ...        0 min,  1.621 sec
     gradient                   ...        0 min,  0.043 sec
 * total energy  :  -290.1231488 Eh     change       -0.1798346E-02 Eh
   gradient norm :     0.0162023 Eh/α   predicted    -0.1640337E-02 (  -8.79%)
   displ. norm   :     0.7776683 α      lambda       -0.1872510E-02
   maximum displ.:     0.3466185 α      in ANC's #8, #6, #15, ...

........................................................................
.............................. CYCLE   28 ..............................
........................................................................

 iter      E             dE          RMSdq      gap      omega  full diag
   1   -292.2714076 -0.292271E+03  0.157E-01    0.05       0.0  T
   2   -292.0365650  0.234843E+00  0.882E-01    0.30       1.0  T
   3   -292.2262077 -0.189643E+00  0.426E-01    0.13       1.0  T
   4   -292.2723650 -0.461572E-01  0.127E-01    0.03       1.0  T
   5   -292.2733736 -0.100868E-02  0.107E-01    0.03       1.0  T
   6   -292.2727652  0.608445E-03  0.117E-01    0.03       1.0  T
   7   -292.2745124 -0.174717E-02  0.817E-02    0.04       1.0  T
   8   -292.2756634 -0.115102E-02  0.286E-02    0.04       1.0  T
   9   -292.2756883 -0.248949E-04  0.238E-02    0.04       1.0  T
  10   -292.2758158 -0.127537E-03  0.818E-03    0.04       1.2  T
  11   -292.2758128  0.304931E-05  0.872E-03    0.04       1.1  T
  12   -292.2758258 -0.130618E-04  0.272E-03    0.04       3.5  T
  13   -292.2758269 -0.102869E-05  0.137E-03    0.04       7.0  T
  14   -292.2758268  0.809981E-07  0.161E-03    0.04       5.9  T
  15   -292.2758273 -0.478868E-06  0.339E-04    0.04      28.2  T
  16   -292.2758273  0.608344E-08  0.377E-04    0.04      25.4  T
     SCC iter.                  ...        0 min,  1.227 sec
     gradient                   ...        0 min,  0.042 sec
 * total energy  :  -290.1248203 Eh     change       -0.1671522E-02 Eh
   gradient norm :     0.0165731 Eh/α   predicted    -0.1502472E-02 ( -10.11%)
   displ. norm   :     0.7174648 α      lambda       -0.2055319E-02
   maximum displ.:     0.3017032 α      in ANC's #8, #6, #4, ...

........................................................................
.............................. CYCLE   29 ..............................
........................................................................

 iter      E             dE          RMSdq      gap      omega  full diag
   1   -292.2769985 -0.292277E+03  0.178E-01    0.06       0.0  T
   2   -292.0582938  0.218705E+00  0.871E-01    0.28       1.0  T
   3   -292.2161237 -0.157830E+00  0.488E-01    0.17       1.0  T
   4   -292.2785479 -0.624242E-01  0.143E-01    0.03       1.0  T
   5   -292.2782606  0.287284E-03  0.136E-01    0.04       1.0  T
   6   -292.2788117 -0.551137E-03  0.128E-01    0.03       1.0  T
   7   -292.2793009 -0.489173E-03  0.128E-01    0.04       1.0  T
   8   -292.2822348 -0.293387E-02  0.355E-02    0.05       1.0  T
   9   -292.2822638 -0.290579E-04  0.320E-02    0.05       1.0  T
  10   -292.2825196 -0.255793E-03  0.798E-03    0.04       1.2  T
  11   -292.2825192  0.468072E-06  0.727E-03    0.04       1.3  T
  12   -292.2825234 -0.426611E-05  0.466E-03    0.04       2.1  T
  13   -292.2825283 -0.490761E-05  0.190E-03    0.04       5.0  T
  14   -292.2825282  0.133021E-06  0.193E-03    0.04       5.0  T
  15   -292.2825290 -0.803307E-06  0.669E-04    0.04      14.3  T
  16   -292.2825290 -0.150118E-07  0.582E-04    0.04      16.5  T
     SCC iter.                  ...        0 min,  1.189 sec
     gradient                   ...        0 min,  0.043 sec
 * total energy  :  -290.1264432 Eh     change       -0.1622914E-02 Eh
   gradient norm :     0.0147309 Eh/α   predicted    -0.1556658E-02 (  -4.08%)
   displ. norm   :     0.8303564 α      lambda       -0.1906521E-02
   maximum displ.:     0.3284026 α      in ANC's #8, #6, #15, ...

........................................................................
.............................. CYCLE   30 ..............................
........................................................................

 iter      E             dE          RMSdq      gap      omega  full diag
   1   -292.2752290 -0.292275E+03  0.148E-01    0.06       0.0  T
   2   -292.0944211  0.180808E+00  0.807E-01    0.25       1.0  T
   3   -292.2363014 -0.141880E+00  0.393E-01    0.13       1.0  T
   4   -292.2754428 -0.391414E-01  0.127E-01    0.03       1.0  T
   5   -292.2735982  0.184463E-02  0.154E-01    0.04       1.0  T
   6   -292.2761219 -0.252372E-02  0.108E-01    0.04       1.0  T
   7   -292.2774481 -0.132618E-02  0.898E-02    0.04       1.0  T
   8   -292.2786707 -0.122260E-02  0.378E-02    0.05       1.0  T
   9   -292.2788552 -0.184517E-03  0.201E-02    0.05       1.0  T
  10   -292.2789458 -0.906169E-04  0.850E-03    0.05       1.1  T
  11   -292.2789588 -0.129370E-04  0.371E-03    0.05       2.6  T
  12   -292.2789610 -0.218211E-05  0.108E-03    0.05       8.9  T
  13   -292.2789605  0.452723E-06  0.189E-03    0.05       5.1  T
  14   -292.2789611 -0.615621E-06  0.591E-04    0.05      16.2  T
  15   -292.2789612 -0.383350E-07  0.435E-04    0.05      22.0  T
     SCC iter.                  ...        0 min,  1.830 sec
     gradient                   ...        0 min,  0.053 sec
 * total energy  :  -290.1280252 Eh     change       -0.1581997E-02 Eh
   gradient norm :     0.0155512 Eh/α   predicted    -0.1610533E-02 (   1.80%)
   displ. norm   :     0.6859827 α      lambda       -0.1762289E-02
   maximum displ.:     0.2570232 α      in ANC's #6, #8, #15, ...

........................................................................
.............................. CYCLE   31 ..............................
........................................................................

 iter      E             dE          RMSdq      gap      omega  full diag
   1   -292.2816933 -0.292282E+03  0.113E-01    0.05       0.0  T
   2   -292.1933449  0.883483E-01  0.617E-01    0.10       1.0  T
   3   -292.2497050 -0.563600E-01  0.346E-01    0.12       1.0  T
   4   -292.2781427 -0.284378E-01  0.144E-01    0.03       1.0  T
   5   -292.2792970 -0.115425E-02  0.137E-01    0.04       1.0  T
   6   -292.2822938 -0.299684E-02  0.705E-02    0.06       1.0  T
   7   -292.2826638 -0.369987E-03  0.590E-02    0.05       1.0  T
   8   -292.2834447 -0.780941E-03  0.129E-02    0.05       1.0  T
   9   -292.2834174  0.273934E-04  0.181E-02    0.05       1.0  T
  10   -292.2834770 -0.596661E-04  0.555E-03    0.05       1.7  T
  11   -292.2834781 -0.104446E-05  0.514E-03    0.05       1.9  T
  12   -292.2834829 -0.485759E-05  0.139E-03    0.05       6.9  T
  13   -292.2834834 -0.491949E-06  0.457E-04    0.05      21.0  T
  14   -292.2834834 -0.143169E-07  0.311E-04    0.05      30.8  T
     SCC iter.                  ...        0 min,  1.045 sec
     gradient                   ...        0 min,  0.040 sec
 * total energy  :  -290.1295033 Eh     change       -0.1478104E-02 Eh
   gradient norm :     0.0155317 Eh/α   predicted    -0.1295798E-02 ( -12.33%)
   displ. norm   :     0.7285016 α      lambda       -0.1682590E-02
   maximum displ.:     0.2683299 α      in ANC's #6, #1, #8, ...

........................................................................
.............................. CYCLE   32 ..............................
........................................................................

 iter      E             dE          RMSdq      gap      omega  full diag
   1   -292.2853689 -0.292285E+03  0.106E-01    0.06       0.0  T
   2   -292.2199783  0.653906E-01  0.539E-01    0.06       1.0  T
   3   -292.2568225 -0.368442E-01  0.324E-01    0.11       1.0  T
   4   -292.2819080 -0.250855E-01  0.138E-01    0.04       1.0  T
   5   -292.2831855 -0.127749E-02  0.127E-01    0.05       1.0  T
   6   -292.2853744 -0.218890E-02  0.749E-02    0.06       1.0  T
   7   -292.2864398 -0.106538E-02  0.358E-02    0.06       1.0  T
   8   -292.2867474 -0.307580E-03  0.115E-02    0.05       1.0  T
   9   -292.2867531 -0.578156E-05  0.112E-02    0.05       1.0  T
  10   -292.2867753 -0.222058E-04  0.349E-03    0.05       2.7  T
  11   -292.2867727  0.267644E-05  0.501E-03    0.05       1.9  T
  12   -292.2867777 -0.499779E-05  0.935E-04    0.05      10.2  T
  13   -292.2867779 -0.205231E-06  0.379E-04    0.05      25.3  T
  14   -292.2867779 -0.106511E-07  0.253E-04    0.05      37.9  T
     SCC iter.                  ...        0 min,  1.346 sec
     gradient                   ...        0 min,  0.057 sec
 * total energy  :  -290.1309715 Eh     change       -0.1468231E-02 Eh
   gradient norm :     0.0144456 Eh/α   predicted    -0.1287788E-02 ( -12.29%)
   displ. norm   :     0.7182734 α      lambda       -0.1787407E-02
   maximum displ.:     0.2926694 α      in ANC's #1, #6, #15, ...

........................................................................
.............................. CYCLE   33 ..............................
........................................................................

 iter      E             dE          RMSdq      gap      omega  full diag
   1   -292.2932982 -0.292293E+03  0.698E-02    0.05       0.0  T
   2   -292.2851144  0.818378E-02  0.183E-01    0.07       1.0  T
   3   -292.2835903  0.152409E-02  0.192E-01    0.04       1.0  T
   4   -292.2553117  0.282787E-01  0.401E-01    0.07       1.0  T
   5   -292.2921967 -0.368850E-01  0.774E-02    0.05       1.0  T
   6   -292.2916752  0.521516E-03  0.810E-02    0.06       1.0  T
   7   -292.2931122 -0.143703E-02  0.344E-02    0.05       1.0  T
   8   -292.2933588 -0.246657E-03  0.132E-02    0.05       1.0  T
   9   -292.2933940 -0.351455E-04  0.242E-03    0.05       4.0  T
  10   -292.2933945 -0.488624E-06  0.148E-03    0.05       6.5  T
  11   -292.2933945  0.159485E-07  0.132E-03    0.05       7.2  T
  12   -292.2933948 -0.383939E-06  0.528E-04    0.05      18.1  T
  13   -292.2933949 -0.423113E-07  0.294E-04    0.05      32.5  T
     SCC iter.                  ...        0 min,  2.326 sec
     gradient                   ...        0 min,  0.048 sec
 * total energy  :  -290.1323877 Eh     change       -0.1416182E-02 Eh
   gradient norm :     0.0124803 Eh/α   predicted    -0.1354785E-02 (  -4.34%)
   displ. norm   :     0.8297466 α      lambda       -0.1716081E-02
   maximum displ.:     0.3088105 α      in ANC's #1, #6, #15, ...

........................................................................
.............................. CYCLE   34 ..............................
........................................................................

 iter      E             dE          RMSdq      gap      omega  full diag
   1   -292.2886486 -0.292289E+03  0.111E-01    0.06       0.0  T
   2   -292.2060313  0.826173E-01  0.592E-01    0.09       1.0  T
   3   -292.2623398 -0.563085E-01  0.311E-01    0.11       1.0  T
   4   -292.2822782 -0.199384E-01  0.176E-01    0.04       1.0  T
   5   -292.2826558 -0.377631E-03  0.181E-01    0.05       1.0  T
   6   -292.2885220 -0.586615E-02  0.759E-02    0.06       1.0  T
   7   -292.2896824 -0.116042E-02  0.286E-02    0.06       1.0  T
   8   -292.2898785 -0.196157E-03  0.128E-02    0.06       1.0  T
   9   -292.2899046 -0.260410E-04  0.791E-03    0.05       1.2  T
  10   -292.2899128 -0.826015E-05  0.426E-03    0.06       2.2  T
  11   -292.2899147 -0.187712E-05  0.308E-03    0.06       3.1  T
  12   -292.2899170 -0.226269E-05  0.498E-04    0.05      19.2  T
  13   -292.2899170 -0.213905E-07  0.410E-04    0.05      23.4  T
  14   -292.2899170 -0.293118E-07  0.156E-04    0.05      61.2  T
     SCC iter.                  ...        0 min,  1.162 sec
     gradient                   ...        0 min,  0.042 sec
 * total energy  :  -290.1337804 Eh     change       -0.1392693E-02 Eh
   gradient norm :     0.0146349 Eh/α   predicted    -0.1448790E-02 (   4.03%)
   displ. norm   :     0.7009152 α      lambda       -0.1491369E-02
   maximum displ.:     0.3252653 α      in ANC's #1, #6, #4, ...

........................................................................
.............................. CYCLE   35 ..............................
........................................................................

 iter      E             dE          RMSdq      gap      omega  full diag
   1   -292.2925938 -0.292293E+03  0.748E-02    0.06       0.0  T
   2   -292.2905247  0.206911E-02  0.105E-01    0.05       1.0  T
   3   -292.2666150  0.239098E-01  0.323E-01    0.08       1.0  T
   4   -292.2671115 -0.496556E-03  0.299E-01    0.05       1.0  T
   5   -292.2901882 -0.230767E-01  0.101E-01    0.06       1.0  T
   6   -292.2921014 -0.191319E-02  0.503E-02    0.06       1.0  T
   7   -292.2925700 -0.468667E-03  0.151E-02    0.06       1.0  T
   8   -292.2926090 -0.389980E-04  0.860E-03    0.06       1.1  T
   9   -292.2926245 -0.154733E-04  0.235E-03    0.06       4.1  T
  10   -292.2926250 -0.444028E-06  0.160E-03    0.06       6.0  T
  11   -292.2926255 -0.544551E-06  0.500E-04    0.06      19.1  T
  12   -292.2926255 -0.887178E-08  0.360E-04    0.06      26.6  T
     SCC iter.                  ...        0 min,  1.211 sec
     gradient                   ...        0 min,  0.042 sec
 * total energy  :  -290.1350670 Eh     change       -0.1286625E-02 Eh
   gradient norm :     0.0146665 Eh/α   predicted    -0.1112026E-02 ( -13.57%)
   displ. norm   :     0.7113749 α      lambda       -0.1667746E-02
   maximum displ.:     0.3191621 α      in ANC's #1, #4, #15, ...

........................................................................
.............................. CYCLE   36 ..............................
........................................................................

 iter      E             dE          RMSdq      gap      omega  full diag
   1   -292.2935143 -0.292294E+03  0.886E-02    0.06       0.0  T
   2   -292.2733451  0.201693E-01  0.302E-01    0.06       1.0  T
   3   -292.2887657 -0.154206E-01  0.144E-01    0.07       1.0  T
   4   -292.2625734  0.261924E-01  0.341E-01    0.06       1.0  T
   5   -292.2489506  0.136228E-01  0.432E-01    0.06       1.0  T
   6   -292.2930206 -0.440701E-01  0.570E-02    0.06       1.0  T
   7   -292.2935974 -0.576817E-03  0.236E-02    0.06       1.0  T
   8   -292.2936791 -0.816690E-04  0.132E-02    0.06       1.0  T
   9   -292.2937141 -0.350470E-04  0.443E-03    0.06       2.2  T
  10   -292.2937170 -0.287322E-05  0.188E-03    0.06       5.1  T
  11   -292.2937176 -0.600682E-06  0.724E-04    0.06      13.2  T
  12   -292.2937176 -0.243907E-07  0.514E-04    0.06      18.6  T
     SCC iter.                  ...        0 min,  1.602 sec
     gradient                   ...        0 min,  0.041 sec
 * total energy  :  -290.1364572 Eh     change       -0.1390174E-02 Eh
   gradient norm :     0.0116617 Eh/α   predicted    -0.1255858E-02 (  -9.66%)
   displ. norm   :     0.7705015 α      lambda       -0.1555141E-02
   maximum displ.:     0.3887184 α      in ANC's #1, #4, #15, ...

........................................................................
.............................. CYCLE   37 ..............................
........................................................................

 iter      E             dE          RMSdq      gap      omega  full diag
   1   -292.2951295 -0.292295E+03  0.106E-01    0.05       0.0  T
   2   -292.2611979  0.339316E-01  0.369E-01    0.11       1.0  T
   3   -292.2819817 -0.207838E-01  0.232E-01    0.04       1.0  T
   4   -292.2645526  0.174291E-01  0.369E-01    0.08       1.0  T
   5   -292.2898259 -0.252733E-01  0.148E-01    0.05       1.0  T
   6   -292.2924679 -0.264202E-02  0.105E-01    0.07       1.0  T
   7   -292.2950944 -0.262651E-02  0.331E-02    0.06       1.0  T
   8   -292.2952785 -0.184079E-03  0.182E-02    0.06       1.0  T
   9   -292.2953323 -0.538102E-04  0.842E-03    0.06       1.1  T
  10   -292.2953486 -0.162808E-04  0.267E-03    0.06       3.6  T
  11   -292.2953497 -0.117378E-05  0.118E-03    0.06       8.1  T
  12   -292.2953500 -0.211844E-06  0.525E-04    0.06      18.2  T
  13   -292.2953500 -0.364879E-07  0.326E-04    0.06      29.4  T
     SCC iter.                  ...        0 min,  2.345 sec
     gradient                   ...        0 min,  0.045 sec
 * total energy  :  -290.1377706 Eh     change       -0.1313346E-02 Eh
   gradient norm :     0.0124232 Eh/α   predicted    -0.1239197E-02 (  -5.65%)
   displ. norm   :     0.8168137 α      lambda       -0.1701238E-02
   maximum displ.:     0.3885279 α      in ANC's #1, #4, #15, ...

........................................................................
.............................. CYCLE   38 ..............................
........................................................................

 iter      E             dE          RMSdq      gap      omega  full diag
   1   -292.2961480 -0.292296E+03  0.114E-01    0.06       0.0  T
   2   -292.2788376  0.173103E-01  0.284E-01    0.07       1.0  T
   3   -292.2839867 -0.514903E-02  0.229E-01    0.07       1.0  T
   4   -292.2543937  0.295930E-01  0.394E-01    0.07       1.0  T
   5   -292.2417703  0.126234E-01  0.475E-01    0.06       1.0  T
   6   -292.2950086 -0.532383E-01  0.859E-02    0.06       1.0  T
   7   -292.2962308 -0.122228E-02  0.364E-02    0.06       1.0  T
   8   -292.2964021 -0.171247E-03  0.222E-02    0.06       1.0  T
   9   -292.2964919 -0.898030E-04  0.917E-03    0.06       1.0  T
  10   -292.2965081 -0.161710E-04  0.276E-03    0.06       3.5  T
  11   -292.2965085 -0.406824E-06  0.204E-03    0.06       4.7  T
  12   -292.2965090 -0.504671E-06  0.124E-03    0.06       7.8  T
  13   -292.2965092 -0.193463E-06  0.736E-04    0.06      13.0  T
  14   -292.2965092 -0.132025E-07  0.649E-04    0.06      14.8  T
     SCC iter.                  ...        0 min,  1.169 sec
     gradient                   ...        0 min,  0.043 sec
 * total energy  :  -290.1390007 Eh     change       -0.1230185E-02 Eh
   gradient norm :     0.0144178 Eh/α   predicted    -0.1418146E-02 (  15.28%)
   displ. norm   :     0.6695745 α      lambda       -0.1457690E-02
   maximum displ.:     0.3377306 α      in ANC's #1, #4, #12, ...

........................................................................
.............................. CYCLE   39 ..............................
........................................................................

 iter      E             dE          RMSdq      gap      omega  full diag
   1   -292.2962634 -0.292296E+03  0.106E-01    0.05       0.0  T
   2   -292.2211048  0.751586E-01  0.553E-01    0.11       1.0  T
   3   -292.2922515 -0.711467E-01  0.146E-01    0.05       1.0  T
   4   -292.2795187  0.127328E-01  0.277E-01    0.07       1.0  T
   5   -292.2654953  0.140234E-01  0.344E-01    0.05       1.0  T
   6   -292.2952256 -0.297303E-01  0.806E-02    0.07       1.0  T
   7   -292.2966852 -0.145960E-02  0.286E-02    0.06       1.0  T
   8   -292.2968082 -0.123020E-03  0.192E-02    0.06       1.0  T
   9   -292.2968816 -0.733665E-04  0.639E-03    0.06       1.5  T
  10   -292.2968911 -0.944945E-05  0.211E-03    0.06       4.5  T
  11   -292.2968915 -0.460430E-06  0.150E-03    0.06       6.4  T
  12   -292.2968919 -0.382429E-06  0.753E-04    0.06      12.7  T
  13   -292.2968920 -0.116459E-06  0.274E-04    0.06      34.9  T
     SCC iter.                  ...        0 min,  1.045 sec
     gradient                   ...        0 min,  0.041 sec
 * total energy  :  -290.1402218 Eh     change       -0.1221018E-02 Eh
   gradient norm :     0.0128817 Eh/α   predicted    -0.1055613E-02 ( -13.55%)
   displ. norm   :     0.7325869 α      lambda       -0.1440896E-02
   maximum displ.:     0.3843498 α      in ANC's #1, #4, #12, ...

........................................................................
.............................. CYCLE   40 ..............................
........................................................................

 iter      E             dE          RMSdq      gap      omega  full diag
   1   -292.2980288 -0.292298E+03  0.113E-01    0.05       0.0  T
   2   -292.2176268  0.804020E-01  0.578E-01    0.11       1.0  T
   3   -292.2948712 -0.772444E-01  0.139E-01    0.05       1.0  T
   4   -292.2764901  0.183810E-01  0.308E-01    0.08       1.0  T
   5   -292.2618263  0.146638E-01  0.363E-01    0.06       1.0  T
   6   -292.2957124 -0.338861E-01  0.113E-01    0.06       1.0  T
   7   -292.2985410 -0.282859E-02  0.306E-02    0.06       1.0  T
[...]
    92   1 H        0.924     0.073     2.053     2.241
    93   1 H        0.925     0.078     2.005     2.214
    94   1 H        0.924     0.043     2.405     2.425
    95   1 H        0.925     0.056     2.245     2.343
    96   1 H        0.925     0.070     2.082     2.257
    97   1 H        0.925     0.067     2.120     2.277
    98   1 H        0.926     0.131     1.529     1.933
    99   1 H        0.926     0.131     1.530     1.934
   100   1 H        0.926     0.131     1.524     1.931
   101   1 H        0.926     0.133     1.511     1.922
   102   1 H        0.926     0.129     1.544     1.943
   103   1 H        0.926     0.131     1.530     1.934
   104   1 H        0.926     0.134     1.508     1.921
   105   1 H        0.926     0.134     1.503     1.917
   106   1 H        0.926     0.120     1.612     1.985
   107   1 H        0.926     0.114     1.664     2.017
   108   1 H        0.926     0.105     1.743     2.064
   109   1 H        0.926     0.116     1.643     2.004

 Mol. C6AA /au·bohr⁶  :     207082.545761
 Mol. C8AA /au·bohr⁸  :    5367020.555256
 Mol. α(0) /au        :        689.497093


Wiberg/Mayer (AO) data.
largest (>0.10) Wiberg bond orders for each atom

 ---------------------------------------------------------------------------
     #   Z sym  total        # sym  WBO       # sym  WBO       # sym  WBO
 ---------------------------------------------------------------------------
     1   6 C    3.895 --     6 C    1.369     2 C    1.359   107 H    0.949
     2   6 C    3.941 --     1 C    1.359     3 C    1.243    22 O    1.135
     3   6 C    3.947 --     2 C    1.243     7 C    1.222     4 C    1.201
     4   6 C    3.972 --    10 N    1.357     5 C    1.216     3 C    1.201
     5   6 C    3.901 --     6 C    1.532     4 C    1.216   101 H    0.946
     6   6 C    3.933 --     5 C    1.532     1 C    1.369    82 S    0.502
     7   6 C    3.979 --     8 C    1.318     3 C    1.222    11 C    1.194
     8   6 C    3.973 --     7 C    1.318    14 C    1.191     9 C    1.187
     9   6 C    3.974 --    10 N    1.368    17 C    1.228     8 C    1.187
    10   7 N    2.953 --     9 C    1.368     4 C    1.357
    11   6 C    3.924 --    18 C    1.259     7 C    1.194    12 C    1.192
    12   6 C    3.970 --    13 N    1.377    21 C    1.202    11 C    1.192
    13   7 N    2.979 --    12 C    1.377    14 C    1.348
    14   6 C    3.975 --    13 N    1.348    15 C    1.242     8 C    1.191
    15   6 C    3.796 --    16 C    1.446    14 C    1.242   102 H    0.947
    16   6 C    3.939 --    17 C    1.462    15 C    1.446    76 S    0.518
    17   6 C    3.795 --    16 C    1.462     9 C    1.228   103 H    0.946
    18   6 C    3.958 --    19 C    1.346    11 C    1.259    46 N    1.153
    19   6 C    3.847 --    20 C    1.380    18 C    1.346   106 H    0.935
    20   6 C    3.940 --    21 C    1.522    19 C    1.380    70 S    0.515
    21   6 C    3.859 --    20 C    1.522    12 C    1.202   104 H    0.945
    22   8 O    2.208 --     2 C    1.135    45 B    0.819
    23   6 C    3.885 --    28 C    1.365    24 C    1.339   109 H    0.946
    24   6 C    3.942 --    23 C    1.339    25 C    1.263    44 O    1.135
    25   6 C    3.948 --    24 C    1.263    26 C    1.202    29 C    1.196
    26   6 C    3.971 --    32 N    1.368    27 C    1.205    25 C    1.202
    27   6 C    3.895 --    28 C    1.537    26 C    1.205    98 H    0.946
    28   6 C    3.936 --    27 C    1.537    23 C    1.365    64 S    0.512
    29   6 C    3.979 --    30 C    1.313    33 C    1.221    25 C    1.196
    30   6 C    3.975 --    29 C    1.313    36 C    1.197    31 C    1.195
    31   6 C    3.975 --    32 N    1.347    39 C    1.241    30 C    1.195
    32   7 N    2.937 --    26 C    1.368    31 C    1.347
    33   6 C    3.939 --    40 C    1.241    29 C    1.221    34 C    1.201
    34   6 C    3.969 --    35 N    1.364    43 C    1.205    33 C    1.201
    35   7 N    2.966 --    34 C    1.364    36 C    1.357
    36   6 C    3.975 --    35 N    1.357    37 C    1.231    30 C    1.197
    37   6 C    3.798 --    38 C    1.460    36 C    1.231   100 H    0.947
    38   6 C    3.940 --    37 C    1.460    39 C    1.449    52 S    0.519
    39   6 C    3.795 --    38 C    1.449    31 C    1.241    99 H    0.947
    40   6 C    3.956 --    41 C    1.321    33 C    1.241    49 N    1.195
    41   6 C    3.845 --    42 C    1.390    40 C    1.321   108 H    0.938
    42   6 C    3.935 --    43 C    1.516    41 C    1.390    58 S    0.494
    43   6 C    3.863 --    42 C    1.516    34 C    1.205   105 H    0.946
    44   8 O    2.213 --    24 C    1.135    45 B    0.821
    45   5 B    3.416 --    44 O    0.821    22 O    0.819    46 N    0.809
                            49 N    0.808
    46   7 N    3.230 --    18 C    1.153    48 C    1.004    45 B    0.809
    47   6 C    3.970 --    48 C    1.001    89 H    0.983    88 H    0.980
                            90 H    0.980
    48   6 C    3.944 --    46 N    1.004    47 C    1.001    91 H    0.963
                            92 H    0.914
    49   7 N    3.249 --    40 C    1.195    51 C    0.993    45 B    0.808
    50   6 C    3.978 --    51 C    1.010    95 H    0.984    96 H    0.980
                            97 H    0.978
    51   6 C    3.954 --    50 C    1.010    49 N    0.993    93 H    0.950
                            94 H    0.939
    52  16 S    4.051 --    55 F    0.738    54 F    0.692    53 F    0.691
                            57 F    0.691    56 F    0.690    38 C    0.519
    53   9 F    0.900 --    52 S    0.691
    54   9 F    0.901 --    52 S    0.692
    55   9 F    0.978 --    52 S    0.738
    56   9 F    0.900 --    52 S    0.690
    57   9 F    0.900 --    52 S    0.691
    58  16 S    3.908 --    61 F    0.720    60 F    0.697    62 F    0.677
                            63 F    0.648    59 F    0.638    42 C    0.494
    59   9 F    0.835 --    58 S    0.638
    60   9 F    0.912 --    58 S    0.697
    61   9 F    0.958 --    58 S    0.720
    62   9 F    0.882 --    58 S    0.677
    63   9 F    0.849 --    58 S    0.648
    64  16 S    3.977 --    67 F    0.731    66 F    0.690    65 F    0.686
                            69 F    0.673    68 F    0.653    28 C    0.512
    65   9 F    0.895 --    64 S    0.686
    66   9 F    0.901 --    64 S    0.690
    67   9 F    0.970 --    64 S    0.731
    68   9 F    0.857 --    64 S    0.653
    69   9 F    0.879 --    64 S    0.673
    70  16 S    3.991 --    73 F    0.729    71 F    0.683    75 F    0.681
                            74 F    0.679    72 F    0.673    20 C    0.515
    71   9 F    0.894 --    70 S    0.683
    72   9 F    0.880 --    70 S    0.673
    73   9 F    0.968 --    70 S    0.729
    74   9 F    0.889 --    70 S    0.679
    75   9 F    0.888 --    70 S    0.681
    76  16 S    4.048 --    79 F    0.737    81 F    0.692    78 F    0.692
                            80 F    0.690    77 F    0.689    16 C    0.518
    77   9 F    0.897 --    76 S    0.689
    78   9 F    0.901 --    76 S    0.692
    79   9 F    0.977 --    76 S    0.737
    80   9 F    0.898 --    76 S    0.690
    81   9 F    0.902 --    76 S    0.692
    82  16 S    3.925 --    84 F    0.721    86 F    0.692    83 F    0.680
                            87 F    0.667    85 F    0.631     6 C    0.502
    83   9 F    0.887 --    82 S    0.680
    84   9 F    0.960 --    82 S    0.721
    85   9 F    0.826 --    82 S    0.631
    86   9 F    0.905 --    82 S    0.692
    87   9 F    0.873 --    82 S    0.667
    88   1 H    0.994 --    47 C    0.980
    89   1 H    0.996 --    47 C    0.983
    90   1 H    0.994 --    47 C    0.980
    91   1 H    0.993 --    48 C    0.963
    92   1 H    0.966 --    48 C    0.914
    93   1 H    0.991 --    51 C    0.950
    94   1 H    0.980 --    51 C    0.939
    95   1 H    0.996 --    50 C    0.984
    96   1 H    0.994 --    50 C    0.980
    97   1 H    0.994 --    50 C    0.978
    98   1 H    0.982 --    27 C    0.946
    99   1 H    0.982 --    39 C    0.947
   100   1 H    0.982 --    37 C    0.947
   101   1 H    0.982 --     5 C    0.946
   102   1 H    0.983 --    15 C    0.947
   103   1 H    0.982 --    17 C    0.946
   104   1 H    0.981 --    21 C    0.945
   105   1 H    0.981 --    43 C    0.946
   106   1 H    0.985 --    19 C    0.935
   107   1 H    0.987 --     1 C    0.949
   108   1 H    0.988 --    41 C    0.938
   109   1 H    0.986 --    23 C    0.946
 ---------------------------------------------------------------------------

Topologies differ in bond orders
Writing corrected topology to xtbtopo.mol

molecular dipole:
                 x           y           z       tot (Debye)
 q only:        0.048      -0.779      -2.288
   full:       -0.029      -0.759      -1.789       4.941
molecular quadrupole (traceless):
                xx          xy          yy          xz          yz          zz
 q only:      -42.582     -13.344     -45.688       2.912      17.745      88.269
  q+dip:      -40.113      -4.290     -33.270      -1.923      16.293      73.383
   full:      -46.030      -5.002     -40.713      -3.386      17.333      86.743

           -------------------------------------------------
          |                Geometry Summary                 |
           -------------------------------------------------

      molecular mass/u    :     1415.8164807
   center of mass at/Å    :        0.0753379      -0.1255125       0.2348083
  moments of inertia/u·Å² :        0.2396701E+05   0.3957570E+05   0.5729063E+05
rotational constants/cm⁻¹ :        0.7033682E-03   0.4259591E-03   0.2942476E-03

 * 111 selected distances

     #   Z          #   Z                                           value/Å
     1   6 C        2   6 C                                       1.3944635
     2   6 C        3   6 C                                       1.4191019
     4   6 C        5   6 C                                       1.4240193
     1   6 C        6   6 C                                       1.3804685
     5   6 C        6   6 C                                       1.3554174
     7   6 C        8   6 C                                       1.4171139
     8   6 C        9   6 C                                       1.4301564
     4   6 C       10   7 N                                       1.3283083
     9   6 C       10   7 N                                       1.3224684
    12   6 C       13   7 N                                       1.3243282
     8   6 C       14   6 C                                       1.4253210
    13   7 N       14   6 C                                       1.3244229
    14   6 C       15   6 C                                       1.4137774
    15   6 C       16   6 C                                       1.3719408
     9   6 C       17   6 C                                       1.4184779
    16   6 C       17   6 C                                       1.3694912
    11   6 C       18   6 C                                       1.4326975
    18   6 C       19   6 C                                       1.4021461
    19   6 C       20   6 C                                       1.3761341
    12   6 C       21   6 C                                       1.4245696
    20   6 C       21   6 C                                       1.3548867
     2   6 C       22   8 O                                       1.3178845
    23   6 C       24   6 C                                       1.4005683
    24   6 C       25   6 C                                       1.4159688
    26   6 C       27   6 C                                       1.4241535
    23   6 C       28   6 C                                       1.3813788
    27   6 C       28   6 C                                       1.3547115
    29   6 C       30   6 C                                       1.4197711
    30   6 C       31   6 C                                       1.4288765
    26   6 C       32   7 N                                       1.3253545
    31   6 C       32   7 N                                       1.3259829
    34   6 C       35   7 N                                       1.3269765
    30   6 C       36   6 C                                       1.4243127
    35   7 N       36   6 C                                       1.3212057
    36   6 C       37   6 C                                       1.4164941
    37   6 C       38   6 C                                       1.3692494
    31   6 C       39   6 C                                       1.4154308
    38   6 C       39   6 C                                       1.3709283
    40   6 C       41   6 C                                       1.4070976
    41   6 C       42   6 C                                       1.3723429
    34   6 C       43   6 C                                       1.4250921
    42   6 C       43   6 C                                       1.3516816
    24   6 C       44   8 O                                       1.3195485
    22   8 O       45   5 B                                       1.4432235
    44   8 O       45   5 B                                       1.4434283
    18   6 C       46   7 N                                       1.3820318
    45   5 B       46   7 N                                       1.5455184
    46   7 N       48   6 C                                       1.4507624
    47   6 C       48   6 C                                       1.5277452
    40   6 C       49   7 N                                       1.3763957
    45   5 B       49   7 N                                       1.5529813
    49   7 N       51   6 C                                       1.4602425
    50   6 C       51   6 C                                       1.5255389
    38   6 C       52  16 S                                       1.8512234
    52  16 S       53   9 F                                       1.6538368
    52  16 S       54   9 F                                       1.6532880
    52  16 S       55   9 F                                       1.6062325
    52  16 S       56   9 F                                       1.6546084
    52  16 S       57   9 F                                       1.6539562
    42   6 C       58  16 S                                       1.8549062 (max)
    58  16 S       59   9 F                                       1.6737472
    58  16 S       60   9 F                                       1.6317025
    58  16 S       61   9 F                                       1.6078946
    58  16 S       62   9 F                                       1.6591165
    58  16 S       63   9 F                                       1.6817603
    28   6 C       64  16 S                                       1.8494299
    64  16 S       65   9 F                                       1.6514395
    64  16 S       66   9 F                                       1.6430289
    64  16 S       67   9 F                                       1.6007715
    64  16 S       68   9 F                                       1.6685446
    64  16 S       69   9 F                                       1.6631538
    20   6 C       70  16 S                                       1.8495014
    70  16 S       71   9 F                                       1.6487970
    70  16 S       72   9 F                                       1.6548119
    70  16 S       73   9 F                                       1.6024666
    70  16 S       74   9 F                                       1.6559095
    70  16 S       75   9 F                                       1.6569387
    16   6 C       76  16 S                                       1.8511898
    76  16 S       77   9 F                                       1.6564160
    76  16 S       78   9 F                                       1.6532273
    76  16 S       79   9 F                                       1.6064664
    76  16 S       80   9 F                                       1.6555549
    76  16 S       81   9 F                                       1.6524609
     6   6 C       82  16 S                                       1.8493394
    82  16 S       83   9 F                                       1.6559890
    82  16 S       84   9 F                                       1.6073651
    82  16 S       85   9 F                                       1.6797047
    82  16 S       86   9 F                                       1.6385281
    82  16 S       87   9 F                                       1.6650756
    47   6 C       88   1 H                                       1.0857404
    47   6 C       89   1 H                                       1.0860338
    47   6 C       90   1 H                                       1.0879560
    48   6 C       91   1 H                                       1.0920408
    48   6 C       92   1 H                                       1.0957620
Note: The following floating-point exceptions are signalling: IEEE_UNDERFLOW_FLAG
normal termination of xtb
    51   6 C       93   1 H                                       1.0886925
    51   6 C       94   1 H                                       1.0971715
    50   6 C       95   1 H                                       1.0872902
    50   6 C       96   1 H                                       1.0862437
    50   6 C       97   1 H                                       1.0860248
    27   6 C       98   1 H                                       1.0759459
    39   6 C       99   1 H                                       1.0768313
    37   6 C      100   1 H                                       1.0766771
     5   6 C      101   1 H                                       1.0757342
    15   6 C      102   1 H                                       1.0764836
    17   6 C      103   1 H                                       1.0767817
    21   6 C      104   1 H                                       1.0759790
    43   6 C      105   1 H                                       1.0754744
    19   6 C      106   1 H                                       1.0735621
     1   6 C      107   1 H                                       1.0759809
    41   6 C      108   1 H                                       1.0725357 (min)
    23   6 C      109   1 H                                       1.0776744

 * 8 distinct bonds (by element types)

   Z      Z             #   av. dist./Å        max./Å        min./Å
   1 H    6 C          22     1.0819371     1.0971715     1.0725357
   6 C    6 C          35     1.4069007     1.5277452     1.3516816
   5 B    7 N           2     1.5492499     1.5529813     1.5455184
   6 C    7 N          12     1.3557066     1.4602425     1.3212057
   5 B    8 O           2     1.4433259     1.4434283     1.4432235
   6 C    8 O           2     1.3187165     1.3195485     1.3178845
   6 C   16 S           6     1.8509317     1.8549062     1.8493394
   9 F   16 S          30     1.6464264     1.6817603     1.6007715


optimized geometry written to: xtbopt.mol


           -------------------------------------------------
          | TOTAL ENERGY             -290.158082662217 Eh   |
          | GRADIENT NORM               0.000209403411 Eh/α |
          | HOMO-LUMO GAP               0.051624603689 eV   |
           -------------------------------------------------

------------------------------------------------------------------------
 * finished run on 2024/11/07 at 16:30:39.250     
------------------------------------------------------------------------
 total:
 * wall-time:     0 d,  0 h,  1 min, 57.496 sec
 *  cpu-time:     0 d,  0 h,  6 min, 24.182 sec
 * ratio c/w:     3.270 speedup
 SCF:
 * wall-time:     0 d,  0 h,  0 min,  2.240 sec
 *  cpu-time:     0 d,  0 h,  0 min,  7.649 sec
 * ratio c/w:     3.415 speedup
 ANC optimizer:
 * wall-time:     0 d,  0 h,  1 min, 55.206 sec
 *  cpu-time:     0 d,  0 h,  6 min, 16.488 sec
 * ratio c/w:     3.268 speedup

