218
 energy: -579.985131076602 gnorm: 0.493973635889 xtb: 6.7.1 (edcfbbe)
C            1.83360000000000        2.51440000000000        2.31560000000000
C            1.88890000000000        1.13370000000000        2.18620000000000
C            2.93930000000000        0.48620000000000        1.49180000000000
C            3.91340000000000        1.34030000000000        0.90420000000000
C            3.80520000000000        2.74310000000000        1.04600000000000
C            2.79010000000000        3.32140000000000        1.75150000000000
C            3.06490000000000       -0.95340000000000        1.41200000000000
C            4.28440000000000       -1.36550000000000        0.82780000000000
C            5.15980000000000       -0.43080000000000        0.19690000000000
N            4.95880000000000        0.89080000000000        0.19500000000000
C            2.22960000000000       -2.00950000000000        1.97390000000000
C            2.91980000000000       -3.25470000000000        2.21080000000000
N            4.03830000000000       -3.64930000000000        1.57780000000000
C            4.69360000000000       -2.72590000000000        0.87540000000000
C            5.89070000000000       -3.11810000000000        0.25710000000000
C            6.68000000000000       -2.22070000000000       -0.41420000000000
C            6.32300000000000       -0.89640000000000       -0.43450000000000
C            0.79240000000000       -2.05250000000000        2.34870000000000
C            0.38260000000000       -3.02380000000000        3.29470000000000
C            1.21450000000000       -4.00450000000000        3.75750000000000
C            2.43900000000000       -4.16090000000000        3.17400000000000
O            0.86750000000000        0.39960000000000        2.68730000000000
C           -2.82720000000000       -0.33790000000000        3.29860000000000
C           -2.54530000000000        0.49340000000000        2.22400000000000
C           -3.46740000000000        0.66160000000000        1.15480000000000
C           -4.71550000000000       -0.01240000000000        1.29960000000000
C           -4.90800000000000       -0.92530000000000        2.36090000000000
C           -3.96290000000000       -1.10340000000000        3.32760000000000
C           -3.24010000000000        1.51870000000000        0.01110000000000
C           -4.42340000000000        1.82560000000000       -0.69810000000000
C           -5.64700000000000        1.14370000000000       -0.42620000000000
N           -5.76320000000000        0.16970000000000        0.48170000000000
C           -2.02910000000000        2.16140000000000       -0.45350000000000
C           -2.19700000000000        3.22020000000000       -1.41460000000000
N           -3.36050000000000        3.57180000000000       -1.98780000000000
C           -4.44380000000000        2.86810000000000       -1.66190000000000
C           -5.64610000000000        3.19710000000000       -2.30600000000000
C           -6.80700000000000        2.51230000000000       -2.05780000000000
C           -6.80510000000000        1.50060000000000       -1.13230000000000
C           -0.63520000000000        1.79690000000000       -0.16050000000000
C            0.39390000000000        2.61290000000000       -0.68240000000000
C            0.18880000000000        3.62120000000000       -1.57450000000000
C           -1.09400000000000        3.93420000000000       -1.91990000000000
O           -1.30490000000000        1.04370000000000        2.21870000000000
B           -0.22800000000000        0.14710000000000        1.71810000000000
N           -0.25840000000000       -1.39480000000000        1.71780000000000
C           -1.20860000000000       -3.37700000000000        0.57350000000000
C           -1.45660000000000       -2.06030000000000        1.28700000000000
N           -0.16980000000000        0.54060000000000        0.22800000000000
C            0.31590000000000       -0.28960000000000       -2.04550000000000
C            0.73240000000000       -0.23080000000000       -0.58740000000000
S           -8.39600000000000        2.94390000000000       -2.99670000000000
F           -7.93180000000000        1.89650000000000       -4.09350000000000
F           -7.58290000000000        4.07800000000000       -3.74260000000000
F           -9.71970000000000        3.29010000000000       -3.79800000000000
F           -9.11740000000000        1.78310000000000       -2.19980000000000
F           -8.75930000000000        3.96280000000000       -1.83590000000000
S            1.69710000000000        4.42220000000000       -2.39600000000000
F            2.59250000000000        3.73870000000000       -1.29390000000000
F            1.50490000000000        5.70950000000000       -1.49590000000000
F            2.95790000000000        5.03780000000000       -3.12600000000000
F            0.69920000000000        5.03710000000000       -3.45450000000000
F            1.77380000000000        3.08490000000000       -3.24150000000000
S           -4.05320000000000       -2.43670000000000        4.66560000000000
F           -4.91490000000000       -3.25900000000000        3.63690000000000
F           -5.34650000000000       -1.72110000000000        5.18760000000000
F           -4.10450000000000       -3.57080000000000        5.74070000000000
F           -3.16250000000000       -1.55030000000000        5.60110000000000
F           -2.73800000000000       -2.97680000000000        3.99310000000000
S            0.67580000000000       -5.11940000000000        5.19060000000000
F            0.42940000000000       -6.25820000000000        4.13310000000000
F           -0.79070000000000       -4.60420000000000        4.98050000000000
F            0.23350000000000       -5.98400000000000        6.42350000000000
F            0.93220000000000       -3.87080000000000        6.09910000000000
F            2.17530000000000       -5.55810000000000        5.31510000000000
S            8.24910000000000       -2.80040000000000       -1.30550000000000
F            7.92560000000000       -4.26870000000000       -0.81020000000000
F            9.06150000000000       -2.52080000000000        0.02860000000000
F            9.54990000000000       -3.28800000000000       -2.07030000000000
F            7.33420000000000       -3.03700000000000       -2.57940000000000
F            8.48120000000000       -1.30110000000000       -1.75600000000000
S            2.61030000000000        5.19520000000000        1.95770000000000
F            3.91290000000000        5.19450000000000        2.86310000000000
F            2.42780000000000        6.76250000000000        2.10230000000000
F            1.31220000000000        5.05200000000000        1.06400000000000
F            3.53010000000000        5.36590000000000        0.68270000000000
F            1.72920000000000        4.92370000000000        3.23690000000000
H           -2.14080000000000       -3.84580000000000        0.25150000000000
H           -0.70000000000000       -4.09080000000000        1.22290000000000
H           -0.58360000000000       -3.23870000000000       -0.30850000000000
H           -2.00640000000000       -1.37380000000000        0.63860000000000
H           -2.07830000000000       -2.23250000000000        2.16780000000000
H            0.79770000000000       -1.23680000000000       -0.16880000000000
H            1.73160000000000        0.19980000000000       -0.49860000000000
H           -0.69590000000000       -0.68240000000000       -2.14720000000000
H            0.98180000000000       -0.92140000000000       -2.63660000000000
H            0.32540000000000        0.70160000000000       -2.50150000000000
H           -5.81260000000000       -1.51350000000000        2.39170000000000
H           -7.72590000000000        0.97680000000000       -0.92030000000000
H           -5.65210000000000        4.01380000000000       -3.01400000000000
H            4.53270000000000        3.37630000000000        0.55740000000000
H            6.21560000000000       -4.14560000000000        0.35570000000000
H            6.96650000000000       -0.18300000000000       -0.92920000000000
H            3.09250000000000       -4.95710000000000        3.50510000000000
H           -1.26630000000000        4.70220000000000       -2.66050000000000
H           -0.63030000000000       -3.00470000000000        3.67430000000000
H            1.01370000000000        2.95450000000000        2.86310000000000
H            1.41500000000000        2.36340000000000       -0.44590000000000
H           -2.09070000000000       -0.45390000000000        4.07700000000000
C            2.16090000000000        1.05620000000000       10.54810000000000
C            1.83140000000000       -0.15190000000000        9.94100000000000
C            2.82260000000000       -0.92960000000000        9.28440000000000
C            4.08180000000000       -0.29580000000000        9.06820000000000
C            4.35460000000000        0.94270000000000        9.68380000000000
C            3.42060000000000        1.60050000000000       10.42890000000000
C            2.62270000000000       -2.28280000000000        8.82760000000000
C            3.66800000000000       -2.76810000000000        8.02100000000000
C            4.73120000000000       -1.91220000000000        7.60430000000000
N            4.99910000000000       -0.74310000000000        8.19560000000000
C            1.53830000000000       -3.21000000000000        9.06760000000000
C            1.85560000000000       -4.60060000000000        8.85680000000000
N            2.83480000000000       -5.03670000000000        8.04460000000000
C            3.62570000000000       -4.09650000000000        7.51280000000000
C            4.44030000000000       -4.42210000000000        6.41620000000000
C            5.31330000000000       -3.50600000000000        5.88050000000000
C            5.51540000000000       -2.30100000000000        6.50930000000000
C            0.13020000000000       -2.95030000000000        9.45180000000000
C           -0.52000000000000       -3.98580000000000       10.17980000000000
C           -0.07720000000000       -5.28320000000000       10.15310000000000
C            1.05370000000000       -5.59400000000000        9.44450000000000
O            0.51910000000000       -0.50760000000000        9.91380000000000
C           -3.59460000000000       -0.33470000000000        9.04790000000000
C           -2.63360000000000        0.38650000000000        8.34640000000000
C           -2.93990000000000        0.97150000000000        7.07790000000000
C           -4.27910000000000        0.77600000000000        6.61840000000000
C           -5.15620000000000       -0.08770000000000        7.31040000000000
C           -4.81380000000000       -0.64670000000000        8.50100000000000
C           -2.04530000000000        1.78920000000000        6.28160000000000
C           -2.68090000000000        2.50130000000000        5.23990000000000
C           -4.04260000000000        2.25620000000000        4.90300000000000
N           -4.80340000000000        1.35880000000000        5.53060000000000
C           -0.62280000000000        1.99260000000000        6.39680000000000
C           -0.03650000000000        3.03440000000000        5.60010000000000
N           -0.69300000000000        3.76340000000000        4.68430000000000
C           -1.97620000000000        3.47280000000000        4.47870000000000
C           -2.62510000000000        4.14640000000000        3.43280000000000
C           -3.92370000000000        3.86710000000000        3.10150000000000
C           -4.62520000000000        2.94390000000000        3.82960000000000
C            0.32020000000000        1.14040000000000        7.12130000000000
C            1.69290000000000        1.49960000000000        7.11950000000000
C            2.21180000000000        2.44630000000000        6.28420000000000
C            1.35520000000000        3.25080000000000        5.58990000000000
O           -1.41480000000000        0.42240000000000        8.96330000000000
B           -0.37700000000000       -0.61650000000000        8.72880000000000
N           -0.72480000000000       -2.11520000000000        8.72640000000000
C           -1.84530000000000       -3.97910000000000        7.50270000000000
C           -1.92890000000000       -2.57330000000000        8.08060000000000
N            0.12490000000000       -0.22750000000000        7.32390000000000
C            1.32490000000000       -0.76200000000000        5.22270000000000
C            0.87910000000000       -1.20950000000000        6.59980000000000
S           -4.73550000000000        4.70860000000000        1.61250000000000
F           -5.43310000000000        3.32870000000000        1.33460000000000
F           -3.47270000000000        4.24330000000000        0.80370000000000
F           -5.38810000000000        5.35450000000000        0.33400000000000
F           -5.93710000000000        5.11370000000000        2.54960000000000
F           -3.97390000000000        6.03250000000000        2.00550000000000
S            4.08140000000000        2.45520000000000        5.97030000000000
F            3.96350000000000        0.88320000000000        5.96560000000000
F            4.28690000000000        2.41830000000000        7.52390000000000
F            5.62830000000000        2.41690000000000        5.68530000000000
F            4.02380000000000        4.02960000000000        5.97870000000000
F            3.71940000000000        2.45530000000000        4.43920000000000
S           -5.90110000000000       -1.90860000000000        9.39450000000000
F           -6.94550000000000       -0.75330000000000        9.66050000000000
F           -5.14690000000000       -1.53700000000000       10.73190000000000
F           -6.78050000000000       -2.99880000000000       10.12450000000000
F           -4.74090000000000       -2.92930000000000        9.05580000000000
F           -6.59850000000000       -2.19740000000000        8.00640000000000
S           -1.10630000000000       -6.64150000000000       10.97670000000000
F           -2.04760000000000       -6.51900000000000        9.71160000000000
F           -1.93960000000000       -5.50460000000000       11.69090000000000
F           -1.98430000000000       -7.77870000000000       11.63610000000000
F           -0.07030000000000       -6.63060000000000       12.17130000000000
F           -0.20800000000000       -7.69780000000000       10.21980000000000
S            6.19000000000000       -3.85570000000000        4.23490000000000
F            5.01970000000000       -4.85330000000000        3.92050000000000
F            6.98290000000000       -5.01510000000000        4.94980000000000
F            6.85580000000000       -4.11150000000000        2.83410000000000
F            5.32760000000000       -2.66440000000000        3.66960000000000
F            7.30060000000000       -2.82430000000000        4.66530000000000
S            3.81750000000000        3.26790000000000       11.23510000000000
F            4.40200000000000        2.45650000000000       12.46290000000000
F            4.14930000000000        4.66170000000000       11.90820000000000
F            3.19070000000000        3.95770000000000        9.95430000000000
F            5.23410000000000        3.21070000000000       10.53500000000000
F            2.38340000000000        3.23160000000000       11.89730000000000
H           -2.70580000000000       -4.22000000000000        6.87350000000000
H           -1.80970000000000       -4.74740000000000        8.27690000000000
H           -0.94940000000000       -4.08570000000000        6.89190000000000
H           -2.15370000000000       -1.86400000000000        7.27640000000000
H           -2.75010000000000       -2.52560000000000        8.80240000000000
H            0.28930000000000       -2.12510000000000        6.54780000000000
H            1.75780000000000       -1.44980000000000        7.18830000000000
H            0.48110000000000       -0.40440000000000        4.63240000000000
H            1.81610000000000       -1.56930000000000        4.68020000000000
H            2.04850000000000        0.05230000000000        5.26850000000000
H           -6.09630000000000       -0.35840000000000        6.84990000000000
H           -5.64740000000000        2.72760000000000        3.56080000000000
H           -2.07840000000000        4.88400000000000        2.86440000000000
H            5.30370000000000        1.42250000000000        9.48620000000000
H            4.29430000000000       -5.37420000000000        5.92640000000000
H            6.24970000000000       -1.61100000000000        6.11890000000000
H            1.32310000000000       -6.63090000000000        9.30560000000000
H            1.76190000000000        3.99800000000000        4.92510000000000
H           -1.47150000000000       -3.78370000000000       10.65080000000000
H            1.39120000000000        1.59830000000000       11.07720000000000
H            2.39070000000000        0.85680000000000        7.62980000000000
H           -3.33660000000000       -0.72030000000000       10.02310000000000
218
 energy: -580.153902705345 gnorm: 0.347350234339 xtb: 6.7.1 (edcfbbe)
C            1.82957681804033        2.51332336013951        2.31946550206965
C            1.88493544410947        1.13544404760507        2.18499172434370
C            2.93043101736184        0.48461239038739        1.49531267219230
C            3.91351816598811        1.34058094512128        0.90447542757856
C            3.81109355799423        2.74775372828498        1.04303839551760
C            2.79627852517189        3.31602755855054        1.75259853789631
C            3.06033422949613       -0.95519728987218        1.41772006973040
C            4.28120914866238       -1.36555199921014        0.82998325199845
C            5.15924501679000       -0.42907881528267        0.20080023115578
N            4.95464209586607        0.88684122802780        0.20233985449365
C            2.21703940035812       -2.00443059203860        1.97328715628770
C            2.91361431872702       -3.24868296997213        2.21208877827444
N            4.02967704540569       -3.63208678509935        1.58409289337028
C            4.68968913011093       -2.72720090786667        0.87213340538197
C            5.89079937743085       -3.12667028847827        0.25389375870098
C            6.67644524373261       -2.21997770487959       -0.41161260523648
C            6.32559535923230       -0.89255287550694       -0.43800891160435
C            0.78923176678145       -2.06137931954133        2.33648935180357
C            0.38012227123107       -3.02277437613315        3.28188168190785
C            1.21873268229578       -4.00499600618654        3.75292511666256
C            2.43657621805029       -4.16916528886182        3.17250286834517
O            0.87299557666195        0.40872116185872        2.67196396726057
C           -2.82478539294074       -0.33292819664866        3.30131433423333
C           -2.53963902872142        0.49347918978817        2.22426508584590
C           -3.45833222899213        0.66668512201577        1.16018263486749
C           -4.71393397837551       -0.01017169497597        1.30104852301899
C           -4.91341177587143       -0.93057716277667        2.36033741199584
C           -3.97091948194710       -1.09326595044523        3.32816297503512
C           -3.23440439859702        1.51829363069118        0.01326895743134
C           -4.41930029924827        1.82227764598339       -0.69747832289212
C           -5.64501033933044        1.14143790214504       -0.42484291434456
N           -5.75459499484248        0.17464353584003        0.48407901453839
C           -2.01843593342530        2.15020865013846       -0.45210916834702
C           -2.19285925983503        3.21723548721206       -1.41061846365628
N           -3.35508598593537        3.56250650575820       -1.97583801891047
C           -4.44015180974079        2.86472530273366       -1.66448796658498
C           -5.64556831785370        3.20175265881905       -2.31170191807102
C           -6.80332582064687        2.51246216066969       -2.05458542653427
C           -6.80965472026093        1.49595376609357       -1.13176770138804
C           -0.63551729167875        1.78186563286204       -0.18971359521607
C            0.39211611379635        2.60105321192586       -0.68745765773495
C            0.18298522312657        3.63158233895653       -1.56506948877213
C           -1.09315701720199        3.94072348030497       -1.92482175411655
O           -1.31521491043743        1.03574576157639        2.22086944257998
B           -0.22995777077650        0.15243132490881        1.71975096142738
N           -0.24967405443792       -1.38436875068979        1.72046316646282
C           -1.20232760504273       -3.38349809061476        0.57187390242148
C           -1.45050640470009       -2.06709734273232        1.29342550855962
N           -0.18186062580069        0.53679989692021        0.23503625883508
C            0.31217034048389       -0.28507014270349       -2.05197733877670
C            0.73419205078970       -0.21801954663778       -0.59305388962639
S           -8.37841729021176        2.94029501663868       -2.98558390032230
F           -7.93657664748719        1.88693972102666       -4.11227106972079
F           -7.59067579517347        4.09612874644116       -3.76220642027313
F           -9.70711042142864        3.28725959832993       -3.79011640549196
F           -9.14362455414538        1.77383273485065       -2.20169970038066
F           -8.77139606253938        3.97641993865752       -1.82727076258783
S            1.67867487022195        4.41771261750512       -2.38265431755596
F            2.62085104361256        3.74027000943114       -1.28807214145693
F            1.50941471576676        5.73163519133646       -1.49061670328821
F            2.94445133392146        5.03270417945455       -3.11923014951478
F            0.70239888229223        5.05011292145174       -3.48063967709956
F            1.78468722995833        3.07516050082346       -3.25834605122387
S           -4.06355810531416       -2.41846397137381        4.64279168747453
F           -4.92885425363677       -3.29106885975427        3.62824350641709
F           -5.37615839372592       -1.72256219688252        5.19837513485357
F           -4.12207651413016       -3.55815474376554        5.72334666895657
F           -3.15894556265160       -1.54375326415395        5.61320854634985
F           -2.72492860401095       -3.00337279899326        3.99821394186917
S            0.68377304646194       -5.11359244766252        5.16479983159250
F            0.42037594706689       -6.28871724403999        4.12251281280002
F           -0.81305031524400       -4.61246263302781        4.97349608299611
F            0.23867005445468       -5.98363668688010        6.40540881565424
F            0.94649858898580       -3.87094047919042        6.11978708322902
F            2.18989287770738       -5.58440719139909        5.32827306950866
S            8.23235042424641       -2.79445964403228       -1.29386380845107
F            7.93826411867460       -4.29263954344849       -0.81468275072975
F            9.07885632018908       -2.52066807156134        0.03961040448731
F            9.53772719170190       -3.28357631608964       -2.06223834625892
F            7.33359605086761       -3.04316366182877       -2.59977238337744
F            8.50092443253682       -1.29072375505956       -1.77210546572274
S            2.61517693785317        5.17157275983885        1.94738946664609
F            3.92556907900262        5.20315238169704        2.87319716604933
F            2.43135833863886        6.74557959037467        2.09603117027882
F            1.29176677303968        5.06252259300710        1.05074236818411
F            3.54278362865906        5.38443503876688        0.66357148855310
F            1.72183799450198        4.94359425807403        3.24904071002713
H           -2.14036566960524       -3.83773551600436        0.25480603008693
H           -0.69901511094117       -4.09250177059819        1.22461464834777
H           -0.58257142751118       -3.23643984696578       -0.31014874498986
H           -1.99397864858315       -1.37792578459015        0.63925243916377
H           -2.08342042645823       -2.24394836598473        2.16093981642660
H            0.78987160366759       -1.22650887601561       -0.17117045385333
H            1.74021616681298        0.20312437212290       -0.51081552380710
H           -0.69669255769146       -0.68314169180545       -2.14427212091806
H            0.98277875874494       -0.92083071691321       -2.62894387991582
H            0.32627669854153        0.70393577456381       -2.50375261289679
H           -5.81915612933725       -1.50986661860686        2.38767496859127
H           -7.72198953329502        0.96972018796942       -0.91374258266392
H           -5.64260028293575        4.01676700322786       -3.01348930542772
H            4.54084827466852        3.37097614412586        0.55702727185006
H            6.20708425238414       -4.14956756453048        0.35789009513519
H            6.96039642749563       -0.17488895831513       -0.92754716960881
H            3.08459842741453       -4.96440186485090        3.48508388973427
H           -1.27669692240276        4.70323215343395       -2.66103003876896
H           -0.62607773619374       -2.99397100214244        3.66199531463118
H            1.00680636924351        2.94723033088019        2.86005506843996
H            1.40812864016571        2.35275914548055       -0.44034815991084
H           -2.08460248670353       -0.44869368295639        4.07346551725098
C            2.15297305009492        1.05540782583892       10.54789276565494
C            1.81808384406524       -0.14770063888603        9.93073799272995
C            2.81157879609515       -0.93031170697896        9.29049272095921
C            4.07892309945693       -0.29751572733359        9.07022552730973
C            4.36182450221871        0.94274445961390        9.68609270784753
C            3.42190025672174        1.59100736994779       10.43076699684002
C            2.61458385324799       -2.28149833285745        8.82373329093585
C            3.66897042547492       -2.77052446370169        8.02177155183088
C            4.73300305184190       -1.91343354750169        7.60727748521353
N            4.98988824874240       -0.75061986347405        8.20285615307249
C            1.53016501513522       -3.20050046186255        9.06974732520287
C            1.85442392362592       -4.59362524194472        8.86313239178250
N            2.83237170087338       -5.01875038134292        8.05625608333677
C            3.62736847456333       -4.09697335009251        7.51329182411217
C            4.44374873204432       -4.42868434980953        6.41433827489297
C            5.31493919032878       -3.50618972366228        5.88698137608112
C            5.52067704849895       -2.29748141742179        6.50702884699284
C            0.12263632871931       -2.96726734712262        9.42491453779881
C           -0.52424340754599       -3.98433172409970       10.16504546448340
C           -0.06340780661314       -5.28084133983302       10.16165244555539
C            1.05635433000290       -5.60092035692904        9.44729420533898
O            0.52344213386310       -0.50277192518458        9.91180166535137
C           -3.58924111095287       -0.33639715153393        9.05125737688116
C           -2.62061459654247        0.37713858216468        8.34868787274150
C           -2.93016614139589        0.97135616567450        7.09039807553151
C           -4.27697732100349        0.77771981717849        6.62367072603707
C           -5.16351904782971       -0.08863259154931        7.30949643843024
C           -4.81578051962561       -0.63777832726065        8.50069469677501
C           -2.04272039354504        1.78467738514018        6.28461327933013
C           -2.67965928816610        2.49853102313145        5.24124380376629
C           -4.04322956767100        2.25295009827915        4.90323455914724
N           -4.79451382524565        1.35914249354702        5.53924215303327
C           -0.61846771645575        1.98109003402081        6.40151763002451
C           -0.03461381124851        3.03153842903607        5.60415375664959
N           -0.69725346286191        3.75730259328696        4.69915039265631
C           -1.97312810645009        3.47047060429702        4.47709825620262
C           -2.62149655079610        4.15174980275509        3.42740801465266
C           -3.92325013955071        3.86806180337830        3.10710525177267
C           -4.63284507015628        2.94183600536288        3.82660688858470
C            0.32977179668573        1.13180125450410        7.08693522070887
C            1.69123682807978        1.48922918077929        7.11174300325180
C            2.20767567326142        2.46065111600588        6.29482081425061
C            1.36095719088686        3.25521861441911        5.58924983976803
O           -1.42106253701524        0.42099502344459        8.96571817157613
B           -0.37645388082382       -0.60647496601446        8.73593128285322
N           -0.71210901872582       -2.10367714350566        8.73436755282169
C           -1.84250940294611       -3.98311793569670        7.51602464857271
C           -1.91954440197714       -2.57718498635340        8.09548526680929
N            0.11179102698243       -0.22155798809142        7.33161529754245
C            1.32531014275491       -0.75703631441649        5.22014957781674
C            0.88218551710612       -1.19274477966662        6.60002320805372
S           -4.72516623696735        4.70029316943205        1.63368647939752
F           -5.44938148510814        3.31602054075484        1.31940585480738
F           -3.45946997106290        4.24528762662266        0.78351609818506
F           -5.38230196485308        5.34936697547633        0.34868320443945