Optimization of monomers started
Stacking dimer
Calculating transfer integral
Reorganization energy (electron): 0.5418822383792268 eV
Reorganization energy (hole): 0.29573099286705823 eV
Electron Transfer integral J: 0.018 eV
Hole Transfer integral J: 0.024 eV
=                   |     
     |                         S. Grimme                         |     
     |          Mulliken Center for Theoretical Chemistry        |     
     |                    University of Bonn                     |     
      -----------------------------------------------------------      

   * xtb version 6.7.1 (43a0e4e5b5d943adc66b4aa6563d39c792f6153b) compiled by 'joseph@Linux' on 2024/10/21

   xtb is free software: you can redistribute it and/or modify it under
   the terms of the GNU Lesser General Public License as published by
   the Free Software Foundation, either version 3 of the License, or
   (at your option) any later version.
   
   xtb is distributed in the hope that it will be useful,
   but WITHOUT ANY WARRANTY; without even the implied warranty of
   MERCHANTABILITY or FITNESS FOR A PARTICULAR PURPOSE.  See the
   GNU Lesser General Public License for more details.
   
   Cite this work as:
   * C. Bannwarth, E. Caldeweyher, S. Ehlert, A. Hansen, P. Pracht,
     J. Seibert, S. Spicher, S. Grimme, WIREs Comput. Mol. Sci., 2020, 11,
     e01493. DOI: 10.1002/wcms.1493
   
   for GFN2-xTB:
   * C. Bannwarth, S. Ehlert and S. Grimme., J. Chem. Theory Comput., 2019,
     15, 1652-1671. DOI: 10.1021/acs.jctc.8b01176
   for GFN1-xTB:
   * S. Grimme, C. Bannwarth, P. Shushkov, J. Chem. Theory Comput., 2017,
     13, 1989-2009. DOI: 10.1021/acs.jctc.7b00118
   for GFN0-xTB:
   * P. Pracht, E. Caldeweyher, S. Ehlert, S. Grimme, ChemRxiv, 2019, preprint.
     DOI: 10.26434/chemrxiv.8326202.v1
   for GFN-FF:
   * S. Spicher and S. Grimme, Angew. Chem. Int. Ed., 2020, 59, 15665-15673.
     DOI: 10.1002/anie.202004239
   
   for ALPB and GBSA implicit solvation:
   * S. Ehlert, M. Stahn, S. Spicher, S. Grimme, J. Chem. Theory Comput.,
     2021, 17, 4250-4261. DOI: 10.1021/acs.jctc.1c00471
   
   for ddCOSMO and CPCM-X implicit solvation:
   * M. Stahn, S. Ehlert, S. Grimme, J. Phys. Chem. A,
     2023, XX, XXXX-XXXX. DOI: 10.1021/acs.jpca.3c04382
   
   for DFT-D4:
   * E. Caldeweyher, C. Bannwarth and S. Grimme, J. Chem. Phys., 2017,
     147, 034112. DOI: 10.1063/1.4993215
   * E. Caldeweyher, S. Ehlert, A. Hansen, H. Neugebauer, S. Spicher,
     C. Bannwarth and S. Grimme, J. Chem. Phys., 2019, 150, 154122.
     DOI: 10.1063/1.5090222
   * E. Caldeweyher, J.-M. Mewes, S. Ehlert and S. Grimme, Phys. Chem. Chem. Phys.
     2020, 22, 8499-8512. DOI: 10.1039/D0CP00502A
   
   for sTDA-xTB:
   * S. Grimme and C. Bannwarth, J. Chem. Phys., 2016, 145, 054103.
     DOI: 10.1063/1.4959605
   
   in the mass-spec context:
   * V. Asgeirsson, C. Bauer and S. Grimme, Chem. Sci., 2017, 8, 4879.
     DOI: 10.1039/c7sc00601b
   * J. Koopman and S. Grimme, ACS Omega 2019, 4, 12, 15120-15133.
     DOI: 10.1021/acsomega.9b02011
   
   for metadynamics refer to:
   * S. Grimme, J. Chem. Theory Comput., 2019, 155, 2847-2862
     DOI: 10.1021/acs.jctc.9b00143
   
   for SPH calculations refer to:
   * S. Spicher and S. Grimme, J. Chem. Theory Comput., 2021, 17, 1701-1714
     DOI: 10.1021/acs.jctc.0c01306
   
   for ONIOM refer to:
   * C. Plett, A. Katbashev, S. Ehlert, S. Grimme, M. Bursch,
     Phys. Chem. Chem. Phys., 2023, 25, 17860-17868. DOI: 10.1039/D3CP02178E
   
   for DIPRO refer to:
   * J. Kohn, N. Gildemeister, S. Grimme, D. Fazzi, A. Hansen,
     J. Chem. Phys., 2023, just accepted.
   
   for PTB refer to:
   * S. Grimme, M. Mueller, A. Hansen, J. Chem. Phys., 2023, 158, 124111.
     DOI: 10.1063/5.0137838
   
   with help from (in alphabetical order)
   P. Atkinson, C. Bannwarth, F. Bohle, G. Brandenburg, E. Caldeweyher
   M. Checinski, S. Dohm, S. Ehlert, S. Ehrlich, I. Gerasimov, C. Hölzer
   A. Katbashev, J. Kohn, J. Koopman, C. Lavigne, S. Lehtola, F. März, M. Müller,
   F. Musil, H. Neugebauer, J. Pisarek, C. Plett, P. Pracht, F. Pultar,
   J. Seibert, P. Shushkov, S. Spicher, M. Stahn, M. Steiner, T. Strunk,
   J. Stückrath, T. Rose, and J. Unsleber
   
 * started run on 2024/11/25 at 11:34:49.993     
   ID    Z sym.   atoms
    1    6 C      1-11, 13, 14, 16-23, 32-37
    2    7 N      12, 15
    3    8 O      24, 25
    4    1 H      26-31, 56-75
    5   16 S      38, 44, 50
    6    9 F      39-43, 45-49, 51-55

           -------------------------------------------------
          |                Calculation Setup                |
           -------------------------------------------------

          program call               : xtb Base4SF5.mol --opt --gfn 2 --chrg 0 --uhf 1 --tight
          coordinate file            : Base4SF5.mol
          omp threads                :                     4


molecular fragmentation (1/2 indicates fragments):
111111111111111111111111111111111112211111111111111111111111112222221111
111
# atoms in fragment 1/2:    67     8
 fragment masses (1/2) :      761.61       30.07
CMA distance (Bohr)    :   7.635
constraining FC (au)   :  0.0500
########################################################################
[WARNING] Please study the warnings concerning your input carefully
-1- prog_main_parseArguments: Unknown option '--tight' provided
########################################################################

           -------------------------------------------------
          |                 G F N 2 - x T B                 |
           -------------------------------------------------

        Reference                      10.1021/acs.jctc.8b01176
      * Hamiltonian:
        H0-scaling (s, p, d)           1.850000    2.230000    2.230000
        zeta-weighting                 0.500000
      * Dispersion:
        s8                             2.700000
        a1                             0.520000
        a2                             5.000000
        s9                             5.000000
      * Repulsion:
        kExp                           1.500000    1.000000
        rExp                           1.000000
      * Coulomb:
        alpha                          2.000000
        third order                    shell-resolved
        anisotropic                    true
        a3                             3.000000
        a5                             4.000000
        cn-shift                       1.200000
        cn-exp                         4.000000
        max-rad                        5.000000


          ...................................................
          :                      SETUP                      :
          :.................................................:
          :  # basis functions                 240          :
          :  # atomic orbitals                 237          :
          :  # shells                          127          :
          :  # electrons                       279          :
          :  max. iterations                   250          :
          :  Hamiltonian                  GFN2-xTB          :
          :  restarted?                      false          :
          :  GBSA solvation                  false          :
          :  PC potential                    false          :
          :  electronic temp.          300.0000000     K    :
          :  accuracy                    1.0000000          :
          :  -> integral cutoff          0.2500000E+02      :
          :  -> integral neglect         0.1000000E-07      :
          :  -> SCF convergence          0.1000000E-05 Eh   :
          :  -> wf. convergence          0.1000000E-03 e    :
          :  Broyden damping             0.4000000          :
          :  net charge                          0          :
          :  unpaired electrons                  1          :
          ...................................................

 iter      E             dE          RMSdq      gap      omega  full diag
   1   -162.5440531 -0.162544E+03  0.658E+00    0.02       0.0  T
   2   -153.7472573  0.879680E+01  0.962E+00    0.48       1.0  T
   3   -164.7075599 -0.109603E+02  0.528E+00    1.00       1.0  T
   4   -164.2489205  0.458639E+00  0.369E+00    0.80       1.0  T
   5   -163.7728388  0.476082E+00  0.355E+00    0.20       1.0  T
   6   -164.8427430 -0.106990E+01  0.178E+00    0.32       1.0  T
   7   -164.8938173 -0.510743E-01  0.147E+00    0.42       1.0  T
   8   -164.9392573 -0.454399E-01  0.110E+00    0.45       1.0  T
   9   -164.9747331 -0.354758E-01  0.835E-01    0.78       1.0  T
  10   -165.0015390 -0.268060E-01  0.605E-01    0.86       1.0  T
  11   -164.9932820  0.825701E-02  0.116E+00    1.01       1.0  T
  12   -165.0200980 -0.268160E-01  0.882E-01    1.04       1.0  T
  13   -165.0225809 -0.248287E-02  0.748E-01    1.04       1.0  T
  14   -165.0114747  0.111062E-01  0.464E-01    1.00       1.0  T
  15   -165.0151100 -0.363528E-02  0.677E-01    1.06       1.0  T
  16   -165.0363598 -0.212498E-01  0.165E-01    1.08       1.0  T
  17   -165.0342347  0.212511E-02  0.247E-01    1.07       1.0  T
  18   -165.0376735 -0.343880E-02  0.400E-02    1.09       1.0  T
  19   -165.0374422  0.231286E-03  0.739E-02    1.08       1.0  T
  20   -165.0376828 -0.240580E-03  0.220E-02    1.08       1.0  T
  21   -165.0376595  0.232606E-04  0.225E-02    1.08       1.0  T
  22   -165.0376389  0.206674E-04  0.313E-02    1.08       1.0  T
  23   -165.0377004 -0.614892E-04  0.398E-03    1.08       2.9  T
  24   -165.0376921  0.822695E-05  0.111E-02    1.08       1.0  T
  25   -165.0377006 -0.847729E-05  0.427E-03    1.08       2.7  T
  26   -165.0377012 -0.569027E-06  0.440E-03    1.08       2.6  T
  27   -165.0377018 -0.633631E-06  0.286E-03    1.08       4.0  T
  28   -165.0377023 -0.466490E-06  0.723E-04    1.08      16.0  T
  29   -165.0377023 -0.312359E-07  0.541E-05    1.08     213.4  T

   *** convergence criteria satisfied after 29 iterations ***

         #    Occupation            Energy/Eh            Energy/eV
      -------------------------------------------------------------
         1        2.0000           -1.0362095             -28.1967
       ...           ...                  ...                  ...
       134        2.0000           -0.4008003             -10.9063
       135        2.0000           -0.3879705             -10.5572
       136        2.0000           -0.3854613             -10.4889
       137        2.0000           -0.3786099             -10.3025
       138        2.0000           -0.3596607              -9.7869
       139        1.6469           -0.3169145              -8.6237
       140        1.3531           -0.3157639              -8.5924 (HOMO)
       141                         -0.2759587              -7.5092 (LUMO)
       142                         -0.2704129              -7.3583
       143                         -0.2698730              -7.3436
       144                         -0.2665210              -7.2524
       145                         -0.2491439              -6.7796
       ...                                ...                  ...
       237                          3.4934888              95.0627
      -------------------------------------------------------------
                  HL-Gap            0.0398052 Eh            1.0832 eV
             Fermi-level           -0.3060397 Eh           -8.3278 eV

 SCC (total)                   0 d,  0 h,  0 min,  0.922 sec
 SCC setup                      ...        0 min,  0.001 sec (  0.061%)
 Dispersion                     ...        0 min,  0.002 sec (  0.267%)
 classical contributions        ...        0 min,  0.001 sec (  0.062%)
 integral evaluation            ...        0 min,  0.009 sec (  0.960%)
 iterations                     ...        0 min,  0.864 sec ( 93.722%)
 molecular gradient             ...        0 min,  0.026 sec (  2.769%)
 printout                       ...        0 min,  0.020 sec (  2.139%)

         :::::::::::::::::::::::::::::::::::::::::::::::::::::
         ::                     SUMMARY                     ::
         :::::::::::::::::::::::::::::::::::::::::::::::::::::
         :: total energy            -163.756858556188 Eh    ::
         :: gradient norm              2.360830285394 Eh/a0 ::
         :: HOMO-LUMO gap              1.083155788114 eV    ::
         ::.................................................::
         :: SCC energy              -165.036709715143 Eh    ::
         :: -> isotropic ES           -0.008851339543 Eh    ::
         :: -> anisotropic ES         -0.003947221892 Eh    ::
         :: -> anisotropic XC         -0.104606368678 Eh    ::
         :: -> dispersion             -0.095251936861 Eh    ::
         :: repulsion energy           1.279851158955 Eh    ::
         :: add. restraining           0.000000000000 Eh    ::
         :: total charge               0.000000000234 e     ::
         :::::::::::::::::::::::::::::::::::::::::::::::::::::

      ----------------------------------------------------------- 
     |                   =====================                   |
     |                        A N C O P T                        |
     |                   =====================                   |
     |               Approximate Normal Coordinate               |
     |                Rational Function Optimizer                |
      ----------------------------------------------------------- 
      ----------------------------------------------------------- 
     |                   =====================                   |
     |                        A N C O P T                        |
     |                   =====================                   |
     |               Approximate Normal Coordinate               |
     |                Rational Function Optimizer                |
      ----------------------------------------------------------- 

          ...................................................
          :                      SETUP                      :
          :.................................................:
          :   optimization level            normal          :
          :   max. optcycles                   225          :
          :   ANC micro-cycles                  20          :
          :   degrees of freedom               219          :
          :.................................................:
          :   RF solver                   davidson          :
          :   write xtbopt.log                true          :
          :   linear?                        false          :
          :   energy convergence         0.5000000E-05 Eh   :
          :   grad. convergence          0.1000000E-02 Eh/α :
          :   maxmium RF displ.          1.0000000          :
          :   Hlow (freq-cutoff)         0.1000000E-01      :
          :   Hmax (freq-cutoff)         5.0000000          :
          :   S6 in model hess.         20.0000000          :
          ...................................................

generating ANC from exact Hessian ...
Using Lindh-Hessian (1995)
 Shifting diagonal of input Hessian by    1.0056435242256041E-002
 Lowest  eigenvalues of input Hessian
    0.010000    0.010014    0.000000    0.010030    0.000000    0.000000
    0.000000    0.000000    0.000000    0.010111    0.010188    0.010359
    0.010434    0.010453    0.010572    0.010768    0.010858    0.010991
 Highest eigenvalues
    4.605692    4.906653    6.131198    6.781471    9.253751    9.791815


........................................................................
.............................. CYCLE    1 ..............................
........................................................................

 iter      E             dE          RMSdq      gap      omega  full diag
   1   -165.0377023 -0.165038E+03  0.186E-04    1.08       0.0  T
   2   -165.0377020  0.320635E-06  0.194E-03    1.08       5.9  T
   3   -165.0377023 -0.299358E-06  0.535E-04    1.08      21.6  T
   4   -165.0377023 -0.204887E-07  0.183E-04    1.08      63.3  T
     SCC iter.                  ...        0 min,  0.123 sec
     gradient                   ...        0 min,  0.026 sec
 * total energy  :  -163.7568586 Eh     change        0.2447052E-08 Eh
   gradient norm :     2.3608411 Eh/α   predicted     0.0000000E+00 (-100.00%)
   displ. norm   :     0.5858099 α      lambda       -0.1296856E+01
   maximum displ.:     0.3710350 α      in ANC's #212, #208, #203, ...

........................................................................
.............................. CYCLE    2 ..............................
........................................................................

 iter      E             dE          RMSdq      gap      omega  full diag
   1   -165.6466358 -0.165647E+03  0.117E+00    1.10       0.0  T
   2   -165.4787600  0.167876E+00  0.146E+00    1.16       1.0  T
   3   -165.6443302 -0.165570E+00  0.712E-01    1.09       1.0  T
   4   -165.6801759 -0.358458E-01  0.537E-01    1.28       1.0  T
   5   -165.6859967 -0.582073E-02  0.206E-01    1.19       1.0  T
   6   -165.6848660  0.113067E-02  0.145E-01    1.24       1.0  T
   7   -165.6865348 -0.166879E-02  0.528E-02    1.19       1.0  T
   8   -165.6865891 -0.543646E-04  0.317E-02    1.20       1.0  T
   9   -165.6866503 -0.611117E-04  0.129E-02    1.19       1.0  T
  10   -165.6866557 -0.539545E-05  0.668E-03    1.20       1.7  T
  11   -165.6866571 -0.148012E-05  0.359E-03    1.20       3.2  T
  12   -165.6866576 -0.510770E-06  0.228E-03    1.20       5.1  T
  13   -165.6866578 -0.169567E-06  0.121E-03    1.20       9.6  T
  14   -165.6866579 -0.391794E-07  0.711E-04    1.20      16.2  T
  15   -165.6866579 -0.240225E-07  0.387E-04    1.20      29.9  T
     SCC iter.                  ...        0 min,  0.449 sec
     gradient                   ...        0 min,  0.025 sec
 * total energy  :  -164.6481997 Eh     change       -0.8913412E+00 Eh
   gradient norm :     1.0983207 Eh/α   predicted    -0.8709603E+00 (  -2.29%)
   displ. norm   :     0.6370810 α      lambda       -0.6162013E+00
   maximum displ.:     0.1902242 α      in ANC's #94, #212, #203, ...

........................................................................
.............................. CYCLE    3 ..............................
........................................................................

 iter      E             dE          RMSdq      gap      omega  full diag
   1   -166.0893872 -0.166089E+03  0.702E-01    1.22       0.0  T
   2   -166.0949830 -0.559580E-02  0.509E-01    1.22       1.0  T
   3   -166.0965188 -0.153581E-02  0.332E-01    1.23       1.0  T
   4   -166.0967086 -0.189743E-03  0.204E-01    1.21       1.0  T
   5   -166.0988690 -0.216042E-02  0.627E-02    1.23       1.0  T
   6   -166.0990450 -0.175991E-03  0.340E-02    1.22       1.0  T
   7   -166.0990784 -0.334355E-04  0.205E-02    1.23       1.0  T
   8   -166.0991042 -0.257727E-04  0.100E-02    1.22       1.2  T
   9   -166.0991096 -0.543765E-05  0.549E-03    1.22       2.1  T
  10   -166.0991105 -0.939754E-06  0.370E-03    1.22       3.1  T
  11   -166.0991109 -0.337010E-06  0.192E-03    1.22       6.0  T
  12   -166.0991111 -0.202123E-06  0.909E-04    1.22      12.7  T
  13   -166.0991111 -0.998784E-08  0.595E-04    1.22      19.4  T
     SCC iter.                  ...        0 min,  0.389 sec
     gradient                   ...        0 min,  0.025 sec
 * total energy  :  -165.1483876 Eh     change       -0.5001879E+00 Eh
   gradient norm :     0.6754496 Eh/α   predicted    -0.4331502E+00 ( -13.40%)
   displ. norm   :     0.6947868 α      lambda       -0.4200357E+00
   maximum displ.:     0.2247078 α      in ANC's #94, #212, #203, ...

........................................................................
.............................. CYCLE    4 ..............................
........................................................................

 iter      E             dE          RMSdq      gap      omega  full diag
   1   -166.4003792 -0.166400E+03  0.636E-01    0.89       0.0  T
   2   -166.4045570 -0.417777E-02  0.583E-01    1.16       1.0  T
   3   -166.4149218 -0.103648E-01  0.299E-01    1.22       1.0  T
   4   -166.4133074  0.161440E-02  0.217E-01    1.14       1.0  T
   5   -166.4153707 -0.206329E-02  0.879E-02    1.21       1.0  T
   6   -166.4160161 -0.645398E-03  0.319E-02    1.19       1.0  T
   7   -166.4160309 -0.148146E-04  0.202E-02    1.20       1.0  T
   8   -166.4160482 -0.173470E-04  0.109E-02    1.19       1.1  T
   9   -166.4160535 -0.530743E-05  0.556E-03    1.20       2.1  T
  10   -166.4160544 -0.927080E-06  0.388E-03    1.19       3.0  T
  11   -166.4160547 -0.238462E-06  0.262E-03    1.20       4.4  T
  12   -166.4160551 -0.414881E-06  0.959E-04    1.20      12.0  T
  13   -166.4160551 -0.344752E-07  0.541E-04    1.20      21.3  T
     SCC iter.                  ...        0 min,  0.406 sec
     gradient                   ...        0 min,  0.027 sec
 * total energy  :  -165.4862705 Eh     change       -0.3378829E+00 Eh
   gradient norm :     0.4037530 Eh/α   predicted    -0.3113996E+00 (  -7.84%)
   displ. norm   :     0.7263277 α      lambda       -0.2618886E+00
   maximum displ.:     0.2572587 α      in ANC's #94, #95, #212, ...

........................................................................
.............................. CYCLE    5 ..............................
........................................................................

 iter      E             dE          RMSdq      gap      omega  full diag
   1   -166.6452535 -0.166645E+03  0.537E-01    0.41       0.0  T
   2   -166.6491757 -0.392223E-02  0.492E-01    0.71       1.0  T
   3   -166.6567975 -0.762175E-02  0.248E-01    0.79       1.0  T
   4   -166.6557394  0.105808E-02  0.160E-01    0.70       1.0  T
   5   -166.6571068 -0.136744E-02  0.725E-02    0.78       1.0  T
   6   -166.6575812 -0.474321E-03  0.250E-02    0.75       1.0  T
   7   -166.6575832 -0.207404E-05  0.155E-02    0.76       1.0  T
   8   -166.6575934 -0.101346E-04  0.842E-03    0.76       1.4  T
   9   -166.6575970 -0.358289E-05  0.407E-03    0.76       2.8  T
  10   -166.6575974 -0.391532E-06  0.289E-03    0.76       4.0  T
  11   -166.6575976 -0.241607E-06  0.136E-03    0.76       8.5  T
  12   -166.6575977 -0.905486E-07  0.598E-04    0.76      19.3  T
  13   -166.6575977 -0.637345E-08  0.375E-04    0.76      30.8  T
     SCC iter.                  ...        0 min,  0.403 sec
     gradient                   ...        0 min,  0.031 sec
 * total energy  :  -165.6979586 Eh     change       -0.2116881E+00 Eh
   gradient norm :     0.2444424 Eh/α   predicted    -0.2000243E+00 (  -5.51%)
   displ. norm   :     0.7523986 α      lambda       -0.1616226E+00
   maximum displ.:     0.2722325 α      in ANC's #94, #39, #49, ...

........................................................................
.............................. CYCLE    6 ..............................
........................................................................

 iter      E             dE          RMSdq      gap      omega  full diag
   1   -166.8402727 -0.166840E+03  0.437E-01    0.15       0.0  T
   2   -166.8462234 -0.595067E-02  0.376E-01    0.53       1.0  T
   3   -166.8508314 -0.460801E-02  0.204E-01    0.46       1.0  T
   4   -166.8506365  0.194892E-03  0.952E-02    0.42       1.0  T
   5   -166.8509404 -0.303872E-03  0.515E-02    0.43       1.0  T
   6   -166.8511474 -0.207066E-03  0.228E-02    0.45       1.0  T
   7   -166.8511623 -0.149278E-04  0.109E-02    0.45       1.1  T
   8   -166.8511624 -0.265647E-07  0.753E-03    0.45       1.5  T
   9   -166.8511667 -0.437101E-05  0.308E-03    0.45       3.7  T
  10   -166.8511670 -0.212052E-06  0.227E-03    0.45       5.1  T
  11   -166.8511671 -0.142573E-06  0.140E-03    0.45       8.3  T
  12   -166.8511671 -0.304265E-07  0.934E-04    0.45      12.4  T
  13   -166.8511672 -0.711270E-07  0.327E-04    0.45      35.3  T
     SCC iter.                  ...        0 min,  0.448 sec
     gradient                   ...        0 min,  0.025 sec
 * total energy  :  -165.8285562 Eh     change       -0.1305976E+00 Eh
   gradient norm :     0.1543234 Eh/α   predicted    -0.1265601E+00 (  -3.09%)
   displ. norm   :     0.7748185 α      lambda       -0.9985053E-01
   maximum displ.:     0.3082680 α      in ANC's #39, #94, #49, ...

........................................................................
.............................. CYCLE    7 ..............................
........................................................................

 iter      E             dE          RMSdq      gap      omega  full diag
   1   -166.9720913 -0.166972E+03  0.474E-01    0.08       0.0  T
   2   -166.9513350  0.207563E-01  0.675E-01    0.54       1.0  T
   3   -167.0057504 -0.544154E-01  0.268E-01    0.35       1.0  T
   4   -167.0080360 -0.228559E-02  0.167E-01    0.32       1.0  T
   5   -167.0093914 -0.135542E-02  0.951E-02    0.26       1.0  T
   6   -167.0097311 -0.339701E-03  0.420E-02    0.25       1.0  T
   7   -167.0097457 -0.146386E-04  0.247E-02    0.27       1.0  T
   8   -167.0097617 -0.159268E-04  0.174E-02    0.28       1.0  T
   9   -167.0097919 -0.302876E-04  0.724E-03    0.28       1.6  T
  10   -167.0097960 -0.406622E-05  0.294E-03    0.28       3.9  T
  11   -167.0097967 -0.678855E-06  0.153E-03    0.28       7.5  T
  12   -167.0097967 -0.430700E-07  0.115E-03    0.28      10.1  T
  13   -167.0097968 -0.655750E-07  0.607E-04    0.28      19.0  T
  14   -167.0097968 -0.162828E-07  0.263E-04    0.28      43.8  T
     SCC iter.                  ...        0 min,  0.419 sec
     gradient                   ...        0 min,  0.025 sec
 * total energy  :  -165.9103582 Eh     change       -0.8180192E-01 Eh
   gradient norm :     0.1088152 Eh/α   predicted    -0.7989768E-01 (  -2.33%)
   displ. norm   :     0.7985017 α      lambda       -0.6476353E-01
   maximum displ.:     0.3921233 α      in ANC's #39, #38, #49, ...

........................................................................
.............................. CYCLE    8 ..............................
........................................................................

 iter      E             dE          RMSdq      gap      omega  full diag
   1   -167.1074069 -0.167107E+03  0.382E-01    0.10       0.0  T
   2   -167.0867940  0.206129E-01  0.590E-01    0.46       1.0  T
   3   -167.1287257 -0.419317E-01  0.227E-01    0.31       1.0  T
   4   -167.1309416 -0.221595E-02  0.148E-01    0.31       1.0  T
   5   -167.1323538 -0.141222E-02  0.722E-02    0.22       1.0  T
   6   -167.1324703 -0.116480E-03  0.368E-02    0.21       1.0  T
   7   -167.1325730 -0.102702E-03  0.147E-02    0.24       1.0  T
   8   -167.1325710  0.201884E-05  0.139E-02    0.25       1.0  T
   9   -167.1325865 -0.154749E-04  0.712E-03    0.25       1.6  T
  10   -167.1325915 -0.504542E-05  0.275E-03    0.24       4.2  T
  11   -167.1325924 -0.839654E-06  0.110E-03    0.24      10.5  T
  12   -167.1325924 -0.516709E-07  0.753E-04    0.24      15.3  T
  13   -167.1325924 -0.272404E-07  0.461E-04    0.24      25.1  T
     SCC iter.                  ...        0 min,  0.441 sec
     gradient                   ...        0 min,  0.031 sec
 * total energy  :  -165.9645824 Eh     change       -0.5422426E-01 Eh
   gradient norm :     0.0874816 Eh/α   predicted    -0.5302872E-01 (  -2.20%)
   displ. norm   :     0.8087586 α      lambda       -0.4577949E-01
   maximum displ.:     0.4291501 α      in ANC's #39, #24, #38, ...

........................................................................
.............................. CYCLE    9 ..............................
........................................................................

 iter      E             dE          RMSdq      gap      omega  full diag
   1   -167.2282001 -0.167228E+03  0.214E-01    0.17       0.0  T
   2   -167.2243482  0.385192E-02  0.267E-01    0.38       1.0  T
   3   -167.2314923 -0.714415E-02  0.116E-01    0.31       1.0  T
   4   -167.2316237 -0.131319E-03  0.597E-02    0.23       1.0  T
   5   -167.2316530 -0.293306E-04  0.306E-02    0.23       1.0  T
   6   -167.2317557 -0.102731E-03  0.138E-02    0.25       1.0  T
   7   -167.2317657 -0.100139E-04  0.754E-03    0.26       1.5  T
   8   -167.2317694 -0.366964E-05  0.405E-03    0.25       2.8  T
   9   -167.2317703 -0.890487E-06  0.176E-03    0.26       6.6  T
  10   -167.2317706 -0.245092E-06  0.673E-04    0.25      17.1  T
  11   -167.2317706 -0.567204E-08  0.513E-04    0.25      22.5  T
     SCC iter.                  ...        0 min,  0.418 sec
     gradient                   ...        0 min,  0.036 sec
 * total energy  :  -166.0034997 Eh     change       -0.3891730E-01 Eh
   gradient norm :     0.0745435 Eh/α   predicted    -0.3786175E-01 (  -2.71%)
   displ. norm   :     0.8266162 α      lambda       -0.3660947E-01
   maximum displ.:     0.4336664 α      in ANC's #39, #24, #38, ...

........................................................................
.............................. CYCLE   10 ..............................
........................................................................

 iter      E             dE          RMSdq      gap      omega  full diag
   1   -167.3003271 -0.167300E+03  0.198E-01    0.32       0.0  T
   2   -167.3005279 -0.200726E-03  0.136E-01    0.34       1.0  T
   3   -167.3002067  0.321166E-03  0.986E-02    0.28       1.0  T
   4   -167.3004477 -0.241030E-03  0.653E-02    0.38       1.0  T
   5   -167.3009392 -0.491485E-03  0.188E-02    0.32       1.0  T
   6   -167.3009636 -0.244158E-04  0.710E-03    0.32       1.6  T
   7   -167.3009657 -0.208766E-05  0.472E-03    0.32       2.4  T
   8   -167.3009672 -0.146065E-05  0.195E-03    0.32       5.9  T
   9   -167.3009673 -0.144062E-06  0.924E-04    0.32      12.5  T
  10   -167.3009674 -0.362757E-07  0.568E-04    0.32      20.3  T
     SCC iter.                  ...        0 min,  0.335 sec
     gradient                   ...        0 min,  0.032 sec
 * total energy  :  -166.0336421 Eh     change       -0.3014243E-01 Eh
   gradient norm :     0.0664092 Eh/α   predicted    -0.3081229E-01 (   2.22%)
   displ. norm   :     0.8371212 α      lambda       -0.3285073E-01
   maximum displ.:     0.4279601 α      in ANC's #39, #24, #38, ...

........................................................................
.............................. CYCLE   11 ..............................
........................................................................

 iter      E             dE          RMSdq      gap      omega  full diag
   1   -167.3678836 -0.167368E+03  0.216E-01    0.46       0.0  T
   2   -167.3683376 -0.453989E-03  0.138E-01    0.40       1.0  T
   3   -167.3684671 -0.129464E-03  0.944E-02    0.40       1.0  T
   4   -167.3686946 -0.227507E-03  0.373E-02    0.43       1.0  T
   5   -167.3687855 -0.909286E-04  0.163E-02    0.39       1.0  T
   6   -167.3688091 -0.236483E-04  0.800E-03    0.41       1.4  T
   7   -167.3688123 -0.319897E-05  0.472E-03    0.40       2.4  T
   8   -167.3688139 -0.151647E-05  0.196E-03    0.41       5.9  T
   9   -167.3688140 -0.154292E-06  0.843E-04    0.41      13.7  T
  10   -167.3688140 -0.107911E-07  0.565E-04    0.41      20.4  T
     SCC iter.                  ...        0 min,  0.315 sec
     gradient                   ...        0 min,  0.025 sec
 * total energy  :  -166.0591451 Eh     change       -0.2550299E-01 Eh
   gradient norm :     0.0604294 Eh/α   predicted    -0.2793583E-01 (   9.54%)
   displ. norm   :     0.7825855 α      lambda       -0.2482237E-01
   maximum displ.:     0.3693344 α      in ANC's #39, #24, #38, ...

........................................................................
.............................. CYCLE   12 ..............................
........................................................................

 iter      E             dE          RMSdq      gap      omega  full diag
   1   -167.4028516 -0.167403E+03  0.199E-01    0.64       0.0  T
   2   -167.4034709 -0.619245E-03  0.125E-01    0.55       1.0  T
   3   -167.4039459 -0.475012E-03  0.808E-02    0.54       1.0  T
   4   -167.4040411 -0.952482E-04  0.320E-02    0.57       1.0  T
   5   -167.4041045 -0.633360E-04  0.159E-02    0.54       1.0  T
   6   -167.4041280 -0.235617E-04  0.642E-03    0.55       1.8  T
   7   -167.4041284 -0.377805E-06  0.408E-03    0.55       2.8  T
   8   -167.4041294 -0.104753E-05  0.160E-03    0.55       7.2  T
   9   -167.4041295 -0.898856E-07  0.864E-04    0.55      13.4  T
  10   -167.4041295 -0.113927E-07  0.494E-04    0.55      23.4  T
     SCC iter.                  ...        0 min,  0.306 sec
     gradient                   ...        0 min,  0.026 sec
 * total energy  :  -166.0794739 Eh     change       -0.2032876E-01 Eh
   gradient norm :     0.0510954 Eh/α   predicted    -0.2001230E-01 (  -1.56%)
   displ. norm   :     0.7757699 α      lambda       -0.1970407E-01
   maximum displ.:     0.3218496 α      in ANC's #39, #24, #42, ...

........................................................................
.............................. CYCLE   13 ..............................
........................................................................

 iter      E             dE          RMSdq      gap      omega  full diag
   1   -167.4299678 -0.167430E+03  0.217E-01    0.86       0.0  T
   2   -167.4305227 -0.554915E-03  0.123E-01    0.79       1.0  T
   3   -167.4308627 -0.339950E-03  0.880E-02    0.75       1.0  T
   4   -167.4310464 -0.183694E-03  0.302E-02    0.79       1.0  T
   5   -167.4311098 -0.634784E-04  0.147E-02    0.76       1.0  T
   6   -167.4311284 -0.185820E-04  0.539E-03    0.77       2.1  T
   7   -167.4311286 -0.188494E-06  0.300E-03    0.77       3.8  T
   8   -167.4311290 -0.393101E-06  0.160E-03    0.77       7.2  T
   9   -167.4311291 -0.897980E-07  0.941E-04    0.77      12.3  T
  10   -167.4311291 -0.160680E-07  0.523E-04    0.77      22.1  T
     SCC iter.                  ...        0 min,  0.313 sec
     gradient                   ...        0 min,  0.026 sec
 * total energy  :  -166.0937952 Eh     change       -0.1432128E-01 Eh
   gradient norm :     0.0490476 Eh/α   predicted    -0.1578117E-01 (  10.19%)
   displ. norm   :     0.6917445 α      lambda       -0.1290566E-01
   maximum displ.:     0.2974853 α      in ANC's #24, #39, #42, ...

........................................................................
.............................. CYCLE   14 ..............................
........................................................................

 iter      E             dE          RMSdq      gap      omega  full diag
   1   -167.4508750 -0.167451E+03  0.183E-01    1.03       0.0  T
   2   -167.4511310 -0.256013E-03  0.987E-02    1.00       1.0  T
   3   -167.4511648 -0.338570E-04  0.754E-02    0.95       1.0  T
   4   -167.4513721 -0.207250E-03  0.224E-02    0.98       1.0  T
   5   -167.4514071 -0.349902E-04  0.103E-02    0.96       1.1  T
   6   -167.4514149 -0.780355E-05  0.381E-03    0.97       3.0  T
   7   -167.4514150 -0.179550E-06  0.176E-03    0.97       6.6  T
   8   -167.4514151 -0.517963E-07  0.108E-03    0.97      10.7  T
   9   -167.4514151 -0.323717E-07  0.662E-04    0.97      17.4  T
  10   -167.4514151 -0.141798E-07  0.306E-04    0.97      37.7  T
     SCC iter.                  ...        0 min,  0.300 sec
     gradient                   ...        0 min,  0.025 sec
 * total energy  :  -166.1023586 Eh     change       -0.8563443E-02 Eh
   gradient norm :     0.0452683 Eh/α   predicted    -0.9540600E-02 (  11.41%)
   displ. norm   :     0.5833728 α      lambda       -0.7685779E-02
   maximum displ.:     0.2533827 α      in ANC's #24, #39, #11, ...

........................................................................
.............................. CYCLE   15 ..............................
........................................................................

 iter      E             dE          RMSdq      gap      omega  full diag
   1   -167.4617870 -0.167462E+03  0.159E-01    1.17       0.0  T
   2   -167.4618517 -0.647695E-04  0.902E-02    1.19       1.0  T
   3   -167.4616855  0.166254E-03  0.663E-02    1.12       1.0  T
   4   -167.4619693 -0.283805E-03  0.131E-02    1.16       1.0  T
   5   -167.4619754 -0.610989E-05  0.641E-03    1.15       1.8  T
   6   -167.4619778 -0.244488E-05  0.258E-03    1.16       4.5  T
   7   -167.4619780 -0.170965E-06  0.148E-03    1.16       7.8  T
   8   -167.4619781 -0.113640E-06  0.805E-04    1.16      14.3  T
   9   -167.4619781 -0.171507E-07  0.444E-04    1.16      26.0  T
     SCC iter.                  ...        0 min,  0.270 sec
     gradient                   ...        0 min,  0.025 sec
 * total energy  :  -166.1070619 Eh     change       -0.4703251E-02 Eh
   gradient norm :     0.0441508 Eh/α   predicted    -0.5150718E-02 (   9.51%)
   displ. norm   :     0.5569200 α      lambda       -0.6617617E-02
   maximum displ.:     0.2008847 α      in ANC's #24, #11, #14, ...

........................................................................
.............................. CYCLE   16 ..............................
........................................................................

 iter      E             dE          RMSdq      gap      omega  full diag
   1   -167.4778347 -0.167478E+03  0.157E-01    1.30       0.0  T
   2   -167.4779010 -0.663150E-04  0.886E-02    1.33       1.0  T
   3   -167.4777717  0.129313E-03  0.637E-02    1.28       1.0  T
   4   -167.4779977 -0.225978E-03  0.120E-02    1.31       1.0  T
   5   -167.4780024 -0.479792E-05  0.546E-03    1.31       2.1  T
   6   -167.4780037 -0.124167E-05  0.225E-03    1.31       5.1  T
   7   -167.4780038 -0.675954E-07  0.112E-03    1.31      10.3  T
   8   -167.4780038 -0.557669E-07  0.649E-04    1.31      17.8  T
   9   -167.4780038 -0.133252E-07  0.324E-04    1.31      35.6  T
     SCC iter.                  ...        0 min,  0.271 sec
     gradient                   ...        0 min,  0.025 sec
 * total energy  :  -166.1109206 Eh     change       -0.3858720E-02 Eh
   gradient norm :     0.0366040 Eh/α   predicted    -0.4335082E-02 (  12.35%)
   displ. norm   :     0.4777838 α      lambda       -0.4094580E-02
   maximum displ.:     0.1478532 α      in ANC's #11, #30, #7, ...

........................................................................
.............................. CYCLE   17 ..............................
........................................................................

 iter      E             dE          RMSdq      gap      omega  full diag
   1   -167.4810936 -0.167481E+03  0.117E-01    1.39       0.0  T
   2   -167.4811210 -0.273662E-04  0.668E-02    1.39       1.0  T
   3   -167.4810328  0.881957E-04  0.457E-02    1.39       1.0  T
   4   -167.4811641 -0.131361E-03  0.809E-03    1.40       1.4  T
   5   -167.4811662 -0.202828E-05  0.339E-03    1.40       3.4  T
   6   -167.4811666 -0.415719E-06  0.186E-03    1.40       6.2  T
   7   -167.4811667 -0.105722E-06  0.857E-04    1.40      13.5  T
   8   -167.4811667 -0.328986E-07  0.531E-04    1.40      21.8  T
     SCC iter.                  ...        0 min,  0.239 sec
     gradient                   ...        0 min,  0.026 sec
 * total energy  :  -166.1135256 Eh     change       -0.2605022E-02 Eh
   gradient norm :     0.0352574 Eh/α   predicted    -0.2514658E-02 (  -3.47%)
   displ. norm   :     0.5325898 α      lambda       -0.4228080E-02
   maximum displ.:     0.1721388 α      in ANC's #11, #30, #10, ...

........................................................................
.............................. CYCLE   18 ..............................
........................................................................

 iter      E             dE          RMSdq      gap      omega  full diag
   1   -167.4865833 -0.167487E+03  0.119E-01    1.34       0.0  T
   2   -167.4866148 -0.315008E-04  0.706E-02    1.33       1.0  T
   3   -167.4865223  0.924866E-04  0.460E-02    1.35       1.0  T
   4   -167.4866565 -0.134158E-03  0.808E-03    1.34       1.4  T
   5   -167.4866593 -0.283355E-05  0.347E-03    1.34       3.3  T
   6   -167.4866596 -0.329397E-06  0.195E-03    1.34       5.9  T
   7   -167.4866597 -0.741327E-07  0.926E-04    1.34      12.5  T
   8   -167.4866598 -0.437198E-07  0.534E-04    1.34      21.6  T
     SCC iter.                  ...        0 min,  0.276 sec
     gradient                   ...        0 min,  0.039 sec
 * total energy  :  -166.1164661 Eh     change       -0.2940466E-02 Eh
   gradient norm :     0.0302704 Eh/α   predicted    -0.2713698E-02 (  -7.71%)
   displ. norm   :     0.5551624 α      lambda       -0.3704783E-02
   maximum displ.:     0.1730352 α      in ANC's #7, #30, #10, ...

........................................................................
.............................. CYCLE   19 ..............................
........................................................................

 iter      E             dE          RMSdq      gap      omega  full diag
   1   -167.4855949 -0.167486E+03  0.120E-01    1.28       0.0  T
   2   -167.4856422 -0.472264E-04  0.724E-02    1.28       1.0  T
   3   -167.4855720  0.701917E-04  0.436E-02    1.29       1.0  T
   4   -167.4856761 -0.104157E-03  0.101E-02    1.28       1.1  T
   5   -167.4856810 -0.482809E-05  0.472E-03    1.28       2.4  T
   6   -167.4856818 -0.825384E-06  0.198E-03    1.28       5.8  T
   7   -167.4856818 -0.538079E-07  0.679E-04    1.28      17.0  T
   8   -167.4856818 -0.138724E-07  0.399E-04    1.28      28.9  T
     SCC iter.                  ...        0 min,  0.248 sec
     gradient                   ...        0 min,  0.026 sec
 * total energy  :  -166.1188758 Eh     change       -0.2409763E-02 Eh
   gradient norm :     0.0302285 Eh/α   predicted    -0.2423312E-02 (   0.56%)
   displ. norm   :     0.5468104 α      lambda       -0.4130562E-02
   maximum displ.:     0.1862720 α      in ANC's #7, #10, #8, ...

........................................................................
.............................. CYCLE   20 ..............................
........................................................................

 iter      E             dE          RMSdq      gap      omega  full diag
   1   -167.4879549 -0.167488E+03  0.129E-01    1.25       0.0  T
   2   -167.4880251 -0.702614E-04  0.771E-02    1.24       1.0  T
   3   -167.4879580  0.670885E-04  0.466E-02    1.26       1.0  T
   4   -167.4880602 -0.102159E-03  0.131E-02    1.24       1.0  T
   5   -167.4880682 -0.798709E-05  0.666E-03    1.25       1.7  T
   6   -167.4880701 -0.192372E-05  0.280E-03    1.25       4.1  T
   7   -167.4880702 -0.838124E-07  0.104E-03    1.25      11.1  T
   8   -167.4880702 -0.404653E-07  0.632E-04    1.25      18.3  T
   9   -167.4880702 -0.920136E-08  0.313E-04    1.25      36.9  T
     SCC iter.                  ...        0 min,  0.268 sec
     gradient                   ...        0 min,  0.026 sec
 * total energy  :  -166.1208347 Eh     change       -0.1958836E-02 Eh
   gradient norm :     0.0315031 Eh/α   predicted    -0.2682783E-02 (  36.96%)
   displ. norm   :     0.4828647 α      lambda       -0.3361543E-02
   maximum displ.:     0.1521491 α      in ANC's #10, #4, #7, ...
 * RMSD in coord.:     1.0482599 α      energy gain  -0.2363976E+01 Eh

generating ANC from exact Hessian ...
Using Lindh-Hessian (1995)
 Shifting diagonal of input Hessian by    9.8369550904298438E-003
 Lowest  eigenvalues of input Hessian
    0.000000    0.000000    0.000000    0.000000    0.000000    0.000000
    0.010000    0.010052    0.010168    0.010354    0.010497    0.010657
    0.010751    0.011043    0.011727    0.011974    0.012132    0.012348
 Highest eigenvalues
    2.172313    2.188350    2.213623    2.221686    2.259058    2.286035


........................................................................
.............................. CYCLE   21 ..............................
........................................................................

 iter      E             dE          RMSdq      gap      omega  full diag
   1   -167.4843281 -0.167484E+03  0.113E-01    1.27       0.0  T
   2   -167.4843570 -0.288837E-04  0.667E-02    1.26       1.0  T
   3   -167.4842670  0.900093E-04  0.423E-02    1.26       1.0  T
   4   -167.4843827 -0.115702E-03  0.876E-03    1.26       1.3  T
   5   -167.4843871 -0.440391E-05  0.427E-03    1.26       2.7  T
   6   -167.4843881 -0.103420E-05  0.201E-03    1.26       5.7  T
   7   -167.4843882 -0.659635E-07  0.933E-04    1.26      12.4  T
   8   -167.4843882 -0.503479E-07  0.420E-04    1.26      27.5  T
     SCC iter.                  ...        0 min,  0.251 sec
     gradient                   ...        0 min,  0.043 sec
 * total energy  :  -166.1221355 Eh     change       -0.1300839E-02 Eh
   gradient norm :     0.0317131 Eh/α   predicted     0.0000000E+00 (-100.00%)
   displ. norm   :     0.2292378 α      lambda       -0.2884573E-02
   maximum displ.:     0.0907826 α      in ANC's #18, #16, #10, ...

........................................................................
.............................. CYCLE   22 ..............................
........................................................................

 iter      E             dE          RMSdq      gap      omega  full diag
   1   -167.4900169 -0.167490E+03  0.655E-02    1.29       0.0  T
   2   -167.4900255 -0.862350E-05  0.384E-02    1.29       1.0  T
   3   -167.4900011  0.244082E-04  0.227E-02    1.28       1.0  T
   4   -167.4900334 -0.323166E-04  0.530E-03    1.29       2.2  T
   5   -167.4900346 -0.119345E-05  0.207E-03    1.29       5.6  T
   6   -167.4900347 -0.897141E-07  0.108E-03    1.29      10.6  T
   7   -167.4900347 -0.377599E-07  0.391E-04    1.29      29.5  T
   8   -167.4900347 -0.667268E-08  0.242E-04    1.29      47.7  T
     SCC iter.                  ...        0 min,  0.247 sec
     gradient                   ...        0 min,  0.026 sec
 * total energy  :  -166.1243684 Eh     change       -0.2232880E-02 Eh
   gradient norm :     0.0204755 Eh/α   predicted    -0.1518439E-02 ( -32.00%)
   displ. norm   :     0.3975905 α      lambda       -0.2666274E-02
   maximum displ.:     0.1598230 α      in ANC's #16, #18, #7, ...

........................................................................
.............................. CYCLE   23 ..............................
........................................................................

 iter      E             dE          RMSdq      gap      omega  full diag
   1   -167.4942065 -0.167494E+03  0.829E-02    1.32       0.0  T
   2   -167.4942287 -0.221610E-04  0.497E-02    1.34       1.0  T
   3   -167.4942033  0.253819E-04  0.333E-02    1.32       1.0  T
   4   -167.4942546 -0.513310E-04  0.765E-03    1.33       1.5  T
   5   -167.4942571 -0.247885E-05  0.312E-03    1.33       3.7  T
   6   -167.4942572 -0.926001E-07  0.171E-03    1.33       6.8  T
   7   -167.4942573 -0.117120E-06  0.539E-04    1.33      21.4  T
   8   -167.4942573 -0.522456E-08  0.382E-04    1.33      30.2  T
     SCC iter.                  ...        0 min,  0.245 sec
     gradient                   ...        0 min,  0.025 sec
 * total energy  :  -166.1261708 Eh     change       -0.1802373E-02 Eh
   gradient norm :     0.0117018 Eh/α   predicted    -0.1544230E-02 ( -14.32%)
   displ. norm   :     0.3695616 α      lambda       -0.1120881E-02
   maximum displ.:     0.1558315 α      in ANC's #16, #18, #7, ...

........................................................................
.............................. CYCLE   24 ..............................
........................................................................

 iter      E             dE          RMSdq      gap      omega  full diag
   1   -167.4948159 -0.167495E+03  0.551E-02    1.34       0.0  T
   2   -167.4948271 -0.112264E-04  0.339E-02    1.35       1.0  T
   3   -167.4948178  0.925992E-05  0.229E-02    1.34       1.0  T
   4   -167.4948403 -0.224070E-04  0.491E-03    1.35       2.4  T
   5   -167.4948414 -0.118745E-05  0.212E-03    1.35       5.5  T
   6   -167.4948415 -0.442554E-07  0.121E-03    1.35       9.5  T
   7   -167.4948415 -0.549362E-07  0.374E-04    1.35      30.9  T
   8   -167.4948415 -0.324499E-08  0.257E-04    1.35      45.0  T
     SCC iter.                  ...        0 min,  0.240 sec
     gradient                   ...        0 min,  0.025 sec
 * total energy  :  -166.1270370 Eh     change       -0.8662618E-03 Eh
   gradient norm :     0.0103986 Eh/α   predicted    -0.6369850E-03 ( -26.47%)
   displ. norm   :     0.4875680 α      lambda       -0.1121175E-02
   maximum displ.:     0.2065369 α      in ANC's #16, #7, #10, ...

........................................................................
.............................. CYCLE   25 ..............................
........................................................................

 iter      E             dE          RMSdq      gap      omega  full diag
   1   -167.4944141 -0.167494E+03  0.637E-02    1.35       0.0  T
   2   -167.4944265 -0.124616E-04  0.395E-02    1.35       1.0  T
   3   -167.4944052  0.213328E-04  0.250E-02    1.34       1.0  T
   4   -167.4944379 -0.326864E-04  0.500E-03    1.35       2.3  T
   5   -167.4944393 -0.140995E-05  0.223E-03    1.35       5.2  T
   6   -167.4944394 -0.823229E-07  0.131E-03    1.35       8.8  T
   7   -167.4944394 -0.514645E-07  0.413E-04    1.35      28.0  T
   8   -167.4944394 -0.629848E-08  0.256E-04    1.35      45.1  T
     SCC iter.                  ...        0 min,  0.253 sec
     gradient                   ...        0 min,  0.026 sec
 * total energy  :  -166.1279096 Eh     change       -0.8725855E-03 Eh
   gradient norm :     0.0107463 Eh/α   predicted    -0.6939033E-03 ( -20.48%)
   displ. norm   :     0.5165592 α      lambda       -0.9812666E-03
   maximum displ.:     0.2129640 α      in ANC's #16, #7, #10, ...

........................................................................
.............................. CYCLE   26 ..............................
........................................................................

 iter      E             dE          RMSdq      gap      omega  full diag
   1   -167.4942429 -0.167494E+03  0.636E-02    1.34       0.0  T
   2   -167.4942522 -0.924062E-05  0.389E-02    1.34       1.0  T
   3   -167.4942318  0.203678E-04  0.194E-02    1.34       1.0  T
   4   -167.4942565 -0.246538E-04  0.469E-03    1.34       2.5  T
   5   -167.4942577 -0.122901E-05  0.208E-03    1.34       5.6  T
   6   -167.4942578 -0.124431E-06  0.113E-03    1.34      10.3  T
   7   -167.4942578 -0.357479E-07  0.385E-04    1.34      30.0  T
   8   -167.4942579 -0.531790E-08  0.231E-04    1.34      49.9  T
     SCC iter.                  ...        0 min,  0.239 sec
     gradient                   ...        0 min,  0.026 sec
 * total energy  :  -166.1286831 Eh     change       -0.7734892E-03 Eh
   gradient norm :     0.0123981 Eh/α   predicted    -0.6215586E-03 ( -19.64%)
   displ. norm   :     0.5146563 α      lambda       -0.9080437E-03
   maximum displ.:     0.1980072 α      in ANC's #10, #16, #7, ...

........................................................................
.............................. CYCLE   27 ..............................
........................................................................

 iter      E             dE          RMSdq      gap      omega  full diag
   1   -167.4952705 -0.167495E+03  0.616E-02    1.32       0.0  T
   2   -167.4952767 -0.614244E-05  0.369E-02    1.32       1.0  T
   3   -167.4952628  0.138665E-04  0.149E-02    1.33       1.0  T
   4   -167.4952791 -0.162377E-04  0.425E-03    1.32       2.7  T
   5   -167.4952799 -0.830407E-06  0.183E-03    1.32       6.3  T
   6   -167.4952800 -0.120177E-06  0.794E-04    1.32      14.5  T
   7   -167.4952800 -0.134795E-07  0.328E-04    1.32      35.2  T
     SCC iter.                  ...        0 min,  0.211 sec
     gradient                   ...        0 min,  0.026 sec
 * total energy  :  -166.1294140 Eh     change       -0.7308771E-03 Eh
   gradient norm :     0.0135792 Eh/α   predicted    -0.5743293E-03 ( -21.42%)
   displ. norm   :     0.5301293 α      lambda       -0.9479112E-03
   maximum displ.:     0.2111666 α      in ANC's #10, #4, #7, ...

........................................................................
.............................. CYCLE   28 ..............................
........................................................................

 iter      E             dE          RMSdq      gap      omega  full diag
   1   -167.4973275 -0.167497E+03  0.645E-02    1.32       0.0  T
   2   -167.4973332 -0.578010E-05  0.380E-02    1.31       1.0  T
   3   -167.4973044  0.288369E-04  0.219E-02    1.32       1.0  T
   4   -167.4973399 -0.355161E-04  0.398E-03    1.31       2.9  T
   5   -167.4973403 -0.410435E-06  0.179E-03    1.31       6.4  T
   6   -167.4973404 -0.934601E-07  0.808E-04    1.31      14.3  T
   7   -167.4973404 -0.119747E-07  0.404E-04    1.31      28.6  T
     SCC iter.                  ...        0 min,  0.211 sec
     gradient                   ...        0 min,  0.025 sec
 * total energy  :  -166.1301876 Eh     change       -0.7735694E-03 Eh
   gradient norm :     0.0131673 Eh/α   predicted    -0.6071565E-03 ( -21.51%)
   displ. norm   :     0.5618821 α      lambda       -0.9661593E-03
   maximum displ.:     0.2374101 α      in ANC's #4, #10, #7, ...

........................................................................
.............................. CYCLE   29 ..............................
........................................................................

 iter      E             dE          RMSdq      gap      omega  full diag
   1   -167.4995874 -0.167500E+03  0.703E-02    1.32       0.0  T
   2   -167.4995955 -0.811077E-05  0.417E-02    1.31       1.0  T
   3   -167.4995602  0.353187E-04  0.261E-02    1.32       1.0  T
   4   -167.4996058 -0.455610E-04  0.458E-03    1.31       2.5  T
   5   -167.4996067 -0.891975E-06  0.230E-03    1.31       5.0  T
   6   -167.4996069 -0.191893E-06  0.123E-03    1.31       9.4  T
   7   -167.4996069 -0.472592E-07  0.576E-04    1.31      20.1  T
   8   -167.4996069 -0.211753E-07  0.259E-04    1.31      44.5  T
     SCC iter.                  ...        0 min,  0.243 sec
     gradient                   ...        0 min,  0.025 sec
 * total energy  :  -166.1309629 Eh     change       -0.7753903E-03 Eh
   gradient norm :     0.0111737 Eh/α   predicted    -0.6355948E-03 ( -18.03%)
   displ. norm   :     0.5934862 α      lambda       -0.7966759E-03
   maximum displ.:     0.2567527 α      in ANC's #4, #10, #7, ...

........................................................................
.............................. CYCLE   30 ..............................
........................................................................

 iter      E             dE          RMSdq      gap      omega  full diag
   1   -167.5006341 -0.167501E+03  0.726E-02    1.32       0.0  T
   2   -167.5006409 -0.672598E-05  0.432E-02    1.32       1.0  T
   3   -167.5006060  0.348723E-04  0.236E-02    1.32       1.0  T
   4   -167.5006472 -0.412161E-04  0.479E-03    1.32       2.4  T
   5   -167.5006486 -0.139931E-05  0.226E-03    1.32       5.1  T
   6   -167.5006489 -0.293171E-06  0.106E-03    1.32      10.8  T
   7   -167.5006489 -0.154335E-07  0.533E-04    1.32      21.7  T
   8   -167.5006489 -0.181159E-07  0.219E-04    1.32      52.8  T
     SCC iter.                  ...        0 min,  0.243 sec
     gradient                   ...        0 min,  0.026 sec
 * total energy  :  -166.1315934 Eh     change       -0.6304909E-03 Eh
   gradient norm :     0.0098648 Eh/α   predicted    -0.5386539E-03 ( -14.57%)
   displ. norm   :     0.5452542 α      lambda       -0.6043087E-03
   maximum displ.:     0.2469483 α      in ANC's #4, #10, #2, ...

........................................................................
.............................. CYCLE   31 ..............................
........................................................................

 iter      E             dE          RMSdq      gap      omega  full diag
   1   -167.5026221 -0.167503E+03  0.672E-02    1.33       0.0  T
   2   -167.5026317 -0.961832E-05  0.403E-02    1.33       1.0  T
   3   -167.5026077  0.239912E-04  0.217E-02    1.33       1.0  T
   4   -167.5026360 -0.283459E-04  0.571E-03    1.33       2.0  T
   5   -167.5026384 -0.237186E-05  0.260E-03    1.33       4.4  T
   6   -167.5026389 -0.484290E-06  0.114E-03    1.33      10.1  T
   7   -167.5026389 -0.188079E-07  0.488E-04    1.33      23.7  T
   8   -167.5026389 -0.926849E-08  0.275E-04    1.33      41.9  T
     SCC iter.                  ...        0 min,  0.244 sec
     gradient                   ...        0 min,  0.025 sec
 * total energy  :  -166.1320608 Eh     change       -0.4673208E-03 Eh
   gradient norm :     0.0089143 Eh/α   predicted    -0.3919862E-03 ( -16.12%)
   displ. norm   :     0.6159531 α      lambda       -0.4893669E-03
   maximum displ.:     0.2718805 α      in ANC's #4, #10, #2, ...

........................................................................
.............................. CYCLE   32 ..............................
........................................................................

 iter      E             dE          RMSdq      gap      omega  full diag
   1   -167.5006440 -0.167501E+03  0.793E-02    1.32       0.0  T
   2   -167.5006520 -0.792494E-05  0.471E-02    1.32       1.0  T
   3   -167.5006262  0.257942E-04  0.185E-02    1.32       1.0  T
   4   -167.5006555 -0.293160E-04  0.481E-03    1.32       2.4  T
   5   -167.5006566 -0.112867E-05  0.226E-03    1.32       5.1  T
   6   -167.5006569 -0.241502E-06  0.932E-04    1.32      12.4  T
   7   -167.5006569 -0.287588E-07  0.419E-04    1.32      27.5  T
     SCC iter.                  ...        0 min,  0.217 sec
     gradient                   ...        0 min,  0.028 sec
 * total energy  :  -166.1324106 Eh     change       -0.3498357E-03 Eh
   gradient norm :     0.0102577 Eh/α   predicted    -0.3375170E-03 (  -3.52%)
   displ. norm   :     0.4777493 α      lambda       -0.5978538E-03
   maximum displ.:     0.2316639 α      in ANC's #4, #2, #10, ...

........................................................................
.............................. CYCLE   33 ..............................
........................................................................

 iter      E             dE          RMSdq      gap      omega  full diag
   1   -167.5063475 -0.167506E+03  0.708E-02    1.34       0.0  T
   2   -167.5063822 -0.347269E-04  0.456E-02    1.35       1.0  T
   3   -167.5063709  0.113893E-04  0.260E-02    1.34       1.0  T
   4   -167.5063930 -0.221815E-04  0.830E-03    1.34       1.4  T
   5   -167.5063978 -0.476151E-05  0.396E-03    1.34       2.9  T
   6   -167.5063988 -0.981993E-06  0.196E-03    1.34       5.9  T
   7   -167.5063989 -0.816682E-07  0.776E-04    1.34      14.9  T
   8   -167.5063989 -0.231709E-07  0.465E-04    1.34      24.8  T
     SCC iter.                  ...        0 min,  0.254 sec
     gradient                   ...        0 min,  0.028 sec
 * total energy  :  -166.1327273 Eh     change       -0.3166650E-03 Eh
   gradient norm :     0.0083155 Eh/α   predicted    -0.3671744E-03 (  15.95%)
   displ. norm   :     0.4868801 α      lambda       -0.3358438E-03
   maximum displ.:     0.2234663 α      in ANC's #4, #10, #2, ...

........................................................................
.............................. CYCLE   34 ..............................
........................................................................

 iter      E             dE          RMSdq      gap      omega  full diag
   1   -167.5043342 -0.167504E+03  0.689E-02    1.33       0.0  T
   2   -167.5043416 -0.733410E-05  0.414E-02    1.34       1.0  T
   3   -167.5043221  0.194568E-04  0.168E-02    1.33       1.0  T
   4   -167.5043447 -0.226241E-04  0.415E-03    1.34       2.8  T
   5   -167.5043456 -0.882303E-06  0.194E-03    1.34       6.0  T
   6   -167.5043457 -0.106031E-06  0.985E-04    1.34      11.7  T
   7   -167.5043457 -0.223618E-07  0.355E-04    1.34      32.5  T
     SCC iter.                  ...        0 min,  0.212 sec
     gradient                   ...        0 min,  0.026 sec
 * total energy  :  -166.1329708 Eh     change       -0.2435848E-03 Eh
   gradient norm :     0.0090528 Eh/α   predicted    -0.2077315E-03 ( -14.72%)
   displ. norm   :     0.3852077 α      lambda       -0.3262581E-03
   maximum displ.:     0.1808661 α      in ANC's #4, #2, #10, ...

........................................................................
.............................. CYCLE   35 ..............................
........................................................................

 iter      E             dE          RMSdq      gap      omega  full diag
   1   -167.5041619 -0.167504E+03  0.581E-02    1.32       0.0  T
   2   -167.5041699 -0.805697E-05  0.351E-02    1.33       1.0  T
   3   -167.5041542  0.157197E-04  0.174E-02    1.32       1.0  T
   4   -167.5041733 -0.191324E-04  0.440E-03    1.33       2.6  T
   5   -167.5041745 -0.121515E-05  0.195E-03    1.33       5.9  T
   6   -167.5041747 -0.143199E-06  0.992E-04    1.33      11.6  T
   7   -167.5041747 -0.144483E-07  0.367E-04    1.33      31.5  T
     SCC iter.                  ...        0 min,  0.209 sec
     gradient                   ...        0 min,  0.026 sec
 * total energy  :  -166.1331974 Eh     change       -0.2265164E-03 Eh
   gradient norm :     0.0080821 Eh/α   predicted    -0.1873368E-03 ( -17.30%)
   displ. norm   :     0.4142594 α      lambda       -0.3806558E-03
   maximum displ.:     0.1945364 α      in ANC's #4, #2, #10, ...

........................................................................
.............................. CYCLE   36 ..............................
........................................................................

 iter      E             dE          RMSdq      gap      omega  full diag
   1   -167.5052463 -0.167505E+03  0.701E-02    1.33       0.0  T
   2   -167.5052549 -0.855661E-05  0.422E-02    1.33       1.0  T
   3   -167.5052386  0.162817E-04  0.161E-02    1.33       1.0  T
   4   -167.5052568 -0.182658E-04  0.434E-03    1.33       2.7  T
   5   -167.5052581 -0.129345E-05  0.199E-03    1.33       5.8  T
   6   -167.5052583 -0.187574E-06  0.883E-04    1.33      13.1  T
   7   -167.5052583 -0.105533E-07  0.339E-04    1.33      34.1  T
     SCC iter.                  ...        0 min,  0.209 sec
     gradient                   ...        0 min,  0.025 sec
 * total energy  :  -166.1334580 Eh     change       -0.2606483E-03 Eh
   gradient norm :     0.0101170 Eh/α   predicted    -0.2229956E-03 ( -14.45%)
   displ. norm   :     0.3825881 α      lambda       -0.4358347E-03
   maximum displ.:     0.1638948 α      in ANC's #2, #5, #4, ...

........................................................................
.............................. CYCLE   37 ..............................
........................................................................

 iter      E             dE          RMSdq      gap      omega  full diag
   1   -167.5085874 -0.167509E+03  0.580E-02    1.33       0.0  T
   2   -167.5085950 -0.758881E-05  0.345E-02    1.33       1.0  T
   3   -167.5085855  0.946771E-05  0.141E-02    1.33       1.0  T
   4   -167.5085971 -0.115556E-04  0.360E-03    1.33       3.2  T
   5   -167.5085977 -0.636838E-06  0.168E-03    1.33       6.9  T
   6   -167.5085979 -0.129059E-06  0.815E-04    1.33      14.2  T
   7   -167.5085979 -0.130701E-07  0.348E-04    1.33      33.2  T
     SCC iter.                  ...        0 min,  0.211 sec
     gradient                   ...        0 min,  0.026 sec
 * total energy  :  -166.1337740 Eh     change       -0.3160304E-03 Eh
   gradient norm :     0.0094430 Eh/α   predicted    -0.2498196E-03 ( -20.95%)
   displ. norm   :     0.6472406 α      lambda       -0.5535436E-03
   maximum displ.:     0.2978162 α      in ANC's #4, #2, #5, ...

........................................................................
.............................. CYCLE   38 ..............................
........................................................................

 iter      E             dE          RMSdq      gap      omega  full diag
   1   -167.5068480 -0.167507E+03  0.100E-01    1.33       0.0  T
   2   -167.5068604 -0.123980E-04  0.595E-02    1.34       1.0  T
   3   -167.5068214  0.390012E-04  0.252E-02    1.33       1.0  T
   4   -167.5068667 -0.452274E-04  0.500E-03    1.33       2.3  T
   5   -167.5068681 -0.147034E-05  0.268E-03    1.33       4.3  T
   6   -167.5068686 -0.458641E-06  0.898E-04    1.33      12.9  T
   7   -167.5068686 -0.538964E-08  0.529E-04    1.33      21.8  T
     SCC iter.                  ...        0 min,  0.211 sec
     gradient                   ...        0 min,  0.026 sec
 * total energy  :  -166.1342157 Eh     change       -0.4416611E-03 Eh
   gradient norm :     0.0104209 Eh/α   predicted    -0.3927206E-03 ( -11.08%)
   displ. norm   :     0.5476533 α      lambda       -0.6094867E-03
   maximum displ.:     0.2630820 α      in ANC's #5, #2, #7, ...

........................................................................
.............................. CYCLE   39 ..............................
........................................................................

 iter      E             dE          RMSdq      gap      omega  full diag
   1   -167.5064287 -0.167506E+03  0.837E-02    1.33       0.0  T
   2   -167.5064475 -0.188462E-04  0.498E-02    1.33       1.0  T
   3   -167.5064148  0.327263E-04  0.279E-02    1.33       1.0  T
   4   -167.5064566 -0.417411E-04  0.676E-03    1.33       1.7  T
   5   -167.5064589 -0.232531E-05  0.333E-03    1.33       3.5  T
   6   -167.5064596 -0.712596E-06  0.121E-03    1.33       9.5  T
   7   -167.5064596 -0.641154E-08  0.647E-04    1.33      17.8  T
   8   -167.5064596 -0.323922E-07  0.239E-04    1.33      48.3  T
     SCC iter.                  ...        0 min,  0.240 sec
     gradient                   ...        0 min,  0.026 sec
 * total energy  :  -166.1346495 Eh     change       -0.4338271E-03 Eh
   gradient norm :     0.0094251 Eh/α   predicted    -0.3961437E-03 (  -8.69%)
   displ. norm   :     0.6114655 α      lambda       -0.4631254E-03
   maximum displ.:     0.2571100 α      in ANC's #2, #5, #4, ...

........................................................................
.............................. CYCLE   40 ..............................
........................................................................

 iter      E             dE          RMSdq      gap      omega  full diag
   1   -167.5039411 -0.167504E+03  0.908E-02    1.33       0.0  T
   2   -167.5039534 -0.123215E-04  0.539E-02    1.33       1.0  T
   3   -167.5039313  0.220651E-04  0.207E-02    1.33       1.0  T
   4   -167.5039582 -0.268468E-04  0.414E-03    1.33       2.8  T
   5   -167.5039588 -0.612994E-06  0.246E-03    1.33       4.7  T
   6   -167.5039592 -0.409751E-06  0.106E-03    1.33      10.9  T
   7   -167.5039592 -0.348480E-07  0.463E-04    1.33      24.9  T
   8   -167.5039592 -0.110467E-07  0.246E-04    1.33      47.0  T
     SCC iter.                  ...        0 min,  0.260 sec
     gradient                   ...        0 min,  0.026 sec
 * total energy  :  -166.1349739 Eh     change       -0.3243591E-03 Eh
   gradient norm :     0.0120585 Eh/α   predicted    -0.3181424E-03 (  -1.92%)
   displ. norm   :     0.5316596 α      lambda       -0.8240069E-03
   maximum displ.:     0.3197423 α      in ANC's #7, #5, #2, ...

........................................................................
.............................. CYCLE   41 ..............................
........................................................................

 iter      E             dE          RMSdq      gap      omega  full diag
   1   -167.5068500 -0.167507E+03  0.764E-02    1.34       0.0  T
   2   -167.5068700 -0.200621E-04  0.449E-02    1.34       1.0  T
   3   -167.5068480  0.220681E-04  0.237E-02    1.34       1.0  T
   4   -167.5068765 -0.285060E-04  0.635E-03    1.34       1.8  T
   5   -167.5068785 -0.197750E-05  0.321E-03    1.34       3.6  T
   6   -167.5068791 -0.616687E-06  0.138E-03    1.34       8.4  T
   7   -167.5068791 -0.396823E-07  0.629E-04    1.34      18.3  T
   8   -167.5068791 -0.170011E-07  0.360E-04    1.34      32.1  T
     SCC iter.                  ...        0 min,  0.249 sec
     gradient                   ...        0 min,  0.026 sec
 * total energy  :  -166.1353483 Eh     change       -0.3744328E-03 Eh
   gradient norm :     0.0118715 Eh/α   predicted    -0.5284602E-03 (  41.14%)
   displ. norm   :     0.5596133 α      lambda       -0.7173616E-03
   maximum displ.:     0.2465091 α      in ANC's #5, #2, #7, ...

........................................................................
.............................. CYCLE   42 ..............................
........................................................................

 iter      E             dE          RMSdq      gap      omega  full diag
   1   -167.5033702 -0.167503E+03  0.855E-02    1.33       0.0  T
   2   -167.5033826 -0.124052E-04  0.513E-02    1.33       1.0  T
   3   -167.5033654  0.172505E-04  0.179E-02    1.33       1.0  T
   4   -167.5033861 -0.207716E-04  0.465E-03    1.34       2.5  T
   5   -167.5033871 -0.977035E-06  0.259E-03    1.33       4.5  T
   6   -167.5033874 -0.311935E-06  0.127E-03    1.33       9.1  T
   7   -167.5033875 -0.376040E-07  0.460E-04    1.33      25.1  T
   8   -167.5033875 -0.108864E-07  0.260E-04    1.33      44.4  T
     SCC iter.                  ...        0 min,  0.241 sec
     gradient                   ...        0 min,  0.026 sec
 * total energy  :  -166.1357298 Eh     change       -0.3815194E-03 Eh
   gradient norm :     0.0132640 Eh/α   predicted    -0.4710094E-03 (  23.46%)
   displ. norm   :     0.3094731 α      lambda       -0.4848722E-03
   maximum displ.:     0.1255663 α      in ANC's #7, #2, #5, ...
 * RMSD in coord.:     0.9978397 α      energy gain  -0.1489516E-01 Eh

generating ANC from exact Hessian ...
Using Lindh-Hessian (1995)
 Shifting diagonal of input Hessian by    9.8104459169059428E-003
 Lowest  eigenvalues of input Hessian
    0.000000    0.000000    0.000000    0.000000    0.000000    0.000000
    0.010000    0.010009    0.010117    0.010302    0.010404    0.010621
    0.010640    0.010740    0.011775    0.012152    0.012247    0.012371
 Highest eigenvalues
    2.179142    2.202923    2.208495    2.223995    2.247346    2.255330


........................................................................
.............................. CYCLE   43 ..............................
........................................................................

 iter      E             dE          RMSdq      gap      omega  full diag
   1   -167.5053234 -0.167505E+03  0.493E-02    1.35       0.0  T
   2   -167.5053356 -0.122683E-04  0.318E-02    1.35       1.0  T
   3   -167.5053232  0.124359E-04  0.187E-02    1.35       1.0  T
   4   -167.5053443 -0.210935E-04  0.477E-03    1.35       2.4  T
   5   -167.5053455 -0.114845E-05  0.211E-03    1.35       5.5  T
   6   -167.5053455 -0.946253E-07  0.122E-03    1.35       9.5  T
   7   -167.5053456 -0.285172E-07  0.502E-04    1.35      23.0  T
   8   -167.5053456 -0.119761E-07  0.329E-04    1.35      35.1  T
     SCC iter.                  ...        0 min,  0.245 sec
     gradient                   ...        0 min,  0.025 sec
 * total energy  :  -166.1360537 Eh     change       -0.3238247E-03 Eh
   gradient norm :     0.0116483 Eh/α   predicted     0.0000000E+00 (-100.00%)
   displ. norm   :     0.1413912 α      lambda       -0.5107927E-03
   maximum displ.:     0.0668242 α      in ANC's #20, #15, #7, ...

........................................................................
.............................. CYCLE   44 ..............................
........................................................................

 iter      E             dE          RMSdq      gap      omega  full diag
   1   -167.5082517 -0.167508E+03  0.343E-02    1.35       0.0  T
   2   -167.5082528 -0.111069E-05  0.204E-02    1.35       1.0  T
   3   -167.5082485  0.427399E-05  0.726E-03    1.35       1.6  T
   4   -167.5082533 -0.479135E-05  0.173E-03    1.35       6.7  T
   5   -167.5082535 -0.159930E-06  0.776E-04    1.35      14.9  T
   6   -167.5082535 -0.999265E-08  0.390E-04    1.35      29.6  T
     SCC iter.                  ...        0 min,  0.180 sec
     gradient                   ...        0 min,  0.025 sec
 * total energy  :  -166.1364750 Eh     change       -0.4213515E-03 Eh
   gradient norm :     0.0055327 Eh/α   predicted    -0.2605028E-03 ( -38.17%)
   displ. norm   :     0.4365715 α      lambda       -0.9700571E-03
   maximum displ.:     0.2110032 α      in ANC's #20, #15, #7, ...

........................................................................
.............................. CYCLE   45 ..............................
........................................................................

 iter      E             dE          RMSdq      gap      omega  full diag
   1   -167.5099997 -0.167510E+03  0.882E-02    1.34       0.0  T
   2   -167.5100080 -0.825135E-05  0.530E-02    1.34       1.0  T
   3   -167.5099708  0.371666E-04  0.208E-02    1.34       1.0  T
   4   -167.5100123 -0.414551E-04  0.458E-03    1.34       2.5  T
   5   -167.5100135 -0.121391E-05  0.196E-03    1.34       5.9  T
   6   -167.5100136 -0.854850E-07  0.967E-04    1.34      11.9  T
   7   -167.5100136 -0.114291E-07  0.480E-04    1.34      24.1  T
     SCC iter.                  ...        0 min,  0.209 sec
     gradient                   ...        0 min,  0.026 sec
 * total energy  :  -166.1372950 Eh     change       -0.8200209E-03 Eh
   gradient norm :     0.0060311 Eh/α   predicted    -0.5775047E-03 ( -29.57%)
   displ. norm   :     0.6897872 α      lambda       -0.1184047E-02
   maximum displ.:     0.3257499 α      in ANC's #20, #15, #7, ...

........................................................................
.............................. CYCLE   46 ..............................
........................................................................

 iter      E             dE          RMSdq      gap      omega  full diag
   1   -167.5040152 -0.167504E+03  0.130E-01    1.33       0.0  T
   2   -167.5040366 -0.214027E-04  0.781E-02    1.33       1.0  T
   3   -167.5039690  0.675367E-04  0.282E-02    1.32       1.0  T
   4   -167.5040440 -0.749996E-04  0.720E-03    1.33       1.6  T
   5   -167.5040474 -0.332872E-05  0.288E-03    1.33       4.0  T
   6   -167.5040475 -0.151946E-06  0.150E-03    1.33       7.7  T
   7   -167.5040475 -0.394760E-07  0.631E-04    1.33      18.3  T
   8   -167.5040476 -0.208760E-07  0.334E-04    1.33      34.5  T
     SCC iter.                  ...        0 min,  0.239 sec
     gradient                   ...        0 min,  0.025 sec
 * total energy  :  -166.1376114 Eh     change       -0.3163499E-03 Eh
   gradient norm :     0.0249074 Eh/α   predicted    -0.8737129E-03 ( 176.19%)
   displ. norm   :     0.1472833 α      lambda       -0.1252433E-02
   maximum displ.:     0.1154482 α      in ANC's #20, #15, #11, ...

........................................................................
.............................. CYCLE   47 ..............................
........................................................................

 iter      E             dE          RMSdq      gap      omega  full diag
   1   -167.5100581 -0.167510E+03  0.469E-02    1.33       0.0  T
   2   -167.5100652 -0.715725E-05  0.270E-02    1.33       1.0  T
   3   -167.5100639  0.136220E-05  0.798E-03    1.33       1.4  T
   4   -167.5100655 -0.163637E-05  0.334E-03    1.33       3.5  T
   5   -167.5100663 -0.755023E-06  0.118E-03    1.33       9.8  T
   6   -167.5100663  0.892658E-08  0.630E-04    1.33      18.3  T
   7   -167.5100663 -0.273440E-07  0.137E-04    1.33      84.5  T
     SCC iter.                  ...        0 min,  0.210 sec
     gradient                   ...        0 min,  0.026 sec
 * total energy  :  -166.1382769 Eh     change       -0.6655262E-03 Eh
   gradient norm :     0.0082592 Eh/α   predicted    -0.6398257E-03 (  -3.86%)
   displ. norm   :     0.3177001 α      lambda       -0.5426046E-03
   maximum displ.:     0.1325639 α      in ANC's #7, #10, #15, ...

........................................................................
.............................. CYCLE   48 ..............................
........................................................................

 iter      E             dE          RMSdq      gap      omega  full diag
   1   -167.5108300 -0.167511E+03  0.504E-02    1.32       0.0  T
   2   -167.5108329 -0.290214E-05  0.303E-02    1.32       1.0  T
   3   -167.5108246  0.824269E-05  0.111E-02    1.32       1.0  T
   4   -167.5108341 -0.943597E-05  0.239E-03    1.32       4.8  T
   5   -167.5108344 -0.365178E-06  0.117E-03    1.32       9.9  T
   6   -167.5108345 -0.773410E-07  0.408E-04    1.32      28.3  T
   7   -167.5108345 -0.111535E-08  0.207E-04    1.32      55.8  T
     SCC iter.                  ...        0 min,  0.210 sec
     gradient                   ...        0 min,  0.025 sec
 * total energy  :  -166.1387414 Eh     change       -0.4645104E-03 Eh
   gradient norm :     0.0063748 Eh/α   predicted    -0.2986954E-03 ( -35.70%)
   displ. norm   :     0.6175872 α      lambda       -0.8911288E-03
   maximum displ.:     0.2536279 α      in ANC's #7, #15, #11, ...

........................................................................
.............................. CYCLE   49 ..............................
........................................................................

 iter      E             dE          RMSdq      gap      omega  full diag
   1   -167.5079860 -0.167508E+03  0.105E-01    1.32       0.0  T
   2   -167.5079944 -0.839925E-05  0.635E-02    1.32       1.0  T
   3   -167.5079760  0.184304E-04  0.174E-02    1.31       1.0  T
   4   -167.5079976 -0.215899E-04  0.365E-03    1.32       3.2  T
   5   -167.5079981 -0.567786E-06  0.208E-03    1.32       5.5  T
   6   -167.5079984 -0.245646E-06  0.846E-04    1.32      13.6  T
   7   -167.5079984 -0.153382E-07  0.362E-04    1.32      31.9  T
     SCC iter.                  ...        0 min,  0.210 sec
     gradient                   ...        0 min,  0.031 sec
 * total energy  :  -166.1392763 Eh     change       -0.5348719E-03 Eh
   gradient norm :     0.0132881 Eh/α   predicted    -0.6155139E-03 (  15.08%)
   displ. norm   :     0.1780077 α      lambda       -0.4273546E-03
   maximum displ.:     0.0821153 α      in ANC's #7, #6, #4, ...

........................................................................
.............................. CYCLE   50 ..............................
........................................................................

 iter      E             dE          RMSdq      gap      omega  full diag
   1   -167.5109568 -0.167511E+03  0.329E-02    1.32       0.0  T
   2   -167.5109588 -0.195033E-05  0.194E-02    1.32       1.0  T
   3   -167.5109554  0.339654E-05  0.832E-03    1.32       1.4  T
   4   -167.5109595 -0.410303E-05  0.201E-03    1.32       5.8  T
   5   -167.5109597 -0.188216E-06  0.930E-04    1.32      12.4  T
   6   -167.5109597 -0.224792E-07  0.536E-04    1.32      21.5  T
[...]
    90   7 N       91   6 C                                       1.3735870
    91   6 C       92   6 C                                       1.3994529
    92   6 C       93   6 C                                       1.3740961
    86   6 C       94   6 C                                       1.3944426
    93   6 C       94   6 C                                       1.3739188
    88   6 C       95   6 C                                       1.4220866
    95   6 C       96   6 C                                       1.3874778
    96   6 C       97   6 C                                       1.3757932
    89   6 C       98   6 C                                       1.3995159
    97   6 C       98   6 C                                       1.3705139
    95   6 C       99   8 O                                       1.3503631
    79   6 C      100   8 O                                       1.3458030
    78   6 C      101   1 H                                       1.0734615
    82   6 C      102   1 H                                       1.0721309
    96   6 C      103   1 H                                       1.0740849
    98   6 C      104   1 H                                       1.0727429
    92   6 C      105   1 H                                       1.0725305
    94   6 C      106   1 H                                       1.0736298
    77   6 C      107   6 C                                       1.5315747
   107   6 C      108   6 C                                       1.5233300
    76   6 C      109   6 C                                       1.5324016
   109   6 C      110   6 C                                       1.5235773
    99   8 O      111   6 C                                       1.4136534
   100   8 O      112   6 C                                       1.4136265
    83   6 C      113  16 S                                       1.8304643
   113  16 S      114   9 F                                       1.6563316
   113  16 S      115   9 F                                       1.6661794
   113  16 S      116   9 F                                       1.6676474
   113  16 S      117   9 F                                       1.6176376
   113  16 S      118   9 F                                       1.6827323
    97   6 C      119  16 S                                       1.8251675
   119  16 S      120   9 F                                       1.6648645
   119  16 S      121   9 F                                       1.6738862
   119  16 S      122   9 F                                       1.6174977
   119  16 S      123   9 F                                       1.6463059
   119  16 S      124   9 F                                       1.6678982
    93   6 C      125  16 S                                       1.8304003
   125  16 S      126   9 F                                       1.6669129
   125  16 S      127   9 F                                       1.6619505
   125  16 S      128   9 F                                       1.6111041
   125  16 S      129   9 F                                       1.6627567
   125  16 S      130   9 F                                       1.6635685
    77   6 C      131   1 H                                       1.0908362
    77   6 C      132   1 H                                       1.0925831
   107   6 C      133   1 H                                       1.0905161
   107   6 C      134   1 H                                       1.0891428
   108   6 C      135   1 H                                       1.0878677
   108   6 C      136   1 H                                       1.0856815
   108   6 C      137   1 H                                       1.0871858
   112   6 C      138   1 H                                       1.0890719
   112   6 C      139   1 H                                       1.0917745
   112   6 C      140   1 H                                       1.0929274
   111   6 C      141   1 H                                       1.0887862
   111   6 C      142   1 H                                       1.0933265
   111   6 C      143   1 H                                       1.0925737
    76   6 C      144   1 H                                       1.0852429
    76   6 C      145   1 H                                       1.0931428
   109   6 C      146   1 H                                       1.0905978
   109   6 C      147   1 H                                       1.0916693
   110   6 C      148   1 H                                       1.0865214
   110   6 C      149   1 H                                       1.0862011
   110   6 C      150   1 H                                       1.0868056

 * 6 distinct bonds (by element types)

   Z      Z             #   av. dist./Å        max./Å        min./Å
   1 H    6 C          52     1.0857659     1.0936952     1.0715577
   6 C    6 C          50     1.4201940     1.5338180     1.3705139
   6 C    7 N          12     1.4043042     1.4544240     1.3735870
   6 C    8 O           8     1.3810618     1.4145194     1.3458030
   6 C   16 S           6     1.8305559     1.8369181     1.8251675
   9 F   16 S          30     1.6552323     1.6827323     1.6111041


optimized geometry written to: xtbopt.mol


           -------------------------------------------------
          | TOTAL ENERGY             -332.342685812334 Eh   |
Note: The following floating-point exceptions are signalling: IEEE_UNDERFLOW_FLAG
normal termination of xtb
          | GRADIENT NORM               0.000466326555 Eh/α |
          | HOMO-LUMO GAP               1.212562384378 eV   |
           -------------------------------------------------
########################################################################
[WARNING] Runtime exception occurred
-3- restart_readRestart: Dimension missmatch in restart file.
-2- restart_readRestart: Multiplicity missmatch in restart file.
-1- restart_readRestart: Number of electron missmatch in restart file.
########################################################################

------------------------------------------------------------------------
 * finished run on 2024/11/25 at 11:40:26.619     
------------------------------------------------------------------------
 total:
 * wall-time:     0 d,  0 h,  4 min, 30.412 sec
 *  cpu-time:     0 d,  0 h,  5 min,  5.676 sec
 * ratio c/w:     1.130 speedup
 SCF:
 * wall-time:     0 d,  0 h,  0 min,  3.677 sec
 *  cpu-time:     0 d,  0 h,  0 min,  3.938 sec
 * ratio c/w:     1.071 speedup
 ANC optimizer:
 * wall-time:     0 d,  0 h,  4 min, 26.702 sec
 *  cpu-time:     0 d,  0 h,  5 min,  1.670 sec
 * ratio c/w:     1.131 speedup

Running optimization for loose_opt_dimer.mol
      -----------------------------------------------------------      
     |                   =====================                   |     
     |                           x T B                           |     
     |                   =====================                   |     
     |                         S. Grimme                         |     
     |          Mulliken Center for Theoretical Chemistry        |     
     |                    University of Bonn                     |     
      -----------------------------------------------------------      

   * xtb version 6.7.1 (43a0e4e5b5d943adc66b4aa6563d39c792f6153b) compiled by 'joseph@Linux' on 2024/10/21

   xtb is free software: you can redistribute it and/or modify it under
   the terms of the GNU Lesser General Public License as published by
   the Free Software Foundation, either version 3 of the License, or
   (at your option) any later version.
   
   xtb is distributed in the hope that it will be useful,
   but WITHOUT ANY WARRANTY; without even the implied warranty of
   MERCHANTABILITY or FITNESS FOR A PARTICULAR PURPOSE.  See the
   GNU Lesser General Public License for more details.
   
   Cite this work as:
   * C. Bannwarth, E. Caldeweyher, S. Ehlert, A. Hansen, P. Pracht,
     J. Seibert, S. Spicher, S. Grimme, WIREs Comput. Mol. Sci., 2020, 11,
     e01493. DOI: 10.1002/wcms.1493
   
   for GFN2-xTB:
   * C. Bannwarth, S. Ehlert and S. Grimme., J. Chem. Theory Comput., 2019,
     15, 1652-1671. DOI: 10.1021/acs.jctc.8b01176
   for GFN1-xTB:
   * S. Grimme, C. Bannwarth, P. Shushkov, J. Chem. Theory Comput., 2017,
     13, 1989-2009. DOI: 10.1021/acs.jctc.7b00118
   for GFN0-xTB:
   * P. Pracht, E. Caldeweyher, S. Ehlert, S. Grimme, ChemRxiv, 2019, preprint.
     DOI: 10.26434/chemrxiv.8326202.v1
   for GFN-FF:
   * S. Spicher and S. Grimme, Angew. Chem. Int. Ed., 2020, 59, 15665-15673.
     DOI: 10.1002/anie.202004239
   
   for ALPB and GBSA implicit solvation:
   * S. Ehlert, M. Stahn, S. Spicher, S. Grimme, J. Chem. Theory Comput.,
     2021, 17, 4250-4261. DOI: 10.1021/acs.jctc.1c00471
   
   for ddCOSMO and CPCM-X implicit solvation:
   * M. Stahn, S. Ehlert, S. Grimme, J. Phys. Chem. A,
     2023, XX, XXXX-XXXX. DOI: 10.1021/acs.jpca.3c04382
   
   for DFT-D4:
   * E. Caldeweyher, C. Bannwarth and S. Grimme, J. Chem. Phys., 2017,
     147, 034112. DOI: 10.1063/1.4993215
   * E. Caldeweyher, S. Ehlert, A. Hansen, H. Neugebauer, S. Spicher,
     C. Bannwarth and S. Grimme, J. Chem. Phys., 2019, 150, 154122.
     DOI: 10.1063/1.5090222
   * E. Caldeweyher, J.-M. Mewes, S. Ehlert and S. Grimme, Phys. Chem. Chem. Phys.
     2020, 22, 8499-8512. DOI: 10.1039/D0CP00502A
   
   for sTDA-xTB:
   * S. Grimme and C. Bannwarth, J. Chem. Phys., 2016, 145, 054103.
     DOI: 10.1063/1.4959605
   
   in the mass-spec context:
   * V. Asgeirsson, C. Bauer and S. Grimme, Chem. Sci., 2017, 8, 4879.
     DOI: 10.1039/c7sc00601b
   * J. Koopman and S. Grimme, ACS Omega 2019, 4, 12, 15120-15133.
     DOI: 10.1021/acsomega.9b02011
   
   for metadynamics refer to:
   * S. Grimme, J. Chem. Theory Comput., 2019, 155, 2847-2862
     DOI: 10.1021/acs.jctc.9b00143
   
   for SPH calculations refer to:
   * S. Spicher and S. Grimme, J. Chem. Theory Comput., 2021, 17, 1701-1714
     DOI: 10.1021/acs.jctc.0c01306
   
   for ONIOM refer to:
   * C. Plett, A. Katbashev, S. Ehlert, S. Grimme, M. Bursch,
     Phys. Chem. Chem. Phys., 2023, 25, 17860-17868. DOI: 10.1039/D3CP02178E
   
   for DIPRO refer to:
   * J. Kohn, N. Gildemeister, S. Grimme, D. Fazzi, A. Hansen,
     J. Chem. Phys., 2023, just accepted.
   
   for PTB refer to:
   * S. Grimme, M. Mueller, A. Hansen, J. Chem. Phys., 2023, 158, 124111.
     DOI: 10.1063/5.0137838
   
   with help from (in alphabetical order)
   P. Atkinson, C. Bannwarth, F. Bohle, G. Brandenburg, E. Caldeweyher
   M. Checinski, S. Dohm, S. Ehlert, S. Ehrlich, I. Gerasimov, C. Hölzer
   A. Katbashev, J. Kohn, J. Koopman, C. Lavigne, S. Lehtola, F. März, M. Müller,
   F. Musil, H. Neugebauer, J. Pisarek, C. Plett, P. Pracht, F. Pultar,
   J. Seibert, P. Shushkov, S. Spicher, M. Stahn, M. Steiner, T. Strunk,
   J. Stückrath, T. Rose, and J. Unsleber
   
 * started run on 2024/11/25 at 11:40:26.629     
   ID    Z sym.   atoms
    1    6 C      1-11, 13, 14, 16-23, 32-37, 76-86, 88, 89, 91-98, 107-112
    2    7 N      12, 15, 87, 90
    3    8 O      24, 25, 99, 100
    4    1 H      26-31, 56-75, 101-106, 131-150
    5   16 S      38, 44, 50, 113, 119, 125
    6    9 F      39-43, 45-49, 51-55, 114-118, 120-124, 126-130

           -------------------------------------------------
          |                Calculation Setup                |
           -------------------------------------------------

          program call               : xtb opt_dimer.mol --dipro 0.3 --gfn 2 --chrg 0 --uhf 2
          coordinate file            : opt_dimer.mol
          omp threads                :                     4


molecular fragmentation (1/2 indicates fragments):
111111111111111111111111111111111111111111111111111111111111111111111111
111222222222222222222222222222222222222222222222222222222222222222222222
222222
# atoms in fragment 1/2:    75    75
 fragment masses (1/2) :      791.68      791.68
CMA distance (Bohr)    :  11.477
constraining FC (au)   :  0.0500

           -------------------------------------------------
          |                 G F N 2 - x T B                 |
           -------------------------------------------------

        Reference                      10.1021/acs.jctc.8b01176
      * Hamiltonian:
        H0-scaling (s, p, d)           1.850000    2.230000    2.230000
        zeta-weighting                 0.500000
      * Dispersion:
        s8                             2.700000
        a1                             0.520000
        a2                             5.000000
        s9                             5.000000
      * Repulsion:
        kExp                           1.500000    1.000000
        rExp                           1.000000
      * Coulomb:
        alpha                          2.000000
        third order                    shell-resolved
        anisotropic                    true
        a3                             3.000000
        a5                             4.000000
        cn-shift                       1.200000
        cn-exp                         4.000000
        max-rad                        5.000000

q/qsh data taken from xtbrestart
CAMM data taken from xtbrestart
           -------------------------------------------------
          |                    D I P R O                    |
           -------------------------------------------------
Calculation for dimer 
--------------------- 
  
charge of dimer :   0.
unpaired e- of dimer :  2
repulsion energy          2.7454284812054E+00 Eh
dispersion energy         1.8599371001743E-02 Eh
number of electrons       5.5800000000000E+02 e
integral cutoff           1.8403572253217E+01 bohr

------------------------------------------------------------
  cycle        total energy    energy error   density error
------------------------------------------------------------
      1     -331.5751419899  -3.3433917E+02   2.2220829E-01
      2     -332.0520453188  -4.7690333E-01   1.1706880E-01
      3     -331.8971384910   1.5490683E-01   6.9536321E-02
      4     -332.2506095027  -3.5347101E-01   2.9256681E-02
      5     -332.3146937766  -6.4084274E-02   1.5395238E-02
      6     -332.3344534120  -1.9759635E-02   1.0401613E-02
      7     -332.3403755587  -5.9221466E-03   4.6194062E-03
      8     -332.3416170590  -1.2415004E-03   2.2768733E-03
      9     -332.3425903688  -9.7330978E-04   7.9675502E-04
     10     -332.3426189253  -2.8556496E-05   3.5047919E-04
     11     -332.3426291865  -1.0261208E-05   1.6682014E-04
     12     -332.3426327441  -3.5576058E-06   7.2212246E-05
     13     -332.3426331113  -3.6720360E-07   3.5182721E-05
     14     -332.3426332228  -1.1142498E-07   1.3311444E-05
------------------------------------------------------------

electronic energy        -3.3510666107496E+02 Eh
total energy             -3.3234263322275E+02 Eh

 total:                                   3.707 sec
 - repulsion                              0.000 sec (  0%)
 - dispersion                             0.007 sec (  0%)
 - coulomb                                0.004 sec (  0%)
 - hamiltonian                            0.014 sec (  0%)
 - scc                                    3.681 sec ( 99%)

Found 2 fragments!
Fragment 1:  1-75
Fragment 2:  76-150

[Info] Fragment spin read from .UHFfrag
Calculation for fragment 1
 ------------------------------
   
charge of fragment :   0.
unpaired e- of fragment :  1
------------------------------------------------------------
  cycle        total energy    energy error   density error
------------------------------------------------------------
      1     -165.7516397315  -1.6712605E+02   2.2076098E-01
      2     -165.9934755900  -2.4183586E-01   1.1549292E-01
      3     -165.9056433814   8.7832209E-02   6.8863924E-02
      4     -166.0861423777  -1.8049900E-01   2.9159512E-02
      5     -166.1210867223  -3.4944345E-02   1.5270175E-02
      6     -166.1318247229  -1.0738001E-02   9.9722171E-03
      7     -166.1347508067  -2.9260838E-03   3.8503281E-03
      8     -166.1351092546  -3.5844784E-04   1.5330522E-03
      9     -166.1352627523  -1.5349776E-04   7.2682279E-04
     10     -166.1352847505  -2.1998236E-05   2.3387877E-04
     11     -166.1352854396  -6.8902182E-07   1.1294649E-04
     12     -166.1352859199  -4.8034315E-07   5.3327399E-05
     13     -166.1352860078  -8.7898798E-08   2.0467358E-05
     14     -166.1352860399  -3.2138161E-08   6.9680693E-06
------------------------------------------------------------

 total:                                   0.576 sec
Calculation for fragment 2
 ------------------------------
   
charge of fragment :   0.
unpaired e- of fragment :  1
------------------------------------------------------------
  cycle        total energy    energy error   density error
------------------------------------------------------------
      1     -165.7535336316  -1.6712756E+02   2.2370293E-01
      2     -165.9950010298  -2.4146740E-01   1.1750944E-01
      3     -165.9142926305   8.0708399E-02   6.9360983E-02
      4     -166.0850954357  -1.7080281E-01   2.9857799E-02
      5     -166.1218085418  -3.6713106E-02   1.5479362E-02
      6     -166.1324113581  -1.0602816E-02   1.0117746E-02
      7     -166.1354111964  -2.9998384E-03   3.8818189E-03
      8     -166.1357718623  -3.6066584E-04   1.5553836E-03
      9     -166.1359148942  -1.4303194E-04   7.2653779E-04
     10     -166.1359345545  -1.9660276E-05   2.3561168E-04
     11     -166.1359352310  -6.7655435E-07   1.0928321E-04
     12     -166.1359355894  -3.5836007E-07   5.1171434E-05
     13     -166.1359356387  -4.9274234E-08   2.0525536E-05
     14     -166.1359356688  -3.0170270E-08   7.1544151E-06
------------------------------------------------------------

 total:                                   0.690 sec
   
   ::::::::::::::::::::::::::::::::::::::::::::::
   ::     D I P R O      C O U P L I N G S     ::
   ::::::::::::::::::::::::::::::::::::::::::::::
   
energy threshhold for near-degenerate orbitals near HOMO and LUMO considered for DIPRO:  0.300 eV
no. of orbitals within energy window of frag 1         2
no. of orbitals within energy window of frag 2         2
   
  Fragment 1 SOMO   Fragment 2 SOMO 
--------------------------------------
E_mon(orb) frag1 frag2             -11.199   -11.159 eV
J(AB):                0.048 eV
S(AB):            -0.00214046 Eh
|J(AB,eff)|:            0.024 eV
   
  Fragment 1 SOMO   Fragment 2 LUMO 
--------------------------------------
E_mon(orb) frag1 frag2             -11.199    -9.508 eV
J(AB):                0.033 eV
S(AB):            -0.00143521 Eh
|J(AB,eff)|:            0.018 eV
   
  Fragment 1 LUMO   Fragment 2 SOMO 
--------------------------------------
E_mon(orb) frag1 frag2              -9.550   -11.159 eV
J(AB):                0.022 eV
S(AB):            -0.00098997 Eh
|J(AB,eff)|:            0.012 eV
   
  Fragment 1 LUMO   Fragment 2 LUMO 
--------------------------------------
E_mon(orb) frag1 frag2              -9.550    -9.508 eV
J(AB):                0.030 eV
S(AB):            -0.00129769 Eh
|J(AB,eff)|:            0.018 eV
   
..............................................................................
:  total |J(AB,eff)| for hole transport (occ. MOs) :               0.024 eV  :
:  total |J(AB,eff)| for charge transport (unocc. MOs) :           0.018 eV  :
:  total |J(AB,eff)| for charge transfer (CT) :                    0.021 eV  :
..............................................................................
  
 Please remember, DIPRO is not available for restart!
   
normal termination of dipro
----------------------------------------------------------
 * finished run on 2024/11/25 at 11:40:31.691     
----------------------------------------------------------
 dipro:
 * wall-time:     0 d,  0 h,  0 min,  5.047 sec
 *  cpu-time:     0 d,  0 h,  0 min,  7.435 sec
 * ratio c/w:     1.473 speedup
