150
 energy: -332.106246874226 gnorm: 0.357237533378 xtb: 6.7.1 (edcfbbe)
C           -2.71440000000000        5.54310000000000        0.90870000000000
C            2.05630000000000        0.34390000000000        3.08950000000000
C           -4.23030000000000        1.34030000000000       -1.44170000000000
C           -3.17590000000000        0.90360000000000       -0.64180000000000
C           -2.67540000000000        1.78750000000000        0.37000000000000
C           -3.06760000000000        3.15260000000000        0.32820000000000
C           -4.12600000000000        3.51580000000000       -0.50400000000000
C           -4.71780000000000        2.62330000000000       -1.35870000000000
C           -1.70430000000000        1.37330000000000        1.34470000000000
C           -0.90960000000000        2.37780000000000        1.95370000000000
C           -1.31010000000000        3.73940000000000        1.90150000000000
N           -2.37800000000000        4.11270000000000        1.07970000000000
C           -1.51830000000000        0.02100000000000        1.80970000000000
C           -0.27160000000000       -0.33720000000000        2.39360000000000
N            0.66720000000000        0.66470000000000        2.69000000000000
C            0.26040000000000        2.00650000000000        2.66290000000000
C            0.93010000000000        2.98810000000000        3.38250000000000
C            0.43430000000000        4.26600000000000        3.48380000000000
C           -0.64920000000000        4.64650000000000        2.72700000000000
C           -2.58570000000000       -0.93490000000000        1.81840000000000
C           -2.30020000000000       -2.24530000000000        2.19290000000000
C           -1.05210000000000       -2.61010000000000        2.63720000000000
C           -0.06510000000000       -1.66690000000000        2.75910000000000
O           -3.89060000000000       -0.52170000000000        1.54850000000000
O           -2.55340000000000       -0.32480000000000       -0.83920000000000
H           -4.68890000000000        0.67210000000000       -2.14890000000000
H           -4.51330000000000        4.51810000000000       -0.48760000000000
H           -3.07330000000000       -2.99350000000000        2.18820000000000
H            0.86220000000000       -1.98500000000000        3.19790000000000
H            1.80450000000000        2.73970000000000        3.95490000000000
H           -1.01150000000000        5.65280000000000        2.83940000000000
C            3.08120000000000        0.72580000000000        2.03230000000000
C            4.51230000000000        0.47810000000000        2.49090000000000
C           -3.86350000000000        5.97740000000000        1.80870000000000
C           -4.33170000000000        7.40060000000000        1.55190000000000
C           -4.72360000000000       -1.50590000000000        0.98070000000000
C           -2.83290000000000       -0.95250000000000       -2.06830000000000
S           -6.16850000000000        3.18520000000000       -2.45070000000000
F           -5.87130000000000        4.67810000000000       -2.00050000000000
F           -5.11480000000000        3.32950000000000       -3.63100000000000
F           -7.11710000000000        2.99810000000000       -1.18950000000000
F           -7.37070000000000        3.65500000000000       -3.37120000000000
F           -6.39820000000000        1.66610000000000       -2.84710000000000
S           -0.69480000000000       -4.40880000000000        3.12330000000000
F           -1.88400000000000       -4.84900000000000        2.17430000000000
F           -1.72010000000000       -4.23130000000000        4.31340000000000
F           -0.38080000000000       -5.89400000000000        3.54390000000000
F            0.31080000000000       -4.46630000000000        1.89910000000000
F            0.46680000000000       -3.86870000000000        4.04660000000000
S            1.20890000000000        5.46080000000000        4.74070000000000
F            2.42030000000000        5.64170000000000        3.73770000000000
F            0.43000000000000        6.63940000000000        4.02760000000000
F            1.82550000000000        6.43250000000000        5.82010000000000
F           -0.05570000000000        5.15490000000000        5.64420000000000
F            1.93000000000000        4.21570000000000        5.39830000000000
H            2.16160000000000       -0.71070000000000        3.33830000000000
H            2.28370000000000        0.85210000000000        4.02520000000000
H            2.94680000000000        1.78110000000000        1.76500000000000
H            2.86970000000000        0.16690000000000        1.11240000000000
H            4.73880000000000        1.04740000000000        3.39530000000000
H            5.24430000000000        0.75250000000000        1.73000000000000
H            4.66720000000000       -0.57320000000000        2.74230000000000
H           -2.17790000000000       -1.82020000000000       -2.15920000000000
H           -2.63010000000000       -0.26030000000000       -2.88690000000000
H           -3.87110000000000       -1.28500000000000       -2.09380000000000
H           -5.64130000000000       -1.01820000000000        0.64700000000000
H           -4.96560000000000       -2.27510000000000        1.71230000000000
H           -4.21460000000000       -1.95260000000000        0.12680000000000
H           -2.95450000000000        5.72280000000000       -0.14200000000000
H           -1.82600000000000        6.15230000000000        1.08780000000000
H           -3.56650000000000        5.85590000000000        2.85900000000000
H           -4.70040000000000        5.27650000000000        1.68590000000000
H           -3.52280000000000        8.11640000000000        1.70500000000000
H           -5.15240000000000        7.68140000000000        2.21510000000000
H           -4.68390000000000        7.52070000000000        0.52620000000000
C           -0.01640000000000        2.40870000000000        6.42800000000000
C            0.62230000000000       -4.90930000000000        7.25010000000000
C           -4.40490000000000        0.53990000000000        4.50840000000000
C           -3.73350000000000       -0.57610000000000        5.00150000000000
C           -2.53180000000000       -0.37330000000000        5.75490000000000
C           -1.94560000000000        0.92270000000000        5.77400000000000
C           -2.67340000000000        1.99040000000000        5.24850000000000
C           -3.89200000000000        1.80720000000000        4.64870000000000
C           -1.82720000000000       -1.46510000000000        6.38130000000000
C           -0.41790000000000       -1.34420000000000        6.48420000000000
C            0.18420000000000       -0.06740000000000        6.35040000000000
N           -0.61750000000000        1.07430000000000        6.20480000000000
C           -2.42860000000000       -2.69050000000000        6.83090000000000
C           -1.60740000000000       -3.83750000000000        7.00130000000000
N           -0.21320000000000       -3.73120000000000        6.92720000000000
C            0.39020000000000       -2.50010000000000        6.65410000000000
C            1.76470000000000       -2.36840000000000        6.47170000000000
C            2.34060000000000       -1.14020000000000        6.24740000000000
C            1.57020000000000       -0.00190000000000        6.27780000000000
C           -3.80570000000000       -2.77550000000000        7.22090000000000
C           -4.34520000000000       -4.03410000000000        7.48100000000000
C           -3.56850000000000       -5.16900000000000        7.48230000000000
C           -2.21930000000000       -5.06120000000000        7.27010000000000
O           -4.53210000000000       -1.60250000000000        7.39220000000000
O           -4.14310000000000       -1.87400000000000        4.70650000000000
H           -5.32690000000000        0.42770000000000        3.96550000000000
H           -2.27930000000000        2.98950000000000        5.25390000000000
H           -5.39390000000000       -4.14240000000000        7.69400000000000
H           -1.63860000000000       -5.96490000000000        7.29990000000000
H            2.39980000000000       -3.23560000000000        6.43460000000000
H            2.06280000000000        0.94290000000000        6.14190000000000
C            0.84210000000000       -5.81170000000000        6.04310000000000
C            1.58220000000000       -7.09820000000000        6.37070000000000
C            0.24970000000000        2.70380000000000        7.89590000000000
C            0.93540000000000        4.04780000000000        8.10360000000000
C           -5.76310000000000       -1.74530000000000        8.05930000000000
C           -5.51120000000000       -2.01960000000000        4.41190000000000
S           -4.84250000000000        3.30820000000000        3.98160000000000
F           -4.99330000000000        3.79030000000000        5.48420000000000
F           -3.46220000000000        4.06880000000000        3.87920000000000
F           -6.17310000000000        2.45930000000000        4.11430000000000
F           -5.61210000000000        4.56460000000000        3.42410000000000
F           -4.62390000000000        2.72910000000000        2.52750000000000
S           -4.33330000000000       -6.87640000000000        7.82270000000000
F           -4.49380000000000       -7.05460000000000        6.25160000000000
F           -5.75570000000000       -6.17680000000000        7.88500000000000
F           -4.96980000000000       -8.29830000000000        8.11710000000000
F           -2.87500000000000       -7.49910000000000        7.74590000000000
F           -4.11820000000000       -6.57180000000000        9.36710000000000
S            4.18110000000000       -1.00370000000000        5.79950000000000
F            3.88560000000000        0.46250000000000        5.28500000000000
F            4.44030000000000       -0.44880000000000        7.25870000000000
F            5.69540000000000       -0.88560000000000        5.37360000000000
F            4.37030000000000       -2.48670000000000        6.31840000000000
F            3.75780000000000       -1.54820000000000        4.37330000000000
H            0.14840000000000       -5.46070000000000        8.06580000000000
H            1.57500000000000       -4.57800000000000        7.66850000000000
H            1.37700000000000       -5.25070000000000        5.26520000000000
H           -0.12950000000000       -6.04220000000000        5.58600000000000
H            2.56710000000000       -6.89160000000000        6.79170000000000
H            1.72490000000000       -7.71880000000000        5.48360000000000
H            1.03310000000000       -7.69380000000000        7.10170000000000
H           -5.72610000000000       -3.08680000000000        4.33260000000000
H           -5.75050000000000       -1.52840000000000        3.47040000000000
H           -6.10010000000000       -1.58630000000000        5.22030000000000
H           -6.17390000000000       -0.74810000000000        8.22360000000000
H           -5.60290000000000       -2.23230000000000        9.02250000000000
H           -6.45750000000000       -2.32060000000000        7.44610000000000
H           -0.63600000000000        3.19590000000000        6.00200000000000
H            0.91070000000000        2.48070000000000        5.86170000000000
H            0.85940000000000        1.89700000000000        8.32100000000000
H           -0.69900000000000        2.66720000000000        8.44530000000000
H            1.88830000000000        4.08870000000000        7.57090000000000
H            1.13080000000000        4.25480000000000        9.15690000000000
H            0.32690000000000        4.86400000000000        7.70810000000000
150
 energy: -332.203346358043 gnorm: 0.245080101736 xtb: 6.7.1 (edcfbbe)
C           -2.70994769579129        5.53374418933273        0.90655028604036
C            2.04213061196504        0.35118457867444        3.07974842282027
C           -4.22603756329222        1.33602732515115       -1.44505930860841
C           -3.17639529714298        0.91031549524913       -0.63844990632114
C           -2.66655800048810        1.78749960639339        0.36427902502326
C           -3.05606062934247        3.15373711886278        0.32624285420851
C           -4.11899260368880        3.52488603489903       -0.49908689128318
C           -4.71106820955496        2.62107096734713       -1.34789976016408
C           -1.70699924327469        1.37020367976118        1.34106305546435
C           -0.91408686711867        2.37454614670024        1.95447857210077
C           -1.31515565654217        3.73642923317279        1.89818577359583
N           -2.37373178285549        4.11026335567708        1.07772697242167
C           -1.52495705067137        0.02537890120872        1.81514292084228
C           -0.27824673404472       -0.32809939003670        2.40292715100447
N            0.66295777231564        0.66568217459758        2.67978265315998
C            0.25297583393373        1.99967863211802        2.66719181369670
C            0.93349320419567        2.97971998133963        3.38382607119862
C            0.43352313163523        4.26068414284845        3.46977858082131
C           -0.65757336579803        4.64937021807002        2.72345944299187
C           -2.57991446553325       -0.93287546054500        1.81878783625663
C           -2.30721607164195       -2.24334080586773        2.19321325886683
C           -1.05400321002928       -2.59744794550778        2.63142196845172
C           -0.05955944891204       -1.65844766468839        2.76395849779498
O           -3.86665471519684       -0.52370436971093        1.54053617340166
O           -2.55869376249686       -0.30605649886232       -0.83437928867695
H           -4.68045522535850        0.66800774415524       -2.15227207528649
H           -4.50691153736727        4.52276235328343       -0.47865472675235
H           -3.07785173505121       -2.99149391541030        2.18854599596491
H            0.87083090391071       -1.97718876153069        3.19202084698112
H            1.81593699473613        2.73385633891662        3.94001070848507
H           -1.01811614358665        5.65320463922711        2.83321915778972
C            3.07599795518219        0.73159308696620        2.02069851244178
C            4.50932586927169        0.48134002362297        2.48423642712485
C           -3.86201270198752        5.97797666608258        1.80520793510886
C           -4.32711741073291        7.40300726155817        1.54526410007509
C           -4.71622642987144       -1.50516685411291        0.98029103799416
C           -2.83337477369846       -0.94693655012572       -2.06307508841004
S           -6.14671644449069        3.17610845958020       -2.43222693636271
F           -5.88316879910508        4.70588199031268       -2.01053939507550
F           -5.11070960717639        3.33371194296715       -3.65610958778831
F           -7.14010103906173        3.00003474773493       -1.17790437300361
F           -7.35397937299237        3.64674324864594       -3.35850531348993
F           -6.41817050819221        1.64979368082556       -2.86100321900326
S           -0.70506033786759       -4.37676993307835        3.10549573390981
F           -1.89959907015469       -4.87073003489029        2.15409582301601
F           -1.73610376523217       -4.24154235494176        4.32527521497295
F           -0.38952472616586       -5.87502116096737        3.51386182302322
F            0.32734476372404       -4.47456811524433        1.87741109084927
F            0.48097589410603       -3.86720197011563        4.05469741824227
S            1.19981657837540        5.45152690884013        4.70814681079439
F            2.45038640185942        5.65871011324976        3.72507861289587
F            0.42978955775362        6.67828195079812        4.02139962364254
F            1.81853931005307        6.42660131192936        5.79594483458565
F           -0.07391776410742        5.17819407127853        5.64881727043553
F            1.95552259748951        4.22198521622682        5.40860910693105
H            2.14086890428414       -0.70382527845755        3.31584976639307
H            2.26977220084536        0.86532100408226        4.00956609349924
H            2.94991598693338        1.78741587094577        1.76586222607402
H            2.87265617757389        0.16175275658199        1.10986797324468
H            4.73745829586164        1.05458718547561        3.37984410282451
H            5.23358440834733        0.75691585536388        1.72145696874726
H            4.66693226962482       -0.56642939213521        2.72582280048141
H           -2.17392754973191       -1.81225466935822       -2.14369439390188
H           -2.63407127008211       -0.26470618295897       -2.89311791761410
H           -3.87046070852561       -1.28892215733496       -2.10247775294131
H           -5.63035349437437       -1.00733191317585        0.65190133864867
H           -4.96932782277287       -2.27898033433434        1.70656399209220
H           -4.22120959758775       -1.96350260475279        0.12382347581524
H           -2.95885430200362        5.71122626172110       -0.14338304421817
H           -1.82207842133695        6.14087701986230        1.09640280284628
H           -3.56065529047028        5.87698268780940        2.84905161134139
H           -4.69584402988129        5.28711782219281        1.66681448354346
H           -3.51892153629543        8.11521355340203        1.70473960060523
H           -5.14542556553853        7.67187522574248        2.21274844830070
H           -4.68264517156919        7.51811524745496        0.52262408207709
C           -0.02215074390276        2.39109941460787        6.43167631892791
C            0.61630391298582       -4.90051836949890        7.25187228595865
C           -4.40689450485830        0.53367173214056        4.50565266561585
C           -3.72911318564446       -0.57302773604549        5.00426085243660
C           -2.52851144163517       -0.37939644152998        5.74767308222581
C           -1.93725278215182        0.91445169203883        5.76458453448560
C           -2.66212567736659        1.99069316387358        5.24919107790999
C           -3.88597245820833        1.79656278859528        4.65601092115131
C           -1.83253488423608       -1.46608000469137        6.38211981068180
C           -0.42209698635293       -1.34537597574490        6.48032681610077
C            0.17786242598021       -0.06785652383213        6.34094089022012
N           -0.62325727104818        1.06802992903489        6.21158844693678
C           -2.42740992855559       -2.68542346757974        6.83953927912986
C           -1.60244270548402       -3.83009150719831        7.00872533202879
N           -0.21410438384861       -3.72687750121988        6.93050846220250
C            0.38397397884610       -2.50294684325627        6.65318458059910
C            1.76123124185354       -2.37745393971427        6.47116331162856
C            2.33012142027601       -1.14096581769576        6.25877091827841
C            1.56641510460678        0.00595961173175        6.27627838135605
C           -3.79939649175152       -2.77912952532483        7.21910424470886
C           -4.34811096142042       -4.02898062694412        7.48460076290627
C           -3.56194251146320       -5.15982754495515        7.47624551109547
C           -2.20692947239585       -5.06019149019663        7.27232696913261
O           -4.51946688145930       -1.61749639931975        7.38853734769904
O           -4.13775625879035       -1.85639112882138        4.72239969167018
H           -5.32692163763827        0.42351355656355        3.96284356440269
H           -2.27220164639672        2.98972307140493        5.26443605074309
H           -5.39487000968423       -4.13405411632048        7.69766803362703
H           -1.62708561497513       -5.95971104242721        7.29923481310999
H            2.39407548298953       -3.24235605051175        6.43697554808892
H            2.05730782982766        0.95148497019583        6.15915787195179
C            0.84216383767233       -5.81175102066043        6.04710428438931
C            1.58323011474827       -7.09801080814684        6.37942789116814
C            0.24623552970709        2.69367035803314        7.90482054652535
C            0.93343633881207        4.04215957541934        8.10806263945893
C           -5.75685011250809       -1.74744573607245        8.05605593268034
C           -5.50705782725417       -2.01508518512330        4.41620692365286
S           -4.83148207428853        3.27642689144822        3.99983950004351
F           -5.00183855911740        3.80287175493009        5.50884268463829
F           -3.45058411363828        4.08118640828379        3.87975890773930
F           -6.20601349326454        2.45603188504941        4.11840494812815
F           -5.61575868380188        4.53928290411314        3.45061121436900
F           -4.63280543355277        2.72675516477930        2.50739477145162
S           -4.32148360775830       -6.85016106339284        7.81528074351919
F           -4.50119405180061       -7.06845732706921        6.23044599275113
F           -5.78397347259143       -6.18521786492345        7.88849454090927
F           -4.96250118123478       -8.27777124832968        8.11259456759022
F           -2.86487604549969       -7.52938729099059        7.75034273353832
F           -4.12180107802881       -6.57976983863351        9.39116059843830
S            4.15470197168964       -1.01205589215798        5.82152970386751
F            3.90672684680487        0.48069670404801        5.28955452895263
F            4.46171090779137       -0.43984901717775        7.28775763801384
F            5.67652254785346       -0.89270954860634        5.39027801161651
F            4.39672569770804       -2.51204908274995        6.33267480382000
F            3.76818860762055       -1.57533541003604        4.36678626232755
H            0.13694929436509       -5.45697038437790        8.06211608645039
H            1.57225270368037       -4.56569384639498        7.66063730038895
H            1.39154872008203       -5.26204743984969        5.28114512330055
H           -0.12753027422308       -6.04981350936734        5.60708460085285
H            2.56810330554802       -6.88814396374342        6.79378659559777
H            1.71979448887898       -7.70829032071746        5.48693012679596
H            1.03003984476431       -7.69222463200003        7.10485340113342
H           -5.71038409056924       -3.08458407692912        4.33836496370935
H           -5.75850993527567       -1.52992271163364        3.47252104587732
H           -6.11136896305288       -1.58555456416543        5.21663363729743
H           -6.15823002433632       -0.74567396867186        8.21525492895880
H           -5.61121364525746       -2.23379177136887        9.02396146670893
H           -6.46512785449363       -2.32020508330943        7.45265829856051
H           -0.65094600073103        3.17086895969538        6.01342380319883
H            0.90713591141208        2.45781968384921        5.87278199488748
H            0.86598889278087        1.89583875999308        8.32326287117852
H           -0.70279591437744        2.67199920497283        8.44750465461072
H            1.88591544963801        4.07988090105926        7.58405514810651
H            1.12530551499251        4.24216686572913        9.15969658979155
H            0.32401585381671        4.85567899774194        7.72296841293519
150
 energy: -332.279627674920 gnorm: 0.081764148834 xtb: 6.7.1 (edcfbbe)
C           -2.70410707224185        5.52534609999178        0.90381039910322
C            2.02953658213020        0.35645237732255        3.07375355968928
C           -4.22384942919390        1.33198133191784       -1.45214966751053
C           -3.17551534244131        0.91582313434565       -0.63860503265594
C           -2.65944283175634        1.78758785582659        0.35883999483567
C           -3.04630908631413        3.15637242557498        0.32545370875535
C           -4.11397722072877        3.53587901637849       -0.49596002632722
C           -4.70033035728975        2.61784320834272       -1.33405895389029
C           -1.71021247923859        1.36745632590440        1.33799885709789
C           -0.91845111324244        2.37302279004337        1.95694648368417
C           -1.32197104648583        3.73466726501130        1.89430063364740
N           -2.36937936700518        4.10880684855694        1.07511170782543
C           -1.53168941078470        0.02926334236538        1.82068974983749
C           -0.28262680721197       -0.31909429692018        2.41186704163706
N            0.66065019932775        0.66634373704770        2.66885647250609
C            0.24694542120591        1.99404818201133        2.67117653902492
C            0.93874817266617        2.97302846230489        3.38621984030217
C            0.42847940168627        4.25093470345119        3.45229929332309
C           -0.66569418608788        4.65452207625228        2.72115004391728
C           -2.57807027547619       -0.93092421246635        1.81946476346021
C           -2.31603698220089       -2.24510127770158        2.19341371653326
C           -1.05779250344197       -2.58037039716820        2.62467361523081
C           -0.05319579572483       -1.65184677948418        2.76931988579232
O           -3.84150331897881       -0.52779378846630        1.53055284964197
O           -2.56500983312906       -0.28593949439276       -0.83229451981680
H           -4.67736153253753        0.66689183678424       -2.15812069158673
H           -4.50750699412870        4.52749135615770       -0.47399562530291
H           -3.08066130441223       -2.99484095258203        2.18834008609822
H            0.87713213495618       -1.97564030303590        3.18675056234690
H            1.82762645408374        2.73480639505053        3.92975353559141
H           -1.02188688135976        5.65603620511877        2.83303113288912
C            3.07051780342822        0.73820867181091        2.00847894555069
C            4.50642761786192        0.48446895655324        2.47814051886769
C           -3.86240788627937        5.97580445217471        1.80440005429316
C           -4.32232900986305        7.40532805005781        1.53713848689388
C           -4.71149526201190       -1.50479424519644        0.97908733370233
C           -2.83314371758622       -0.94361824356968       -2.05927147757734
S           -6.10999234996508        3.16146934170567       -2.40020147966765
F           -5.89679495446937        4.74644048659049       -2.02094122681016
F           -5.10132243749812        3.33978102461784       -3.69064035842992
F           -7.17368962202792        3.00127540145908       -1.15925243714072
F           -7.32875778190295        3.63563375510041       -3.33956941072037
F           -6.44433575312201        1.62452544958752       -2.88100336257503
S           -0.71814921226170       -4.32465014903956        3.08337977729880
F           -1.92198300898858       -4.90268863051180        2.13097387122353
F           -1.75778757220628       -4.25390182493558        4.35017787862457
F           -0.40076283096413       -5.84711518636647        3.48384762325754
F            0.35574326208912       -4.49064350256215        1.85077329199944
F            0.50688758420077       -3.86405943629526        4.07391400578644
S            1.18099191140629        5.42578068978436        4.66212801711246
F            2.49001279422971        5.67813296261282        3.71019623509290
F            0.42589857445241        6.72611089063528        4.01556963410156
F            1.80550421109522        6.41030569506188        5.76707386085593
F           -0.10546963627771        5.20126356105131        5.66188319720607
F            1.99352943181954        4.21971623641052        5.42490337082133
H            2.13242172201764       -0.69805520125670        3.29642916778649
H            2.26349007336994        0.87357696933068        3.99834431920537
H            2.95187812801080        1.79313979603837        1.76437986372818
H            2.87407249185803        0.15869751400291        1.10725732954465
H            4.73469922169862        1.06092705152121        3.36626928081781
H            5.22218989762730        0.76216393034914        1.71051541287116
H            4.66369641729143       -0.56056569244523        2.71292532316554
H           -2.16813956034870       -1.80474953959131       -2.12636936892400
H           -2.63699208727471       -0.26944804199016       -2.89826302414017
H           -3.86891142548207       -1.29337956356967       -2.10917495540038
H           -5.61970835365727       -0.99406353864575        0.65720059872850
H           -4.97315661604821       -2.28045762153461        1.70249258423226
H           -4.22809054722978       -1.97385638340172        0.12109784071383
H           -2.95984115598940        5.70225049258823       -0.14411319054023
H           -1.81842565460971        6.13155269044245        1.10079706311199
H           -3.55721760530039        5.89379009376122        2.84142172007826
H           -4.69540213604536        5.29481532580450        1.65816536325886
H           -3.51513474960871        8.11400818065010        1.70270292109882
H           -5.13805022424241        7.66260471219840        2.20953336240672
H           -4.68104461485285        7.51738487106802        0.51805011203430
C           -0.02680956283380        2.37685479236739        6.43222819118732
C            0.61147126734306       -4.89138299986470        7.25508186349331
C           -4.41240019801784        0.52840097768552        4.50105630342916
C           -3.72631434391787       -0.57269617566339        5.00459900993800
C           -2.52568764156924       -0.38513493773435        5.74043788255622
C           -1.92820368026217        0.90783007916334        5.75674129460127