150
 energy: -332.100589154528 gnorm: 0.357454109415 xtb: 6.7.1 (edcfbbe)
C           -1.52630000000000        4.94450000000000       -0.03580000000000
C            1.97500000000000       -0.91800000000000        2.79180000000000
C           -4.41740000000000        1.01410000000000       -1.29310000000000
C           -3.40460000000000        0.44100000000000       -0.52630000000000
C           -2.55490000000000        1.30710000000000        0.23810000000000
C           -2.58610000000000        2.69970000000000       -0.03800000000000
C           -3.62620000000000        3.19910000000000       -0.82090000000000
C           -4.54460000000000        2.37750000000000       -1.42010000000000
C           -1.59150000000000        0.80810000000000        1.17930000000000
C           -0.48770000000000        1.63760000000000        1.50130000000000
C           -0.52850000000000        3.02830000000000        1.21330000000000
N           -1.56740000000000        3.54000000000000        0.42940000000000
C           -1.69040000000000       -0.45020000000000        1.87480000000000
C           -0.50420000000000       -1.04570000000000        2.38520000000000
N            0.68560000000000       -0.30100000000000        2.41210000000000
C            0.63670000000000        1.07770000000000        2.15930000000000
C            1.63050000000000        1.94110000000000        2.60310000000000
C            1.49960000000000        3.30500000000000        2.48990000000000
C            0.45430000000000        3.84040000000000        1.77440000000000
C           -2.95340000000000       -1.06040000000000        2.16760000000000
C           -2.95870000000000       -2.33140000000000        2.73620000000000
C           -1.79160000000000       -2.96300000000000        3.09280000000000
C           -0.58980000000000       -2.32120000000000        2.94340000000000
O           -4.12570000000000       -0.34310000000000        1.94880000000000
O           -3.14570000000000       -0.92500000000000       -0.53140000000000
H           -5.12650000000000        0.39180000000000       -1.80980000000000
H           -3.73890000000000        4.25810000000000       -0.96410000000000
H           -3.88630000000000       -2.83920000000000        2.93390000000000
H            0.28150000000000       -2.83100000000000        3.31040000000000
H            2.48470000000000        1.56070000000000        3.13180000000000
H            0.38170000000000        4.91200000000000        1.71390000000000
C            2.92970000000000       -1.08590000000000        1.62000000000000
C            4.26740000000000       -1.67980000000000        2.04160000000000
C           -2.38890000000000        5.86320000000000        0.82010000000000
C           -2.59730000000000        7.24450000000000        0.22130000000000
C           -5.28920000000000       -1.12650000000000        1.84050000000000
C           -3.82120000000000       -1.66640000000000       -1.51840000000000
S           -5.94810000000000        3.13400000000000       -2.45520000000000
F           -5.26300000000000        4.55360000000000       -2.26770000000000
F           -5.04010000000000        2.86610000000000       -3.73120000000000
F           -6.75280000000000        3.34430000000000       -1.10110000000000
F           -7.11330000000000        3.76330000000000       -3.32640000000000
F           -6.56760000000000        1.68030000000000       -2.59410000000000
S           -1.83150000000000       -4.71280000000000        3.82330000000000
F           -1.04610000000000       -5.19160000000000        2.53170000000000
F           -3.20960000000000       -4.93830000000000        3.07650000000000
F           -1.84490000000000       -6.16150000000000        4.44310000000000
F           -0.46080000000000       -4.38300000000000        4.53570000000000
F           -2.60690000000000       -4.12090000000000        5.06680000000000
S            2.72770000000000        4.43010000000000        3.40290000000000
F            3.80080000000000        4.06410000000000        2.29840000000000
F            2.21110000000000        5.63410000000000        2.51490000000000
F            3.71970000000000        5.35810000000000        4.20590000000000
F            1.55850000000000        4.67940000000000        4.44180000000000
F            3.16340000000000        3.16960000000000        4.25340000000000
H            1.81630000000000       -1.87870000000000        3.27770000000000
H            2.44310000000000       -0.31830000000000        3.57060000000000
H            3.08100000000000       -0.11310000000000        1.13630000000000
H            2.45370000000000       -1.71550000000000        0.85820000000000
H            4.75150000000000       -1.05820000000000        2.79820000000000
H            4.95700000000000       -1.78630000000000        1.20280000000000
H            4.13350000000000       -2.66530000000000        2.49290000000000
H           -3.44650000000000       -2.69060000000000       -1.48440000000000
H           -3.61540000000000       -1.24020000000000       -2.50160000000000
H           -4.89250000000000       -1.67110000000000       -1.31480000000000
H           -6.10500000000000       -0.47800000000000        1.51670000000000
H           -5.53390000000000       -1.56820000000000        2.80600000000000
H           -5.12950000000000       -1.90780000000000        1.09680000000000
H           -1.85110000000000        4.97070000000000       -1.07890000000000
H           -0.49170000000000        5.29320000000000       -0.06690000000000
H           -1.94770000000000        5.94670000000000        1.82230000000000
H           -3.35950000000000        5.37900000000000        0.99670000000000
H           -1.64670000000000        7.75790000000000        0.07100000000000
H           -3.21530000000000        7.87290000000000        0.86610000000000
H           -3.09330000000000        7.18340000000000       -0.74870000000000
C            0.93370000000000        2.24650000000000        5.74280000000000
C           -0.61470000000000       -4.63640000000000        7.93670000000000
C           -4.03820000000000        1.67340000000000        4.59150000000000
C           -3.68490000000000        0.47820000000000        5.21260000000000
C           -2.38200000000000        0.37400000000000        5.80000000000000
C           -1.42610000000000        1.39400000000000        5.53820000000000
C           -1.85570000000000        2.56060000000000        4.90620000000000
C           -3.14390000000000        2.70860000000000        4.46320000000000
C           -1.97120000000000       -0.78330000000000        6.55440000000000
C           -0.59240000000000       -1.11520000000000        6.52930000000000
C            0.35270000000000       -0.13870000000000        6.12520000000000
N           -0.07100000000000        1.16350000000000        5.82470000000000
C           -2.85630000000000       -1.65310000000000        7.27840000000000
C           -2.41790000000000       -2.96620000000000        7.59580000000000
N           -1.07900000000000       -3.33350000000000        7.40970000000000
C           -0.16310000000000       -2.42640000000000        6.86760000000000
C            1.15950000000000       -2.77160000000000        6.59850000000000
C            2.05900000000000       -1.84290000000000        6.13000000000000
C            1.67720000000000       -0.53110000000000        5.97740000000000
C           -4.11190000000000       -1.20770000000000        7.80940000000000
C           -4.97120000000000       -2.15530000000000        8.36270000000000
C           -4.59950000000000       -3.47130000000000        8.50940000000000
C           -3.33500000000000       -3.85780000000000        8.15090000000000
O           -4.39650000000000        0.15350000000000        7.82120000000000
O           -4.53230000000000       -0.62800000000000        5.20660000000000
H           -5.01900000000000        1.79890000000000        4.16760000000000
H           -1.17830000000000        3.37080000000000        4.71010000000000
H           -5.95210000000000       -1.86870000000000        8.69830000000000
H           -3.07010000000000       -4.88900000000000        8.29680000000000
H            1.49210000000000       -3.79000000000000        6.69470000000000
H            2.41980000000000        0.17360000000000        5.65250000000000
C           -0.84510000000000       -5.77480000000000        6.95040000000000
C           -0.65950000000000       -7.15780000000000        7.55240000000000
C            1.44200000000000        2.69620000000000        7.10350000000000
C            2.51480000000000        3.77250000000000        6.99590000000000
C           -5.46510000000000        0.54110000000000        8.65140000000000
C           -5.90440000000000       -0.32160000000000        5.12350000000000
S           -3.66920000000000        4.33970000000000        3.64880000000000
F           -3.46780000000000        5.02600000000000        5.06370000000000
F           -2.14750000000000        4.59160000000000        3.30860000000000
F           -5.16610000000000        3.98710000000000        4.02550000000000
F           -4.08200000000000        5.69840000000000        2.96560000000000
F           -3.82950000000000        3.55070000000000        2.28890000000000
S           -5.79630000000000       -4.75030000000000        9.24880000000000
F           -6.34140000000000       -4.99740000000000        7.77700000000000
F           -6.85350000000000       -3.58330000000000        9.43950000000000
F           -6.79190000000000       -5.81420000000000        9.87300000000000
F           -4.68290000000000       -5.86000000000000        9.02850000000000
F           -5.16090000000000       -4.40480000000000       10.66350000000000
S            3.81050000000000       -2.36210000000000        5.60890000000000
F            3.92570000000000       -0.99040000000000        4.82980000000000
F            4.34950000000000       -1.66770000000000        6.92520000000000
F            5.24920000000000       -2.79610000000000        5.12640000000000
F            3.59260000000000       -3.71470000000000        6.40080000000000
F            3.12580000000000       -2.99090000000000        4.32700000000000
H           -1.13410000000000       -4.83050000000000        8.87850000000000
H            0.43790000000000       -4.56780000000000        8.21960000000000
H           -0.18130000000000       -5.64540000000000        6.08510000000000
H           -1.85470000000000       -5.68080000000000        6.52640000000000
H            0.35020000000000       -7.28630000000000        7.94460000000000
H           -0.83070000000000       -7.94360000000000        6.81350000000000
H           -1.35490000000000       -7.32630000000000        8.37620000000000
H           -6.46780000000000       -1.23330000000000        5.32920000000000
H           -6.15200000000000        0.04270000000000        4.12710000000000
H           -6.14890000000000        0.43360000000000        5.87100000000000
H           -5.49960000000000        1.63150000000000        8.66870000000000
H           -5.29550000000000        0.17020000000000        9.66350000000000
H           -6.40640000000000        0.16080000000000        8.25330000000000
H            0.54080000000000        3.10160000000000        5.19630000000000
H            1.76720000000000        1.91570000000000        5.12530000000000
H            1.82890000000000        1.82700000000000        7.64920000000000
H            0.59500000000000        3.05660000000000        7.70000000000000
H            3.36760000000000        3.41920000000000        6.41200000000000
H            2.88450000000000        4.08810000000000        7.97260000000000
H            2.13340000000000        4.65600000000000        6.47950000000000
150
 energy: -332.198190294307 gnorm: 0.244812520317 xtb: 6.7.1 (edcfbbe)
C           -1.52530124803361        4.93389392669607       -0.03677284915815
C            1.96215500990075       -0.90843400301311        2.78113611759353
C           -4.41517480396427        1.00832655010843       -1.29540502589893
C           -3.40382386841385        0.44779654417924       -0.52314769421201
C           -2.54775545387827        1.30383347906928        0.23313231657982
C           -2.57468322974225        2.69732849800520       -0.04177408560041
C           -3.61610579750956        3.20685348656703       -0.81906804639512
C           -4.53717119376569        2.37561911198620       -1.40975240038731
C           -1.59545512645993        0.80552837862990        1.17736985153966
C           -0.49307663372331        1.63592694124853        1.50277891797704
C           -0.53435565258918        3.02663243127960        1.21052790141692
N           -1.56392205875663        3.53624560111356        0.42718514925239
C           -1.69447870646764       -0.44328307908840        1.87991423951453
C           -0.50680278925263       -1.03376931025498        2.39374311361887
N            0.68053852239847       -0.29983161854139        2.40300658757818
C            0.62833209250957        1.07447404411964        2.16591241358165
C            1.63180654071440        1.93280655869693        2.60583397506704
C            1.49535039257351        3.29831870180341        2.47760420084335
C            0.44629657073012        3.84535969746093        1.77122155644708
C           -2.94739767448621       -1.06045119854999        2.16644250464174
C           -2.96501317988719       -2.32808632323611        2.73625232029134
C           -1.79067769723243       -2.95108532558305        3.08476011341305
C           -0.58125008752789       -2.31429448727073        2.94540048432310
O           -4.10560941342780       -0.35368409232837        1.94153430049056
O           -3.14754325289649       -0.90525220172905       -0.52857822562133
H           -5.12028754432116        0.38521744156307       -1.81218307243997
H           -3.72925077247846        4.26227846378439       -0.95746051452353
H           -3.89003660245369       -2.83549226617970        2.93647509411163
H            0.29045665425677       -2.82668084727141        3.30281253282559
H            2.49229880969451        1.55000505330191        3.11753056084469
H            0.37457591308523        4.91357499513916        1.70838907487297
C            2.92502821654812       -1.08096235054646        1.60778658096250
C            4.26460675473685       -1.67679771963061        2.03564718815149
C           -2.38728356920509        5.86313364878874        0.81543937280749
C           -2.59340053540504        7.24443117448556        0.21329063697701
C           -5.28242226004018       -1.12747889618759        1.83920917136166
C           -3.81957833136112       -1.66029844470170       -1.51413078553760
S           -5.92715441043571        3.12270207046495       -2.43742913264468
F           -5.27038312764523        4.58252573315387       -2.28042592870334
F           -5.03831736247357        2.86648467825002       -3.75673074722087
F           -6.77398537626452        3.35332062905834       -1.08788524713490
F           -7.09784378413699        3.75307398158172       -3.31412307192375
F           -6.59216053877459        1.66803903273700       -2.60465137955445
S           -1.83370204570185       -4.68186173204701        3.80002041108255
F           -1.03404782429124       -5.20804192555046        2.50899536354613
F           -3.23218130104792       -4.95778013494333        3.06212337222305
F           -1.84910337126175       -6.14532480220719        4.41023995908573
F           -0.44282192345782       -4.38434974441575        4.53956096933143
F           -2.62326914249593       -4.12064990425277        5.07803636559687
S            2.71228665725496        4.41867672833166        3.37376786095187
F            3.83207710140017        4.06850784320829        2.28022444712860
F            2.22102185831997        5.66933921546087        2.49960178446743
F            3.70890722473221        5.35059961440840        4.18344983165775
F            1.54839783269565        4.70996311570398        4.44229857132420
F            3.19036127276704        3.17035771336124        4.26069673151889
H            1.79595124107848       -1.86962563722256        3.25525712446836
H            2.43191032123095       -0.30263789887393        3.55098712757727
H            3.08594872692368       -0.10798754766531        1.13543812013088
H            2.45446219746363       -1.72151841092450        0.85685283378545
H            4.75016846971363       -1.05370768531704        2.78360034842365
H            4.94699594363894       -1.77999861070814        1.19505037566473
H            4.13326157098220       -2.66171828218221        2.47626946608497
H           -3.43778581639884       -2.68137510403736       -1.47167134845553
H           -3.62154412139661       -1.24442122096370       -2.50537490209194
H           -4.89511359325002       -1.67650175506913       -1.32255071537522
H           -6.09090020119189       -0.46922604090474        1.51627817609068
H           -5.53953737600211       -1.57327201973936        2.80142125690097
H           -5.13836739131874       -1.91487391947957        1.09724343829882
H           -1.85863865282314        4.96116831175980       -1.07795923289447
H           -0.49025659237129        5.28245775364830       -0.05618017075587
H           -1.93771482598331        5.96309070396307        1.80398516414234
H           -3.35556113043503        5.38515582211806        0.97324774823318
H           -1.64307868721517        7.75620719512067        0.07033957195217
H           -3.21068710172560        7.86155452536083        0.86588284716193
H           -3.09333560071461        7.18013975638596       -0.75174612643516
C            0.92347582899118        2.23223378024760        5.75003685709844
C           -0.61830511003626       -4.62645169214436        7.93754606879478
C           -4.04249879288971        1.66781422494233        4.59008201707697
C           -3.67958457611833        0.48060639734252        5.21504812727389
C           -2.38206967361580        0.36620980509702        5.79496383637825
C           -1.42206477005492        1.38243262694616        5.53025453439854
C           -1.84504773039160        2.55745199502565        4.90666384226988
C           -3.14060209609752        2.69772627277015        4.47142040321847
C           -1.97595150517222       -0.78262008816206        6.55552535080845
C           -0.59735419071430       -1.11566047670022        6.52673920846540
C            0.34577225909285       -0.13828103895974        6.11754530976326
N           -0.07729619354389        1.16016563560503        5.83214741214006
C           -2.85169163374192       -1.64749197604382        7.28538104499875
C           -2.40882880767756       -2.95948123703690        7.60312383528902
N           -1.07763154501397       -3.32888906447500        7.41261941414348
C           -0.16941248851215       -2.42738144748458        6.86887654627714
C            1.15374118782358       -2.77929829310743        6.60003376700597
C            2.04954028566018       -1.83889308972114        6.14003991218052
C            1.67584905285393       -0.52261607586042        5.97501905391269
C           -4.10771265797557       -1.21366600936895        7.80660715186590
C           -4.97194233657029       -2.14923195966562        8.36466728085825
C           -4.59170879886765       -3.46635285579412        8.50032359640911
C           -3.32241743531449       -3.86089558531241        8.15203173756243
O           -4.38941506992018        0.13488692818759        7.81921021136008
O           -4.51931942622950       -0.61105422320105        5.21833425453865
H           -5.02066897002714        1.79365380459425        4.16502484539177
H           -1.17011914379149        3.36958349267582        4.72005552337102
H           -5.95000721956696       -1.86015098704032        8.69941174889258
H           -3.05711419904834       -4.88794122233531        8.29536500456473
H            1.48505117814865       -3.79446218819190        6.69837029644257
H            2.41866796874244        0.18584348327815        5.66716572258655
C           -0.84486878670137       -5.77430576200938        6.95544611690367
C           -0.65788477626798       -7.15664089648474        7.56110684683913
C            1.43681416695363        2.68929943729750        7.11431977110962
C            2.51196097287284        3.76828815438815        7.00142093076587
C           -5.46038837780982        0.53609453844421        8.64774862040671
C           -5.89903417400121       -0.31793212387994        5.12596139228078
S           -3.66520282361177        4.30948802732780        3.67210423929154
F           -3.46875416475096        5.04469179248670        5.08755373950424
F           -2.13135493715730        4.60021268233004        3.30858497683704
F           -5.19730899531135        3.99620180220841        4.03253313381864
F           -4.08761712939216        5.68071436951480        2.99717566535023
F           -3.84117219556801        3.54536733620045        2.27354766996870
S           -5.77836959884964       -4.73125291961961        9.23511650559061
F           -6.35873100429637       -5.00985902439714        7.75976158310092
F           -6.88075827120787       -3.58056264868439        9.45085053877302
F           -6.77936815685365       -5.79844361026351        9.86390456081573
F           -4.68336481426429       -5.89180932589021        9.03459937108241
F           -5.16093951109563       -4.40924816760115       10.68826304872696
S            3.78529884441613       -2.35917390990579        5.63261864913850
F            3.95237069968229       -0.98077859037928        4.82928687769904
F            4.37423130075558       -1.66083867366981        6.95084783981644
F            5.23125367292636       -2.79469079589910        5.14522573437888
F            3.61118581740547       -3.74427107495892        6.42000586663808
F            3.12884907297217       -3.02337885079542        4.32571382840986
H           -1.14442177675069       -4.82449274511185        8.87561121539297
H            0.43741105465550       -4.55698398873209        8.20882426197249
H           -0.17050142459263       -5.65762880002388        6.10653515336101
H           -1.85460893780849       -5.68672219535851        6.55053114119882
H            0.35263841243340       -7.28336705882137        7.94608917352438
H           -0.83071615422810       -7.93132859645513        6.81423017732083
H           -1.35691493299062       -7.32351442351387        8.37894195640859
H           -6.45210615472020       -1.23621465819848        5.33153157955631
H           -6.15965580178424        0.04459432894929        4.13012135860709
H           -6.15984400622059        0.43738467833562        5.86874814112532
H           -5.48568836871236        1.62672781445507        8.65812423122216
H           -5.30335772382368        0.17145403577573        9.66604591113076
H           -6.41198924590574        0.16456890141752        8.26012256085211
H            0.52055691771431        3.08441988153091        5.21338137585148
H            1.75840115336810        1.89631899046132        5.14118774698766
H            1.83519801660112        1.82414139189149        7.65137273035972
H            0.59312820588891        3.06258157477353        7.70123851288138
H            3.36453085838856        3.41370935788522        6.42645754768107
H            2.87600961168901        4.07827949702105        7.97818337150186
H            2.13040296227542        4.65161670036469        6.49588558952968
150
 energy: -332.274475347830 gnorm: 0.081656426713 xtb: 6.7.1 (edcfbbe)
C           -1.52246273852432        4.92371537882345       -0.03861647041597
C            1.95095178668673       -0.90068534980717        2.77504272273267
C           -4.41563785606539        1.00278145653875       -1.30090787850361
C           -3.40250799940424        0.45251890013645       -0.52349687081890
C           -2.54224621215743        1.30114021163616        0.22848084175750
C           -2.56463434897064        2.69693224421514       -0.04457328734499
C           -3.60780695400191        3.21664068652019       -0.81923767631397
C           -4.52586168560286        2.37214881268859       -1.39651804364349
C           -1.59982415867294        0.80352573270575        1.17602444268920
C           -0.49770557614419        1.63617474855777        1.50566338235488
C           -0.54169831581215        3.02649518651364        1.20718236930282
N           -1.56031552555804        3.53323250128416        0.42405296647853
C           -1.69869752903791       -0.43698970160074        1.88502201597357
C           -0.50731460590193       -1.02260272032605        2.40125040727350
N            0.67722277238748       -0.29946661820813        2.39363217644963
C            0.62166275805252        1.07197765476132        2.17182889599715
C            1.63541333985353        1.92598823428201        2.60887582664128
C            1.48526803851433        3.28824394357748        2.46319116859366
C            0.43911630621760        3.85266036853574        1.76863135471332
C           -2.94489157568452       -1.05949539304120        2.16661659464423
C           -2.97367409210247       -2.32790293492258        2.73720526436760
C           -1.78998972799473       -2.93474725000353        3.07482142225456
C           -0.57199778536296       -2.30932416919713        2.94754411990077
O           -4.08568813003211       -0.36697166566070        1.93421871203474
O           -3.15079922837341       -0.88431095552452       -0.52838555791966
H           -5.11878990147705        0.38253430985284       -1.81723968572800
H           -3.72679776166541        4.26795549452101       -0.95428108509668
H           -3.89305357871440       -2.83774845421779        2.93928163904683
H            0.29611763457397       -2.82771375282602        3.29632749020080
H            2.50258733101287        1.54704457408907        3.10597622447595
H            0.37135984061504        4.91772812746385        1.70758709283961
C            2.92022064992002       -1.07542371700990        1.59487598777496
C            4.26191671084433       -1.67388606241384        2.02994239804052
C           -2.38769943426511        5.86153153691962        0.81451714952100
C           -2.58929199506465        7.24390249347420        0.20362413973914
C           -5.27848262610411       -1.12827539961920        1.83731625745018
C           -3.81817797416314       -1.65671999426487       -1.51074715831265
S           -5.89113874096820        3.10417926951733       -2.40702977193526
F           -5.27670159668338        4.62407564993279       -2.29514350593218
F           -5.03203876377511        2.86602721261989       -3.79246451444041
F           -6.80442586804615        3.36494716701467       -1.06665547150173
F           -7.07400496260777        3.73873491253191       -3.29603751412340
F           -6.62556832255696        1.64801038024851       -2.61928799827953
S           -1.83423568511740       -4.63159561882353        3.77047845617202
F           -1.01410737082642       -5.23540899649556        2.48222462202463
F           -3.26444485273956       -4.98511816288763        3.04788641036336
F           -1.85400398771737       -6.12010255215854        4.37675095443843
F           -0.41112298473704       -4.38711329462014        4.55325287187484
F           -2.64568543621835       -4.11738894835823        5.10305384723987
S            2.68133045276690        4.39232681063881        3.33567333247675
F            3.87282830440498        4.07194706745461        2.25866533138134
F            2.22988277857429        5.71407268726514        2.48303916974037
F            3.68906360254334        5.33408900372545        4.15889819334132
F            1.52678085353186        4.74614208302929        4.45188415351960
F            3.22736621649869        3.16037491412784        4.27458169062153
H            1.78704318677797       -1.86479266847712        3.23613887443687
H            2.42745412441876       -0.29365721012728        3.53705024108343
H            3.08942687563014       -0.10359593478724        1.13265951889409
H            2.45460271304592       -1.72529217036572        0.85494756586710
H            4.74743543263835       -1.04920727424226        2.77040702393644
H            4.93645263385933       -1.77306419945626        1.18476613564767
H            4.13035131512405       -2.65735229151412        2.46325472314549
H           -3.42702209068436       -2.67264823978986       -1.45714356282238
H           -3.62631662291792       -1.24909851829675       -2.50810918540154
H           -4.89677072002875       -1.68247386839501       -1.32863430939165
H           -6.07621569827436       -0.45804525490825        1.51536988078159
H           -5.54479869504344       -1.57581199344593        2.79726410350195
H           -5.14711357046757       -1.92102384033400        1.09738707977895
H           -1.86213611727034        4.95299691579534       -1.07725757101379
H           -0.48859780918729        5.27279404800214       -0.04994274429025
H           -1.93085963017748        5.97668215182361        1.78986709907752
H           -3.35464675053332        5.39246786096705        0.96142223827112
H           -1.63975875189772        7.75441931537538        0.06772409954227
H           -3.20562882264274        7.85005100094611        0.86447188371623
H           -3.09270704146561        7.17845575426154       -0.75650562752828
C            0.91495894616246        2.22047119655706        5.75339096881683
C           -0.62013583784113       -4.61627743225210        7.93962459815972
C           -4.04993537823411        1.66433970128794        4.58720747144325
C           -3.67685632653684        0.48082086730453        5.21568485361165
C           -2.38251785628417        0.35883325239526        5.78974193514572
C           -1.41669658727069        1.37235205735026        5.52356259524912