150
 energy: -332.100567675202 gnorm: 0.357534086549 xtb: 6.7.1 (43a0e4e5b5d943adc66b4aa6563d39c792f6153b)
C           -1.52700000000000        4.94580000000000       -0.03450000000000
C            1.97520000000000       -0.91710000000000        2.79140000000000
C           -4.41670000000000        1.01480000000000       -1.29370000000000
C           -3.40390000000000        0.44180000000000       -0.52670000000000
C           -2.55490000000000        1.30810000000000        0.23830000000000
C           -2.58640000000000        2.70070000000000       -0.03740000000000
C           -3.62650000000000        3.20000000000000       -0.82060000000000
C           -4.54440000000000        2.37830000000000       -1.42020000000000
C           -1.59160000000000        0.80900000000000        1.17950000000000
C           -0.48800000000000        1.63860000000000        1.50170000000000
C           -0.52900000000000        3.02930000000000        1.21420000000000
N           -1.56800000000000        3.54120000000000        0.43050000000000
C           -1.69020000000000       -0.44980000000000        1.87430000000000
C           -0.50380000000000       -1.04530000000000        2.38430000000000
N            0.68580000000000       -0.30010000000000        2.41150000000000
C            0.63660000000000        1.07850000000000        2.15930000000000
C            1.63030000000000        1.94200000000000        2.60340000000000
C            1.49910000000000        3.30590000000000        2.49070000000000
C            0.45360000000000        3.84140000000000        1.77560000000000
C           -2.95290000000000       -1.06060000000000        2.16670000000000
C           -2.95780000000000       -2.33180000000000        2.73470000000000
C           -1.79070000000000       -2.96320000000000        3.09110000000000
C           -0.58910000000000       -2.32110000000000        2.94190000000000
O           -4.12530000000000       -0.34340000000000        1.94780000000000
O           -3.14420000000000       -0.92390000000000       -0.53210000000000
H           -5.12530000000000        0.39240000000000       -1.81100000000000
H           -3.73960000000000        4.25900000000000       -0.96350000000000
H           -3.88530000000000       -2.84010000000000        2.93190000000000
H            0.28250000000000       -2.83120000000000        3.30810000000000
H            2.48460000000000        1.56150000000000        3.13170000000000
H            0.38070000000000        4.91290000000000        1.71570000000000
C            2.93020000000000       -1.08430000000000        1.62000000000000
C            4.26840000000000       -1.67640000000000        2.04260000000000
C           -2.39060000000000        5.86420000000000        0.82090000000000
C           -2.59940000000000        7.24520000000000        0.22180000000000
C           -5.28900000000000       -1.12660000000000        1.84250000000000
C           -3.82090000000000       -1.66600000000000       -1.51760000000000
S           -5.94780000000000        3.13450000000000       -2.45570000000000
F           -5.26410000000000        4.55460000000000       -2.26640000000000
F           -5.03840000000000        2.86880000000000       -3.73120000000000
F           -6.75380000000000        3.34260000000000       -1.10210000000000
F           -7.11270000000000        3.76370000000000       -3.32740000000000
F           -6.56590000000000        1.68040000000000       -2.59660000000000
S           -1.82950000000000       -4.71330000000000        3.82120000000000
F           -1.04360000000000       -5.19140000000000        2.52970000000000
F           -3.20740000000000       -4.93920000000000        3.07420000000000
F           -1.84270000000000       -6.16230000000000        4.44030000000000
F           -0.45920000000000       -4.38300000000000        4.53400000000000
F           -2.60540000000000       -4.12200000000000        5.06470000000000
S            2.72700000000000        4.43080000000000        3.40430000000000
F            3.80010000000000        4.06600000000000        2.29950000000000
F            2.20950000000000        5.63510000000000        2.51730000000000
F            3.71870000000000        5.35900000000000        4.20740000000000
F            1.55810000000000        4.67890000000000        4.44360000000000
F            3.16340000000000        3.16990000000000        4.25370000000000
H            1.81690000000000       -1.87790000000000        3.27720000000000
H            2.44290000000000       -0.31730000000000        3.57030000000000
H            3.08050000000000       -0.11150000000000        1.13600000000000
H            2.45490000000000       -1.71460000000000        0.85840000000000
H            4.75140000000000       -1.05380000000000        2.79910000000000
H            4.95860000000000       -1.78210000000000        1.20420000000000
H            4.13570000000000       -2.66180000000000        2.49430000000000
H           -3.44650000000000       -2.69020000000000       -1.48300000000000
H           -3.61610000000000       -1.24090000000000       -2.50140000000000
H           -4.89190000000000       -1.67020000000000       -1.31260000000000
H           -6.10540000000000       -0.47820000000000        1.51990000000000
H           -5.53170000000000       -1.56740000000000        2.80900000000000
H           -5.13110000000000       -1.90860000000000        1.09920000000000
H           -1.85110000000000        4.97200000000000       -1.07780000000000
H           -0.49260000000000        5.29480000000000       -0.06490000000000
H           -1.95000000000000        5.94800000000000        1.82320000000000
H           -3.36100000000000        5.37940000000000        0.99700000000000
H           -1.64900000000000        7.75910000000000        0.07200000000000
H           -3.21810000000000        7.87340000000000        0.86640000000000
H           -3.09500000000000        7.18390000000000       -0.74840000000000
C            0.93370000000000        2.24580000000000        5.74370000000000
C           -0.61540000000000       -4.63740000000000        7.93590000000000
C           -4.03810000000000        1.67330000000000        4.59120000000000
C           -3.68510000000000        0.47810000000000        5.21220000000000
C           -2.38230000000000        0.37360000000000        5.79980000000000
C           -1.42630000000000        1.39370000000000        5.53860000000000
C           -1.85570000000000        2.56040000000000        4.90670000000000
C           -3.14380000000000        2.70850000000000        4.46340000000000
C           -1.97160000000000       -0.78400000000000        6.55390000000000
C           -0.59290000000000       -1.11600000000000        6.52880000000000
C            0.35230000000000       -0.13940000000000        6.12490000000000
N           -0.07130000000000        1.16300000000000        5.82530000000000
C           -2.85690000000000       -1.65390000000000        7.27760000000000
C           -2.41850000000000       -2.96690000000000        7.59510000000000
N           -1.07950000000000       -3.33420000000000        7.40930000000000
C           -0.16360000000000       -2.42720000000000        6.86710000000000
C            1.15890000000000       -2.77240000000000        6.59810000000000
C            2.05850000000000       -1.84360000000000        6.12970000000000
C            1.67670000000000       -0.53190000000000        5.97720000000000
C           -4.11260000000000       -1.20850000000000        7.80840000000000
C           -4.97200000000000       -2.15620000000000        8.36150000000000
C           -4.60030000000000       -3.47210000000000        8.50840000000000
C           -3.33560000000000       -3.85850000000000        8.15010000000000
O           -4.39710000000000        0.15280000000000        7.82070000000000
O           -4.53260000000000       -0.62800000000000        5.20580000000000
H           -5.01890000000000        1.79900000000000        4.16720000000000
H           -1.17820000000000        3.37060000000000        4.71100000000000
H           -5.95310000000000       -1.86950000000000        8.69660000000000
H           -3.07070000000000       -4.88970000000000        8.29620000000000
H            1.49150000000000       -3.79080000000000        6.69410000000000
H            2.41920000000000        0.17280000000000        5.65200000000000
C           -0.84530000000000       -5.77500000000000        6.94860000000000
C           -0.66090000000000       -7.15830000000000        7.55040000000000
C            1.44350000000000        2.69370000000000        7.10430000000000
C            2.51750000000000        3.76870000000000        6.99690000000000
C           -5.46440000000000        0.54030000000000        8.65280000000000
C           -5.90470000000000       -0.32120000000000        5.12430000000000
S           -3.66880000000000        4.33960000000000        3.64910000000000
F           -3.46730000000000        5.02570000000000        5.06410000000000
F           -2.14700000000000        4.59160000000000        3.30880000000000
F           -5.16580000000000        3.98730000000000        4.02570000000000
F           -4.08150000000000        5.69850000000000        2.96620000000000
F           -3.82940000000000        3.55090000000000        2.28910000000000
S           -5.79720000000000       -4.75110000000000        9.24750000000000
F           -6.34070000000000       -4.99960000000000        7.77540000000000
F           -6.85520000000000       -3.58450000000000        9.43620000000000
F           -6.79270000000000       -5.81500000000000        9.87170000000000
F           -4.68300000000000       -5.86040000000000        9.02920000000000
F           -5.16330000000000       -4.40420000000000       10.66260000000000
S            3.81030000000000       -2.36250000000000        5.60900000000000
F            3.92590000000000       -0.99080000000000        4.83020000000000
F            4.34860000000000       -1.66780000000000        6.92540000000000
F            5.24930000000000       -2.79620000000000        5.12740000000000
F            3.59220000000000       -3.71500000000000        6.40080000000000
F            3.12620000000000       -2.99100000000000        4.32680000000000
H           -1.13530000000000       -4.83210000000000        8.87720000000000
H            0.43700000000000       -4.56900000000000        8.21940000000000
H           -0.18060000000000       -5.64580000000000        6.08410000000000
H           -1.85450000000000       -5.68060000000000        6.52370000000000
H            0.34840000000000       -7.28730000000000        7.94340000000000
H           -0.83180000000000       -7.94380000000000        6.81100000000000
H           -1.35700000000000       -7.32680000000000        8.37370000000000
H           -6.46810000000000       -1.23290000000000        5.33010000000000
H           -6.15330000000000        0.04380000000000        4.12830000000000
H           -6.14820000000000        0.43360000000000        5.87240000000000
H           -5.49790000000000        1.63060000000000        8.67140000000000
H           -5.29380000000000        0.16800000000000        9.66420000000000
H           -6.40650000000000        0.16120000000000        8.25540000000000
H            0.54050000000000        3.10170000000000        5.19870000000000
H            1.76640000000000        1.91540000000000        5.12510000000000
H            1.82980000000000        1.82350000000000        7.64890000000000
H            0.59730000000000        3.05450000000000        7.70180000000000
H            3.36940000000000        3.41490000000000        6.41170000000000
H            2.88850000000000        4.08270000000000        7.97360000000000
H            2.13670000000000        4.65330000000000        6.48190000000000
150
 energy: -332.198182317756 gnorm: 0.244867202313 xtb: 6.7.1 (43a0e4e5b5d943adc66b4aa6563d39c792f6153b)
C           -1.52603441623361        4.93515861492692       -0.03549740162138
C            1.96238002868467       -0.90746420053134        2.78083629911022
C           -4.41447506008783        1.00902755363724       -1.29599755341369
C           -3.40316810742111        0.44863360947653       -0.52355720852875
C           -2.54774593495801        1.30482498046822        0.23330471968748
C           -2.57497299739231        2.69834142310527       -0.04121350215038
C           -3.61637687727103        3.20775028509538       -0.81873479905931
C           -4.53696154237868        2.37637001973425       -1.40986656258821
C           -1.59552662620261        0.80638187003077        1.17753553709104
C           -0.49334451463708        1.63688679591742        1.50318395288086
C           -0.53486643945322        3.02764066899974        1.21141589689002
N           -1.56453253236732        3.53741947023296        0.42825300711335
C           -1.69422871707773       -0.44287779789462        1.87940834443238
C           -0.50638831375299       -1.03335996842623        2.39285502886495
N            0.68073613971280       -0.29899675410804        2.40247639345225
C            0.62824246135986        1.07529206823166        2.16595478921450
C            1.63160404706332        1.93369412468140        2.60611015004674
C            1.49485459758155        3.29922424581848        2.47844469226605
C            0.44561105325354        3.84635057976958        1.77242560273219
C           -2.94690764030820       -1.06061981165450        2.16552870682890
C           -2.96415355143968       -2.32851644074807        2.73475711982988
C           -1.78969711600047       -2.95132452220604        3.08305012795578
C           -0.58046097580230       -2.31419088997923        2.94384969089510
O           -4.10520603281739       -0.35397735296281        1.94061124014573
O           -3.14607978645943       -0.90415686651898       -0.52922878491901
H           -5.11908318110993        0.38583016788884       -1.81335958282982
H           -3.72989030586650        4.26317473021768       -0.95685736998413
H           -3.88903339714219       -2.83641367882139        2.93450247694086
H            0.29145981361956       -2.82678650061616        3.30053916931120
H            2.49223039975809        1.55081030138647        3.11744857529125
H            0.37357828918261        4.91453255648886        1.71016741740158
C            2.92556238035382       -1.07936498627115        1.60780353037567
C            4.26566190369677       -1.67336413112825        2.03656716999144
C           -2.38896748709209        5.86408755516735        0.81618096110489
C           -2.59551567679748        7.24517161927153        0.21381716085441
C           -5.28225463984704       -1.12758178895640        1.84121922985326
C           -3.81930373850358       -1.65991445894336       -1.51332572347220
S           -5.92684769098832        3.12320770323823       -2.43792060415646
F           -5.27149812389920        4.58352240703358       -2.27908706430105
F           -5.03659371645922        2.86920329391143       -3.75673125361250
F           -6.77500746681709        3.35159896477839       -1.08888537845362
F           -7.09725966137970        3.75346729627256       -3.31509391176916
F           -6.59040904142584        1.66813280018035       -2.60723150165494
S           -1.83174441589686       -4.68235153698813        3.79791177243079
F           -1.03152929926822       -5.20781574893992        2.50699131427215
F           -3.23002696074014       -4.95868052062034        3.05981765900119
F           -1.84687174173154       -6.14608340126788        4.40750310464143
F           -0.44126703957314       -4.38434725183218        4.53790487083300
F           -2.62178233493894       -4.12173420656218        5.07593257993021
S            2.71156940024329        4.41942030418372        3.37515783106329
F            3.83133460799116        4.07042508797692        2.28129105271813
F            2.21940960823258        5.67042047545768        2.50203220569670
F            3.70794541912366        5.35144977591016        4.18498270614536
F            1.54801892870490        4.70943531087601        4.44423363008021
F            3.19033374919520        3.17065861169858        4.26097242919020
H            1.79649221720301       -1.86879594990726        3.25479132053419
H            2.43177313757214       -0.30161337607217        3.55084103938611
H            3.08548933065587       -0.10638900774978        1.13512685866192
H            2.45578113096706       -1.72066813173123        0.85703225506608
H            4.75006027595057       -1.04927941381921        2.78445633438276
H            4.94863430420502       -1.77589749353445        1.19638315148753
H            4.13544541723343       -2.65821077208709        2.47762939640679
H           -3.43775106387056       -2.68102399348031       -1.47029470027825
H           -3.62225444343253       -1.24509252873593       -2.50518131418721
H           -4.89458836530606       -1.67561161731587       -1.32040041024502
H           -6.09129585857490       -0.46944106094952        1.51943380155514
H           -5.53738745999179       -1.57250427912434        2.80439310340547
H           -5.13996535333558       -1.91565608231114        1.09962870006265
H           -1.85867919907284        4.96244746596783       -1.07689734349078
H           -0.49113909272545        5.28406496583846       -0.05416527029055
H           -1.93998390333291        5.96438482913704        1.80490693683737
H           -3.35705369197460        5.38556239866088        0.97351124214234
H           -1.64539074151820        7.75743035136657        0.07132521336643
H           -3.21344732590298        7.86204470438865        0.86614405655028
H           -3.09501760275496        7.18063248534683       -0.75142934076170
C            0.92345650768577        2.23152278917901        5.75089957404935
C           -0.61901977400234       -4.62741371009849        7.93666808095374
C           -4.04242367559756        1.66774145779098        4.58979825408295
C           -3.67975979445218        0.48046154757210        5.21466132395434
C           -2.38236115753444        0.36581315114177        5.79477305942588
C           -1.42226254739082        1.38210566731342        5.53059838641060
C           -1.84504606358662        2.55726104183308        4.90714916867656
C           -3.14048254461139        2.69763667171459        4.47158892840317
C           -1.97638036714138       -0.78329509918383        6.55503742372069
C           -0.59785126472128       -1.11641730273713        6.52629363072225
C            0.34535317837720       -0.13897120355666        6.11733435205620
N           -0.07759454065321        1.15965127361593        5.83270656642966
C           -2.85228510328116       -1.64825633696676        7.28460404497006
C           -2.40944683740594       -2.96021512114745        7.60240128954431
N           -1.07816936796584       -3.32958462595851        7.41218035183937
C           -0.16992397933033       -2.42816334060475        6.86837244619547
C            1.15319234844857       -2.78009049948882        6.59960537207177
C            2.04905674715723       -1.83963255464091        6.13969165537978
C            1.67535920639185       -0.52339626213463        5.97476985770165
C           -4.10837806971468       -1.21445489660970        7.80566930830503
C           -4.97274196507928       -2.15009790762634        8.36345535469956
C           -4.59249958039070       -3.46716250713699        8.49927926696536
C           -3.32306259460439       -3.86162371689396        8.15121280275033
O           -4.39000660212238        0.13416006511920        7.81873755939091
O           -4.51963501209830       -0.61109311085754        5.21755557086975
H           -5.02054418165884        1.79374589402702        4.16460695430494
H           -1.17003046527671        3.36940569180865        4.72091907280973
H           -5.95097285194598       -1.86094846057491        8.69773811422560
H           -3.05774625699760       -4.88864622872482        8.29473420573230
H            1.48448484696227       -3.79526491784994        6.69781181490198
H            2.41810348312711        0.18505985136694        5.66670648197913
C           -0.84508894714163       -5.77458847426181        6.95370675307132
C           -0.65927301627479       -7.15720868590288        7.55909900775713
C            1.43830777132859        2.68675508758784        7.11515714952449
C            2.51465186323920        3.76450863640746        7.00239915716245
C           -5.45968511244782        0.53526695260666        8.64911360406537
C           -5.89936563038617       -0.31753913245006        5.12674494288120
S           -3.66482029374404        4.30942489852531        3.67242315839820
F           -3.46826779352591        5.04440111170426        5.08798584551132
F           -2.13089833243548        4.60019550751491        3.30880995528825
F           -5.19699346512942        3.99639483202209        4.03277182432894
F           -4.08717729144957        5.68084751701687        2.99784426364115
F           -3.84109518571457        3.54557622008358        2.27379641605279
S           -5.77926027368703       -4.73205827343815        9.23383092254776
F           -6.35799269339681       -5.01210221400364        7.75815951268385
F           -6.88246514705086       -3.58177213178020        9.44750619280406
F           -6.78019006339468       -5.79924530183582        9.86260223972194
F           -4.68344966261869       -5.89220703441786        9.03533496306837
F           -5.16337047682960       -4.40861288602649       10.68736611157065
S            3.78506434104159       -2.35960570827415        5.63270718078182
F            3.95241299567344       -0.98113714456355        4.82976576429545
F            4.37332079506272       -1.66094948640583        6.95106110593677
F            5.23132356256961       -2.79481469687491        5.14616669695204
F            3.61079269411936       -3.74460953034729        6.42003719717972
F            3.12925169810276       -3.02345115771421        4.32543031111733
H           -1.14561878368220       -4.82606360005514        8.87429030485072
H            0.43653167009363       -4.55812094694934        8.20858232679064
H           -0.16984639500138       -5.65796221756964        6.10552039003730
H           -1.85441669171138       -5.68651377891970        6.54787815680510
H            0.35086674303742       -7.28441848054021        7.94489005159497
H           -0.83181284755055       -7.93155975433946        6.81177911300560
H           -1.35901827190709       -7.32402058552907        8.37636897669513
H           -6.45244617915865       -1.23580440249289        5.33238681126784
H           -6.16096712302282        0.04565249666785        4.13135891376399
H           -6.15916390543136        0.43741525071784        5.87019176777662
H           -5.48403012445887        1.62586477419908        8.66079206982812
H           -5.30165835670515        0.16925144913703        9.66675101526628
H           -6.41206692548146        0.16496218931125        8.26222002867081
H            0.52025584045997        3.08450850317723        5.21575841165485
H            1.75764975974369        1.89603187664198        5.14087204046442
H            1.83609698663216        1.82063189005118        7.65111116676116
H            0.59547035194067        3.06047467688794        7.70306016562807
H            3.36628080823224        3.40944102467836        6.42624623114048
H            2.88000998029656        4.07292675783200        7.97916219381407
H            2.13372796896453        4.64889072225607        6.49817433967726
150
 energy: -332.274483427128 gnorm: 0.081674717334 xtb: 6.7.1 (43a0e4e5b5d943adc66b4aa6563d39c792f6153b)
C           -1.52323242726666        4.92496113100847       -0.03735102599854
C            1.95118089940745       -0.89966724798058        2.77479964416599
C           -4.41494563261680        1.00348882301099       -1.30148696362135
C           -3.40188205623501        0.45339840538695       -0.52390962094809
C           -2.54222093465901        1.30211447202033        0.22862981022664
C           -2.56491887768656        2.69796639625291       -0.04404397515386
C           -3.60804912597535        3.21753502452454       -0.81887312753652
C           -4.52564743027311        2.37285573657098       -1.39665205715543
C           -1.59987325123505        0.80433631987553        1.17615959345961
C           -0.49794320380316        1.63710067384759        1.50606749095741
C           -0.54222052613236        3.02752468949373        1.20805214722570
N           -1.56092748708977        3.53438429217912        0.42508512498572
C           -1.69839550523859       -0.43657952545760        1.88450208749735
C           -0.50688775330454       -1.02217017779408        2.40038081972473
N            0.67741650646894       -0.29870464150806        2.39316784712885
C            0.62158226317127        1.07283985039963        2.17190110739324
C            1.63520197806520        1.92687481831158        2.60913369709755
C            1.48477330266185        3.28917358613967        2.46407181406037
C            0.43844148942423        3.85364141705922        1.76983843737701
C           -2.94440869082171       -1.05964672897719        2.16569576805080
C           -2.97284835828613       -2.32835734616703        2.73571762150453
C           -1.78894873576144       -2.93501730386254        3.07309829340435
C           -0.57114662266951       -2.30921926954514        2.94595665621357
O           -4.08526693085177       -0.36728089939582        1.93340224004128
O           -3.14938821105358       -0.88324338442974       -0.52897538779687
H           -5.11758983508879        0.38315783190994       -1.81839693133074
H           -3.72738798676341        4.26884322561277       -0.95368475607315
H           -3.89203076020778       -2.83869060659174        2.93734297329831
H            0.29710263901205       -2.82777172857493        3.29409196159818
H            2.50254987070355        1.54787263028022        3.10589855752208
H            0.37035656412131        4.91872663393854        1.70934727055200
C            2.92079806912930       -1.07381710624855        1.59489944821756
C            4.26302240348969       -1.67042084013130        2.03081929732282
C           -2.38938115820594        5.86243074446650        0.81523328004453
C           -2.59141983773748        7.24467415891496        0.20417152433658
C           -5.27835837410677       -1.12838960477334        1.83933711819212
C           -3.81793092850845       -1.65635431597314       -1.50994051217130
S           -5.89081381474817        3.10469806402440       -2.40752559602405
F           -5.27784560853669        4.62506969514533       -2.29372302560232
F           -5.03027379690736        2.86876993506470       -3.79247652058171
F           -6.80547738526489        3.36320042758656       -1.06767325578161
F           -7.07344860608361        3.73911333342800       -3.29697271207660
F           -6.62375967907341        1.64810478846708       -2.62196313238445
S           -1.83234243140139       -4.63206181087438        3.76835035989168
F           -1.01156908724689       -5.23515159944547        2.48019901472396
F           -3.26233731814313       -4.98601259376670        3.04553630236988
F           -1.85171663844456       -6.12080029637826        4.37410202737800
F           -0.40960748056248       -4.38712149877737        4.55163080056255
F           -2.64422165506819       -4.11845204326929        5.10093958914281
S            2.68060348928240        4.39311172243274        3.33703566854708
F            3.87205277496358        4.07389176132531        2.25967132055377
F            2.22825426494133        5.71522029193880        2.48547070417961
F            3.68814111985406        5.33487692180845        4.16047673210966
F            1.52641257351548        4.74557744284151        4.45396911289430
F            3.22734938417665        3.16069328089396        4.27485073672120
H            1.78755838987277       -1.86393034645240        3.23570726678971
H            2.42735746749418       -0.29262486590263        3.53698927500853
H            3.08898569781563       -0.10198292043948        1.13232978030156
H            2.45600813911669       -1.72448076081546        0.85513646358502
H            4.74734374650044       -1.04476602165155        2.77124285997762
H            4.93811161910861       -1.76905123997541        1.18605470892844
H            4.13253674852973       -2.65385140958582        2.46458461415553
H           -3.42696317078589       -2.67232950493346       -1.45579841261771
H           -3.62702762655235       -1.24975054544808       -2.50791571282476
H           -4.89630664648948       -1.68159932599936       -1.32654070774684
H           -6.07660075152437       -0.45826313446596        1.51846721591168
H           -5.54269537654396       -1.57507764662604        2.80020762170024
H           -5.14869438055367       -1.92177786852439        1.09975173121176
H           -1.86220782372311        4.95425474925827       -1.07622292646970
H           -0.48947204046014        5.27440907068368       -0.04793039633971
H           -1.93310842806103        5.97796600928992        1.79082568439897
H           -3.35615457629540        5.39288542119104        0.96169560675783
H           -1.64207244421234        7.75565168407520        0.06869570912390
H           -3.20835263843102        7.85051840098336        0.86471042132254
H           -3.09437007097176        7.17893770225594       -0.75618572156960
C            0.91490897429864        2.21974025105541        5.75423338085271
C           -0.62086043334917       -4.61720114049239        7.93869450193630
C           -4.04988739788903        1.66429143466887        4.58693590145240
C           -3.67700410716241        0.48064399450175        5.21531442818605
C           -2.38279697751534        0.35843833384545        5.78955653122576