116
 energy: -22.928061455056 gnorm: 0.329736929581 xtb: 6.6.1 (8d0f1dd)
C           -3.31122850772930        0.79849766164622       -0.92477639677520
C           -2.44380812530352       -0.12270372891954       -0.27661132624697
C           -1.41337090092821        0.39579727573559        0.56335275196199
C           -0.89266158675590        1.65801491088749        0.27377586709581
C           -1.72665675402493        2.51431363229076       -0.49448366572522
C           -2.95444148494349        2.13954154133227       -1.01494489940871
C           -0.74098268209890       -0.43411532818871        1.49825021926784
C            0.56872586496315        0.03782116815119        1.86248088067890
C            1.03782416582094        1.29402317993033        1.50887470833621
N            0.31238977034758        2.07067427098208        0.65193736800696
C           -1.29695700510141       -1.39996043042223        2.41574187746061
C           -0.38243517664656       -2.18060797534842        3.13232615520648
N            0.91308504082021       -1.90366887689689        3.30325166013478
C            1.37712470144904       -0.74872102533751        2.81811050966982
C            2.52149331701875       -0.17739833758153        3.39379298866852
C            2.95849061756259        1.02681208890480        2.95105897606587
C            2.24288949469137        1.78498308775960        2.03503020483770
C           -2.74860936222260       -1.74497937691422        2.38401158947411
C           -3.09416315450955       -2.91614440870436        3.00571134491758
C           -2.16786021984049       -3.77788778654213        3.63251872101904
C           -0.85708937311598       -3.40495313382985        3.68547234358092
O           -3.71994433332149       -0.94984598373544        1.67726658385724
O           -2.55702603277562       -1.47241711578389       -0.57241635275616
C           -3.84297843593025        3.13357444054366       -1.60938954875544
C           -2.68769581069131       -5.03867041417370        4.30484659386931
H           -1.39666850744143        3.51251503834900       -0.76806311868865
H           -4.27662633836220        0.55105838579656       -1.33106614114542
H            2.66329581305412        2.73912661909249        1.72562431984580
H            3.05775395548473       -0.69369546277216        4.16536137542516
H           -0.24710966264510       -4.12034095424229        4.22946223699121
H           -4.11477991332403       -3.04712728052358        3.03244694615357
O           -4.21824883374556        4.03433712717988       -0.87713382485991
O           -4.44510595673734        2.90643496899600       -2.81853501752979
C           -5.44216520282800        3.83300025693726       -3.02488532025093
C            4.23586651889298        1.50004220933226        3.59165660008449
O            5.05927614697201        0.66079890002952        3.91714215179376
O            4.47001334453535        2.86385149488593        3.72605651435371
C            5.79457498613219        3.08584475587818        4.15829123132174
O           -3.82227255313510       -5.27347675879771        4.16636005494405
O           -1.85023202017753       -5.79767454267276        5.06656077253571
C           -2.55119635829503       -6.86252441382958        5.62930343183426
C           -5.07197156564436       -1.42399175670916        1.58830531863830
C           -1.33089900128490       -2.23622472573986       -0.99264499351172
H           -2.54510546830388       -7.76426885143998        4.99136022291012
H           -3.57194749219491       -6.44405511486021        5.74196173723541
H           -2.09133598235598       -7.02043774843818        6.64022264233588
H            5.72707967266424        3.46798026205549        5.10135971236643
H            6.34060091246885        3.78468702308830        3.50069950143490
H            6.17933064298187        2.03010500085905        4.19342358084693
H           -0.91862729772622       -2.57650129080332       -0.01361370304871
H           -0.49769766914251       -1.60651221708571       -1.34094446550576
H           -1.52632419730509       -2.94569707152159       -1.75361447637286
H           -5.11788846557077       -2.41810833635233        1.17520213188926
H           -5.67929807973498       -0.69619639428435        1.04301666067831
H           -5.57598832326623       -1.42383358739762        2.57928294206544
H           -6.13050215934830        3.76035386975488       -2.23272855695873
H           -5.86615610071888        3.45938329385866       -4.02668959924245
H           -5.13479557532099        4.87790991548477       -2.98314551356402
C           -1.38192942069774        3.73616555005018        2.91232598411686
C           -1.84821468128685        2.59982427735607        3.49755545445181
C           -1.05946531454833        2.05730632010638        4.60922730982276
C            0.19893954712228        2.69376791964407        4.86302140881997
C            0.50425395911860        3.94630308659851        4.28768785650746
C           -0.26031777722226        4.46998310053134        3.25072669343212
C           -1.20488993561782        0.74454293276906        5.14851520323437
C           -0.06287609782692        0.02744069315890        5.60930570802864
C            1.19208754369866        0.71421540266195        5.78882868583885
N            1.19428660993148        2.06344359410476        5.62744624321596
C           -2.41361422770794        0.07928500213936        5.25249410304426
C           -2.45851584031083       -1.32662100968547        5.60237876023992
N           -1.29466212405906       -1.98318595734370        5.89916817085159
C           -0.14475655767527       -1.32117560077092        5.98824682881008
C            0.97209270935794       -1.98958449505532        6.53157704134458
C            2.21982707914082       -1.36973967291181        6.68703967237737
C            2.30561929262884       -0.09745313075593        6.26436900324455
C           -3.73018485967715        0.71367583494582        5.25810242262992
C           -4.89964478833448       -0.06184623426677        5.21204641615509
C           -4.82617965800088       -1.39228978090841        5.46901303780036
C           -3.67144193418464       -1.98914944386360        5.67265433266067
O           -3.75568638935321        2.07705011038914        5.52067969627343
O           -2.94192434743730        1.91263938797883        3.01658762327703
C            0.21273512614467        5.50086066357994        2.34765104514621
C           -6.06660304520411       -2.17604633098929        5.80641622556876
H            1.41756699010566        4.38133362238595        4.66974005703471
H           -1.82880610647429        4.11982501512100        2.06992133318584
H            3.26888037378556        0.32655662585251        6.31721410015598
H            0.87146188387207       -3.08471526305024        6.57830423410869
H           -3.67716811065157       -3.05999292755990        5.83019634570050
H           -5.77379677507622        0.43595144608221        4.71017130754348
O            1.34459852619901        5.82615848916894        2.44941456579099
O           -0.74718748219123        6.07961784856304        1.59848183464284
C           -0.21473095568964        7.24015934882472        1.05753806029483
C            3.53228080814219       -2.00967610361154        7.02506769044485
O            3.64093082622715       -3.14437803815732        7.50071391725347
O            4.56565258381079       -1.22937033368332        6.69086985080897
C            5.72579357310716       -1.80692399125161        7.22246151275881
O           -7.04801223588612       -1.95726935745904        5.14194115322235
O           -6.01514389321278       -2.93743591896022        6.94765316328794
C           -7.21292732384718       -3.62681918543340        7.15115816329978
C           -4.95459780685163        2.65960679932188        5.86868674392943
C           -3.68284113682406        2.59129188358641        2.05479246020704
H           -7.43119628931628       -4.22607794725959        6.20622607140901
H           -8.06548455146707       -2.91765848248592        7.29781126410398
H           -7.07314693247270       -4.33087306029711        7.91223421050944
H            6.57332189837178       -1.29353136199234        6.78341268688262
H            5.74663761932316       -2.84282155125561        6.88089468184451
H            5.69426191474290       -1.72781984964892        8.29460302186842
H           -4.10481209541493        3.44288266176275        2.60483747673152
H           -4.49244774344916        1.87419893016926        1.82433103764650
H           -3.18901540870812        2.85154642679373        1.06781919454921
H           -5.55414326821421        2.76698137191684        4.93950725322359
H           -4.78658370641210        3.62090640967288        6.25983200635257
H           -5.43485580473958        1.97242995129449        6.65265772412460
H            0.89164886030839        7.38838561720231        1.13776105146914
H           -0.62894889903848        8.04195665205089        1.64837664327952
H           -0.59282546386754        7.45699159724320        0.03719083132488
116
 energy: -22.516126346102 gnorm: 0.605666651705 xtb: 6.6.1 (8d0f1dd)
C           -3.64381457872465        0.23778718996810       -1.81535970405295
C           -3.05514139871757       -0.68249886877905       -0.84586070073712
C           -2.07693879114322       -0.14906325792850        0.13870391366840
C           -1.32758537282479        1.00931195664784       -0.24449435378738
C           -1.99161785655736        1.89200402395541       -1.20663711856259
C           -3.09674395181644        1.51998671801380       -2.00928177988719
C           -1.35780211259386       -1.02242599148945        1.14692387963167
C           -0.09315770501184       -0.51662844667415        1.60390351610037
C            0.47270356695289        0.80693759764762        1.37198803630561
N           -0.33347276511999        1.59678540379269        0.51921189603671
C           -1.75351405662105       -2.19278089565444        1.96134897416650
C           -0.91182695057451       -2.99647059727909        2.84066761505982
N            0.32957439070693       -2.57292907022244        3.04379252598889
C            0.66691962132083       -1.35236385412330        2.56785474938011
C            1.94320717099434       -0.92138906816450        2.72226772634901
C            2.72180463286012        0.12547107761687        2.33302317532255
C            1.81395552720252        1.06517784756786        1.72419606495683
C           -3.14203154315939       -2.48209423939682        2.27704733310504
C           -3.52111461931910       -3.85649795088996        2.58299494462270
C           -2.59042408815514       -4.61663559857437        3.19787140308864
C           -1.39431662602848       -4.10964119617414        3.33192861917196
O           -3.89968379325848       -1.39576788227856        2.14121259961773
O           -3.22020721859160       -2.11182742929199       -0.66967632965119
C           -3.38902142774858        2.39378548639115       -3.11655302624936
C           -2.88211564846541       -5.98410299853856        3.60423255803841
H           -1.57216135207921        2.83022253108785       -1.45907529515773
H           -4.29298537122574       -0.36401934707840       -2.58919448064246
H            2.21435330523016        2.05074601071974        1.77797614960312
H            2.45074352731604       -1.36027379227124        3.65527660363337
H           -0.41942048066235       -4.70154114186438        3.68905967378407
H           -4.54001462455538       -4.02590236198637        2.46348415429159
O           -2.83120844554597        3.52262128542280       -2.98596224302573
O           -4.27441258566854        1.89599266150927       -4.04666557199443
C           -4.71154006491086        3.00756201538382       -4.82190290738150
C            4.15143325287978        0.49358659838032        2.59582412463494
O            4.95007325270629       -0.39964964037056        2.99415943450851
O            4.64717845318981        1.73852687688674        2.19594943950792
C            5.86383055858754        1.92465177882072        2.76711303678504
O           -3.80913805145369       -6.56621749564109        2.93595758012833
O           -2.17494307935035       -6.33303090215710        4.66196339539378
C           -2.83994952156532       -7.45883829251021        5.15294975704618
C           -5.26239718237013       -1.70058466981249        2.22475378622675
C           -2.36194733386930       -3.10262431314756       -1.34846566062338
H           -2.81541895529951       -7.72254452246272        6.11956660500008
H           -2.06920852627364       -8.29753939650600        4.96260668898580
H           -3.51732093113152       -7.94715950597620        4.41860292257587
H            6.53007301834633        1.90853816126984        1.99638330139768
H            6.24742988215067        0.82398586965162        3.03792051889619
H            6.31686576283645        2.62599225144022        3.55370963045855
H           -2.96976584935936       -4.10892461727615       -1.77449061070590
H           -2.06627481193055       -3.36659095466882       -0.27615202991824
H           -1.55123942662224       -2.69239534698634       -1.90083739432405
H           -5.90167420766464       -0.88873395573466        2.49833033561054
H           -5.31098501842342       -2.39390265415431        3.11526989879603
H           -5.65554025411658       -1.87960675613587        1.26746978447308
H           -4.59246052675426        3.88092519547973       -4.27870807750201
H           -5.77914370009284        2.96552703882664       -5.02785959852405
H           -4.03192032626916        3.04867146053595       -5.77518761996241
C           -1.99597039647137        4.54116031068370        4.24535949975118
C           -1.73603412955570        3.09676533598175        4.37158921913357
C           -0.86031498614135        2.74246081801892        5.51365525499478
C            0.34145499574044        3.46531686478070        5.66497559685629
C            0.21564000143519        4.74679865413424        5.26875116250407
C           -0.96216485390927        5.31272103028650        4.86149978077641
C           -0.72106437833871        1.34307060046417        5.80190893011448
C            0.56307902300209        0.78847584886916        5.98221013428406
C            1.69048075107176        1.55062818453330        6.11936230018707
N            1.53805101826625        2.87668586171580        6.07424305699290
C           -1.91686817066704        0.52056525564166        5.78465388768058
C           -1.78874707437146       -0.88489771900731        5.63484405088992
N           -0.50084797795721       -1.37248030887678        5.53132674319206
C            0.58499966757278       -0.68394151397111        5.83611264852596
C            1.87475172356476       -1.22951373482613        6.00156001640089
C            2.95652456571247       -0.49861356988944        6.65386306975489
C            2.94976194173129        0.90951943163908        6.53140356166480
C           -3.16546331202093        1.19681675166606        5.88159166916053
C           -4.37187648352966        0.53707090840116        5.67274892618556
C           -4.27724222446576       -0.86151860677540        5.58655812111424
C           -3.04709907247319       -1.63513655279809        5.55210641373259
O           -3.13122712665650        2.34471927809068        6.64835784732938
O           -2.02469348962760        2.10775941878873        3.45708647411281
C           -0.86884622937446        6.73552524005115        4.31423650354949
C           -5.64019933918102       -1.40836060865746        5.67080403492846
H            0.96660056702926        5.47131257341012        5.42093448802190
H           -2.42889351707036        4.99712003929364        3.42002503311147
H            3.75363715089900        1.43087356954178        6.91968860807232
H            1.99392421303701       -2.25339488043797        5.80974349917035
H           -3.07452829136800       -2.57475141719143        5.16576568619693
H           -5.22709775419671        0.90903730060048        6.04970185468129
O           -1.99578136140053        7.30793550886587        4.25587062262370
O            0.21755778278109        7.17183871810502        3.72941160760580
C           -0.16973971517449        8.49493558033276        3.11886490611390
C            4.08245828763309       -1.04973349960942        7.54667518887276
O            4.18937442765613       -2.23504267678171        7.70517444792700
O            4.92169405684049       -0.11300748116969        8.23419340970802
C            5.85653818381445       -0.86340433536596        8.98261774160149
O           -5.77198642937847       -2.52146443813890        6.23556595045137
O           -6.61754571357124       -0.73056903405514        4.95503202689610
C           -7.72478961099325       -1.68163036392614        4.93692514361889
C           -4.02076727030356        2.70225341359924        7.77295314123271
C           -3.30684633591223        2.18200488880827        2.82726451896974
H           -7.39333263111228       -2.88402354816973        4.82684100710886
H           -8.25062294155605       -1.43345539147157        4.08220888821661
H           -8.46701344617144       -1.78716931673638        5.72143647453861
H            5.69062433511254       -1.88582837431793        9.18549396346662
H            5.92403292936195       -0.46588440195420        9.93263159118281
H            6.88077705457121       -0.55205211881987        8.46208436080294
H           -3.69467461073177        1.67491177275340        1.92629172297888
H           -3.35635457937376        3.38222321819198        2.58943874758897
H           -4.11913098419138        1.98255801404485        3.72966412171452
H           -3.53820112253314        3.67740979747281        8.27610381853716
H           -4.23386452569686        1.78809794005519        8.46484368661504
H           -4.88267675493781        3.24826465729337        7.32218370428971
H            0.03295770583375        9.15520126562123        4.02140973828281
H           -1.24808604625596        8.48859764210920        2.79876174366310
H            0.46790270199507        8.74814902388903        2.33281360778517
116
 energy: -22.530156571879 gnorm: 0.619688836765 xtb: 6.6.1 (8d0f1dd)
C           -3.11251168974065       -0.40093589602763       -1.78897224879402
C           -2.51235501781923       -1.22867439585482       -0.81913506207759
C           -1.49455275422645       -0.58578584891430       -0.02658962009687
C           -0.89070667326906        0.61175080077298       -0.42244633915262
C           -1.30921666162764        1.12444714820713       -1.70760821854680
C           -2.56585380862704        0.76881745988573       -2.15185706023676
C           -1.34241374115947       -0.97668470219155        1.31375704629842
C           -0.15543805030216       -0.55231839078622        1.98386032095308
C            0.54805390661170        0.66853039281003        1.51889491499114
N            0.03208313969490        1.21334963720276        0.40516768779971
C           -2.10452838998019       -1.85641929947711        2.14808119122536
C           -1.31193138841634       -2.50160949230127        3.17063153196004
N           -0.01540236150176       -2.38845642658230        3.44943815202173
C            0.61198126488130       -1.37608885206821        2.92159719482681
C            1.88886697170442       -0.95270354514951        3.27821180760061
C            2.51501068967415        0.24445160787040        2.93754850125079
C            1.82491269612729        1.01155722233672        2.11460459508262
C           -3.45332262380239       -2.36556933253978        2.01484384932228
C           -3.94311772012406       -3.59248520653744        2.56713896631797
C           -3.10778219601308       -4.30948948095490        3.35927573757907
C           -1.87024006996846       -3.77991769166525        3.65327053027432
O           -4.07663277986399       -1.39173888123891        1.14188065219996
O           -3.21940858269031       -2.54273113871792       -0.77267240853547
C           -3.40993015517314        1.60302275819454       -3.18785777795929
C           -3.51212887935813       -5.81316791574405        3.59921512363925
H           -0.78775109787210        1.72145749289905       -2.46566525588488
H           -3.97514187065241       -0.82849593882747       -2.45259668436239
H            2.29075216877964        1.98251559825737        1.75902205916622
H            2.35136882826755       -1.84087797854940        3.88567817547625
H           -1.25224356573674       -4.53208338635267        4.36094044219962
H           -4.82958881658999       -4.11428577201591        2.40157967137498
O           -3.68960612450038        2.75272548400650       -3.32697736263518
O           -4.02052413105862        0.85362041576619       -4.18006286223221
C           -5.02712300722366        1.75744687377112       -4.93457176019708
C            3.71577234858408        0.58425249981139        3.41375610478457
O            4.14175624111018        0.06250914552470        4.40555145563961
O            4.40185184876644        1.47334305662402        2.65626037681805
C            5.65771777361929        1.67152086304881        3.24486169675643
O           -4.67067448319401       -6.18672059551732        3.56955488593921
O           -2.49806646915339       -6.83771625242432        3.84052115369571
C           -3.00408229507302       -8.10808054257768        3.49829288551462
C           -5.39594932085302       -1.80971753854691        0.92622125644186
C           -2.55618629708825       -3.72495286824624       -1.40000163344671
H           -2.96783837058539       -8.23830189986415        2.54892262759472
H           -3.82746019270385       -8.22859408850941        4.35703598662448
H           -2.19456286743318       -8.74319008134057        3.88128125215373
H            5.61765805048065        1.60101411486393        4.27013165563995
H            6.10281600129635        2.55626365350626        2.88705380740908
H            6.26336925876017        0.80507371912211        2.71685124593875
H           -2.42557873342360       -4.50865573633251       -0.71987863560743
H           -1.53441603037197       -3.72269708292508       -1.86080292137968
H           -3.15814711212027       -4.29254925086110       -2.25758575548077
H           -5.91021319958101       -1.55864481753681        1.86570877632454
H           -5.41211843200922       -2.90370249438070        0.93411982567481
H           -6.18716799817711       -1.18479204899359        0.31305481843541
H           -6.02435711421900        1.78120582561057       -4.56102182713787
H           -5.30866396513859        1.53423942883302       -5.97133013936378
H           -4.43043735123692        2.78664819652268       -4.94927881096848
C           -1.64411245096562        5.22093898935205        3.92875871913708
C           -1.69583342713717        3.82231092361850        3.98518274796643
C           -0.73581346790006        3.01435597870467        4.75801736446263
C            0.49973503808527        3.67780604786530        5.09677389840467
C            0.60153792432559        5.12359144254285        5.02080042285459
C           -0.46456134199287        5.82451869116609        4.44697680521777
C           -0.78797118067742        1.59312771385521        5.11746416691103
C            0.40699610306840        0.97579566154494        5.52354554974607
C            1.61693351284588        1.80307645980713        5.82319600549945
N            1.56823007607115        3.17664439069732        5.60741549030785
C           -1.87519861399811        0.77742993956398        5.21535642018786
C           -1.77964003554713       -0.60716517071336        5.52984089323138
N           -0.59793366725377       -1.24795733778134        5.98184521905330
C            0.36021257565590       -0.39755113914341        6.15250308819926
C            1.45780503767185       -0.99187681684028        6.79761727655548
C            2.62345875948378       -0.22254136596693        7.05695869418634
C            2.69940414358364        1.17211819209418        6.38919867210663
C           -3.20673754316119        1.35199821402838        5.30428397785613
C           -4.30932148237136        0.41962541732893        5.15022243871287
C           -4.15314696949247       -0.93905397113944        5.37603947042322
C           -3.02492194170101       -1.34928018090755        5.75697718623660
O           -3.61077893012664        2.62882383252612        5.95339519562643
O           -2.72315149086171        3.12997662801378        3.38008120425836
C           -0.40506341619499        7.29734442732837        4.80332662036006
C           -5.28823005388423       -1.95207651580854        5.52903356003252
H            1.55538827726260        5.72527261351542        5.15181326172217
H           -2.50836498479025        5.86014021290993        4.08300097494972
H            3.60400449081706        1.66521813342694        6.63362956769903
H            1.64123003967101       -2.10323222976371        6.88891094129749
H           -2.79224983718983       -2.35980850646329        5.97248643799563
H           -5.21397373996980        0.67913366760747        5.58386722159843
O           -0.56795965310900        8.12368617097952        3.98034947346489
O           -0.15961626215622        7.47018194827386        6.21512571357349
C            0.20316746504121        8.72278093761435        6.51741708529973
C            3.89876616382079       -0.65958648304506        7.58406895914036
O            3.94897771692099       -1.74839164890773        8.22431437884524
O            4.94685232402434        0.17823917513786        7.15056608880009
C            6.26304446602387       -0.54566129104752        7.33435953294829
O           -4.88068416688090       -3.08670842340750        5.36652233238052
O           -6.62715136104472       -1.72060206523036        5.90543182958901
C           -7.18199133537627       -2.99662737607858        6.23984137953710
C           -2.79932246179635        3.32845463913986        6.85329925509842
C           -3.65469986474900        3.87553742363351        2.83126987054543
H           -6.62305104461190       -3.66568962004316        5.56090145186610
H           -8.15635186512939       -3.12994356828392        5.86773288461116
H           -7.09131280428090       -3.46375631018291        7.29423031966201
H            7.39001489175740       -0.11240564694977        7.46945804286897
H            6.46754689148693       -1.14389201136036        6.48132017401238
H            6.06090031228788       -1.19761720191831        8.08831394696829
H           -4.37891851795991        3.14519704723580        2.30908931830609
H           -3.49336712161717        4.64173226100168        2.12294339509683
H           -4.23276203170790        4.35343318677739        3.80663985981349
H           -2.33479694284415        2.55212321843929        7.41819496397733
H           -3.41696991288176        3.96982899471685        7.42108957460724
H           -1.91004947197448        4.00630855759810        6.33548104196634
H           -0.62142828404832        9.37259344000652        6.85024651917880
H            0.63387134588353        9.26765370956265        5.60718454797351
H            0.96268203546042        8.52196214749070        7.40822246712790
116
 energy: -22.600434425841 gnorm: 0.551712090136 xtb: 6.6.1 (8d0f1dd)
C           -3.67288823149989       -0.31664350402733       -1.94728895517156
C           -3.05168552418425       -1.27211978176079       -1.13340521511699
C           -2.12282553664495       -0.67057705559377       -0.16561787917303
C           -1.72808813606772        0.71672352999201       -0.29318245353542
C           -2.02471329938556        1.36196527552767       -1.41850430310331
C           -2.96851275705564        0.85533132657284       -2.26902479438546
C           -1.59874797899935       -1.42363009580754        0.98934208251788
C           -0.39032932241616       -1.03108462209916        1.62767691276532
C            0.10797792390200        0.31968851581922        1.08481513107058
N           -0.54626001362184        1.21803723111900        0.26350805496994
C           -2.00315688152693       -2.63096210031994        1.58948705393841
C           -1.17214431255514       -3.26189722942249        2.56047906967420
N            0.20206485433760       -3.06631213235341        2.52046023630625
C            0.63602981469299       -1.86448473562892        2.21555504037880
C            1.92041121217971       -1.37895099385899        2.61395524902814
C            2.18419151567062       -0.03689265079302        2.32102566664479
C            1.38740486018196        0.64549755493800        1.48318761578554
C           -3.38070275959475       -3.23989776424923        1.50732134078334
C           -3.67664661386930       -4.54942124182647        2.11551366146559
C           -2.74005692963105       -5.09016563584103        2.97253007282477
C           -1.63187214515820       -4.38277204676958        3.21660813385221
O           -4.46718615090965       -2.51310229504022        1.03703201793678
O           -3.31887260918817       -2.68899910692822       -1.16112458414260
C           -3.76841836178342        1.70383193983686       -3.31981464304858
C           -2.98190333754741       -6.42839269212553        3.59251532156658
H           -1.81760955990311        2.34224774386419       -1.58225404234628
H           -4.62051199787992       -0.54761621391452       -2.54273266407269
H            1.79759561303020        1.53571152954189        1.01812433735109
H            2.82887423227056       -2.10156655834186        2.80502134196406
H           -0.93767810689068       -4.62074973938729        3.97233480797171
H           -4.27477174531624       -5.18399208146619        1.48468425355291
O           -4.18246918399282        2.72009545654523       -2.78330162250269