116
 energy: -22.928061455056 gnorm: 0.329736929581 xtb: 6.6.1 (8d0f1dd)
C           -3.31122850772930        0.79849766164622       -0.92477639677520
C           -2.44380812530352       -0.12270372891954       -0.27661132624697
C           -1.41337090092821        0.39579727573559        0.56335275196199
C           -0.89266158675590        1.65801491088749        0.27377586709581
C           -1.72665675402493        2.51431363229076       -0.49448366572522
C           -2.95444148494349        2.13954154133227       -1.01494489940871
C           -0.74098268209890       -0.43411532818871        1.49825021926784
C            0.56872586496315        0.03782116815119        1.86248088067890
C            1.03782416582094        1.29402317993033        1.50887470833621
N            0.31238977034758        2.07067427098208        0.65193736800696
C           -1.29695700510141       -1.39996043042223        2.41574187746061
C           -0.38243517664656       -2.18060797534842        3.13232615520648
N            0.91308504082021       -1.90366887689689        3.30325166013478
C            1.37712470144904       -0.74872102533751        2.81811050966982
C            2.52149331701875       -0.17739833758153        3.39379298866852
C            2.95849061756259        1.02681208890480        2.95105897606587
C            2.24288949469137        1.78498308775960        2.03503020483770
C           -2.74860936222260       -1.74497937691422        2.38401158947411
C           -3.09416315450955       -2.91614440870436        3.00571134491758
C           -2.16786021984049       -3.77788778654213        3.63251872101904
C           -0.85708937311598       -3.40495313382985        3.68547234358092
O           -3.71994433332149       -0.94984598373544        1.67726658385724
O           -2.55702603277562       -1.47241711578389       -0.57241635275616
C           -3.84297843593025        3.13357444054366       -1.60938954875544
C           -2.68769581069131       -5.03867041417370        4.30484659386931
H           -1.39666850744143        3.51251503834900       -0.76806311868865
H           -4.27662633836220        0.55105838579656       -1.33106614114542
H            2.66329581305412        2.73912661909249        1.72562431984580
H            3.05775395548473       -0.69369546277216        4.16536137542516
H           -0.24710966264510       -4.12034095424229        4.22946223699121
H           -4.11477991332403       -3.04712728052358        3.03244694615357
O           -4.21824883374556        4.03433712717988       -0.87713382485991
O           -4.44510595673734        2.90643496899600       -2.81853501752979
C           -5.44216520282800        3.83300025693726       -3.02488532025093
C            4.23586651889298        1.50004220933226        3.59165660008449
O            5.05927614697201        0.66079890002952        3.91714215179376
O            4.47001334453535        2.86385149488593        3.72605651435371
C            5.79457498613219        3.08584475587818        4.15829123132174
O           -3.82227255313510       -5.27347675879771        4.16636005494405
O           -1.85023202017753       -5.79767454267276        5.06656077253571
C           -2.55119635829503       -6.86252441382958        5.62930343183426
C           -5.07197156564436       -1.42399175670916        1.58830531863830
C           -1.33089900128490       -2.23622472573986       -0.99264499351172
H           -2.54510546830388       -7.76426885143998        4.99136022291012
H           -3.57194749219491       -6.44405511486021        5.74196173723541
H           -2.09133598235598       -7.02043774843818        6.64022264233588
H            5.72707967266424        3.46798026205549        5.10135971236643
H            6.34060091246885        3.78468702308830        3.50069950143490
H            6.17933064298187        2.03010500085905        4.19342358084693
H           -0.91862729772622       -2.57650129080332       -0.01361370304871
H           -0.49769766914251       -1.60651221708571       -1.34094446550576
H           -1.52632419730509       -2.94569707152159       -1.75361447637286
H           -5.11788846557077       -2.41810833635233        1.17520213188926
H           -5.67929807973498       -0.69619639428435        1.04301666067831
H           -5.57598832326623       -1.42383358739762        2.57928294206544
H           -6.13050215934830        3.76035386975488       -2.23272855695873
H           -5.86615610071888        3.45938329385866       -4.02668959924245
H           -5.13479557532099        4.87790991548477       -2.98314551356402
C           -1.38192942069774        3.73616555005018        2.91232598411686
C           -1.84821468128685        2.59982427735607        3.49755545445181
C           -1.05946531454833        2.05730632010638        4.60922730982276
C            0.19893954712228        2.69376791964407        4.86302140881997
C            0.50425395911860        3.94630308659851        4.28768785650746
C           -0.26031777722226        4.46998310053134        3.25072669343212
C           -1.20488993561782        0.74454293276906        5.14851520323437
C           -0.06287609782692        0.02744069315890        5.60930570802864
C            1.19208754369866        0.71421540266195        5.78882868583885
N            1.19428660993148        2.06344359410476        5.62744624321596
C           -2.41361422770794        0.07928500213936        5.25249410304426
C           -2.45851584031083       -1.32662100968547        5.60237876023992
N           -1.29466212405906       -1.98318595734370        5.89916817085159
C           -0.14475655767527       -1.32117560077092        5.98824682881008
C            0.97209270935794       -1.98958449505532        6.53157704134458
C            2.21982707914082       -1.36973967291181        6.68703967237737
C            2.30561929262884       -0.09745313075593        6.26436900324455
C           -3.73018485967715        0.71367583494582        5.25810242262992
C           -4.89964478833448       -0.06184623426677        5.21204641615509
C           -4.82617965800088       -1.39228978090841        5.46901303780036
C           -3.67144193418464       -1.98914944386360        5.67265433266067
O           -3.75568638935321        2.07705011038914        5.52067969627343
O           -2.94192434743730        1.91263938797883        3.01658762327703
C            0.21273512614467        5.50086066357994        2.34765104514621
C           -6.06660304520411       -2.17604633098929        5.80641622556876
H            1.41756699010566        4.38133362238595        4.66974005703471
H           -1.82880610647429        4.11982501512100        2.06992133318584
H            3.26888037378556        0.32655662585251        6.31721410015598
H            0.87146188387207       -3.08471526305024        6.57830423410869
H           -3.67716811065157       -3.05999292755990        5.83019634570050
H           -5.77379677507622        0.43595144608221        4.71017130754348
O            1.34459852619901        5.82615848916894        2.44941456579099
O           -0.74718748219123        6.07961784856304        1.59848183464284
C           -0.21473095568964        7.24015934882472        1.05753806029483
C            3.53228080814219       -2.00967610361154        7.02506769044485
O            3.64093082622715       -3.14437803815732        7.50071391725347
O            4.56565258381079       -1.22937033368332        6.69086985080897
C            5.72579357310716       -1.80692399125161        7.22246151275881
O           -7.04801223588612       -1.95726935745904        5.14194115322235
O           -6.01514389321278       -2.93743591896022        6.94765316328794
C           -7.21292732384718       -3.62681918543340        7.15115816329978
C           -4.95459780685163        2.65960679932188        5.86868674392943
C           -3.68284113682406        2.59129188358641        2.05479246020704
H           -7.43119628931628       -4.22607794725959        6.20622607140901
H           -8.06548455146707       -2.91765848248592        7.29781126410398
H           -7.07314693247270       -4.33087306029711        7.91223421050944
H            6.57332189837178       -1.29353136199234        6.78341268688262
H            5.74663761932316       -2.84282155125561        6.88089468184451
H            5.69426191474290       -1.72781984964892        8.29460302186842
H           -4.10481209541493        3.44288266176275        2.60483747673152
H           -4.49244774344916        1.87419893016926        1.82433103764650
H           -3.18901540870812        2.85154642679373        1.06781919454921
H           -5.55414326821421        2.76698137191684        4.93950725322359
H           -4.78658370641210        3.62090640967288        6.25983200635257
H           -5.43485580473958        1.97242995129449        6.65265772412460
H            0.89164886030839        7.38838561720231        1.13776105146914
H           -0.62894889903848        8.04195665205089        1.64837664327952
H           -0.59282546386754        7.45699159724320        0.03719083132488
116
 energy: -22.867923144639 gnorm: 0.366028149280 xtb: 6.6.1 (8d0f1dd)
C           -2.97289061602679        0.98673090380395       -0.98414781342745
C           -2.36404668475182        0.06136755801916       -0.14311658133766
C           -1.30678438554690        0.55193082728494        0.73929236286462
C           -0.80163596387757        1.87988200372826        0.55863461499665
C           -1.52646107518048        2.74731994791813       -0.18552505058018
C           -2.51919554587387        2.27633913604273       -1.00526432818206
C           -0.79498612621554       -0.30798218566473        1.76682951397356
C            0.58419681066849       -0.00659327700788        1.95788595832238
C            1.07434044986916        1.32628680452093        1.59256847398446
N            0.43154990957723        2.32827863083153        1.04395453864117
C           -1.22529347077066       -1.54649023296209        2.41174505021079
C           -0.25686564501415       -2.34375610950666        3.13374166798766
N            1.02098971786194       -1.97326656739154        3.22239188623215
C            1.43661771853289       -0.89291642581131        2.62665496808888
C            2.74020878724842       -0.42633215342029        2.96186749926349
C            3.23491406217892        0.83973155377641        2.62223398610081
C            2.30720182337848        1.73730967570908        2.08995642074241
C           -2.58229107688698       -2.04083422696831        2.51101656781087
C           -2.91594181425815       -3.20919421988575        3.13227195320683
C           -1.86115983256452       -3.91773347325165        3.77963563977613
C           -0.62489514153183       -3.41414169584597        3.81723837735415
O           -3.62544747007217       -1.22509517889297        1.97877380180718
O           -2.82167252194244       -1.29791566879478       -0.28383364337714
C           -3.37693277894177        3.26569365089549       -1.78604302309221
C           -2.26739893297396       -5.29399074795448        4.23994023507750
H           -1.27392357411897        3.78594560347894       -0.14558939161918
H           -3.49823129456822        0.46659657702989       -1.83623378487875
H            2.77237681234125        2.70884056361252        1.89720681641011
H            3.48292201030627       -1.05665368941642        3.44064716077681
H            0.20934899664285       -4.06180478982149        4.09446327006443
H           -3.87126299442320       -3.68051934395446        3.06129340870103
O           -3.15545793396363        4.45149738819137       -1.65158606802306
O           -4.34992139406663        2.73221207754443       -2.62224843773308
C           -5.15029540171763        3.72190883190111       -3.16257310197700
C            4.58253673761206        1.17350654261141        3.19217938511896
O            5.08526788085861        0.73175779026133        4.23285322785379
O            5.26450917451431        2.00695671862268        2.40811744242550
C            6.56074586719897        2.09291430939565        2.94519607921017
O           -3.44864719445036       -5.69314713314740        4.21627836716318
O           -1.23275383387515       -6.10159308494001        4.54677485494849
C           -1.77887442263424       -7.35036360558823        4.99495943696976
C           -4.89411723213444       -1.69270466917183        1.59786805793337
C           -1.92070971082428       -1.98492104164749       -1.10063710756944
H           -2.88812179942582       -7.42287467515850        4.96778081429831
H           -1.49261303789123       -7.65598972852503        5.94575408298119
H           -1.45918818768724       -8.02691038448934        4.26504296046638
H            6.66311092662274        2.28510131103117        4.05757825702646
H            7.00555089615125        3.04969728425919        2.53039572603118
H            6.97253385583880        1.08915291493455        2.76310408652278
H           -0.97061509898340       -2.20682129133541       -0.67619939406891
H           -1.74154555651834       -1.30149224465906       -1.90838506471433
H           -2.60631801823864       -2.79016238400393       -1.55549110667596
H           -4.73993104032971       -2.71508486628738        1.24164047255819
H           -5.55054807946966       -1.05524905648494        1.04448433077738
H           -5.47123827403584       -1.80685859704335        2.45575572959800
H           -5.11107124697444        4.50776831866826       -2.40088167157363
H           -6.14698067050745        3.43032588306838       -3.23445941153406
H           -4.72697828012525        4.04557582551261       -4.08086962396097
C           -2.18418029732577        3.91543531408193        3.41644829307546
C           -2.34615945252761        2.65086088610978        4.05234902447176
C           -1.22780816227188        2.11191330263213        4.66867163445040
C            0.04767054140043        2.76211281014872        4.60181774293996
C            0.12203468732399        4.01816440150945        4.01455715668339
C           -0.95145709588904        4.54948919456545        3.32534364173835
C           -1.23032297253566        0.88830702847635        5.43637738529388
C           -0.03248973931250        0.26557609326569        5.70145066693877
C            1.15729489815046        0.97840240143557        5.55235834704223
N            1.17931129782875        2.25559542677492        5.21524559625808
C           -2.44219104307943        0.20351176230965        5.96862940848639
C           -2.33984526947569       -1.18628539100409        5.95280226918211
N           -1.18838237077035       -1.78918388548006        6.15082615863550
C           -0.01887464399991       -1.07895297654725        6.15966530537924
C            1.15518430309180       -1.64496387864724        6.65848174701653
C            2.31742725083681       -0.98594204380908        6.64749218679132
C            2.27470981764984        0.33899155028939        6.13596933686989
C           -3.66420996855845        0.79494580028739        6.31810229879288
C           -4.84121098625051        0.05421877681974        6.10957574887277
C           -4.84314771760305       -1.27541098339983        5.77300223437207
C           -3.57943861894460       -1.89315558500248        5.86747758963305
O           -3.47903195235822        2.07173121248868        6.87045619515120
O           -3.49793853143169        1.89149291054315        4.05175741934306
C           -0.86569396281251        5.61429342024299        2.29661236576549
C           -6.13736493102230       -1.86916548008517        5.42714264210706
H            1.06642713551622        4.56027269653316        4.01454596922588
H           -2.82342282727183        4.35372627377900        2.68716206892717
H            3.24746658906229        0.94360086507351        6.10274050958372
H            1.10821794391953       -2.63695496801491        7.12110548250993
H           -3.49351693274618       -2.95639450472466        5.70541142764841
H           -5.80010451193131        0.55288271291990        6.13194778997968
O           -0.09432951297053        6.55577673639929        2.56283499149324
O           -1.38574306977476        5.37584519065370        1.11073606191665
C           -0.84673823990581        6.26486663405673        0.14480420694242
C            3.53496095247686       -1.75688450203123        7.06063742262339
O            3.40118944543965       -2.96374761627697        7.15017490024315
O            4.70342669355230       -1.15659199336012        7.50523314611823
C            5.77702669691613       -2.02559702991596        7.65595814347088
O           -6.11085457746402       -2.75943860087174        4.60952499263579
O           -7.28460787510749       -1.41890428379363        6.01354083691698
C           -8.52667940807578       -1.86322620065138        5.36623841528770
C           -4.68765902239076        2.61599827758445        7.28778449894674
C           -4.49576506402885        2.11699807804870        3.09151070802180
H           -8.62408939061705       -2.97074274570365        5.70428532004638
H           -8.36166161006179       -1.88326501775982        4.23310892133181
H           -9.40142405440237       -1.27814100588472        5.74529332547110
H            6.32591277243690       -1.68657884046748        8.56053389682846
H            6.56605843341190       -1.71967073659947        6.95396838995651
H            5.60078865353646       -3.13968175534173        7.63556492835629
H           -5.16212826005646        1.27255055525599        3.11388095132662
H           -4.10717063367705        2.32468084807860        2.13177802444518
H           -5.17834723684732        2.99046046369595        3.26373708196595
H           -5.23028022084259        3.16144387556585        6.50460099714780
H           -4.39633146763273        3.46427439091117        7.89214011332720
H           -5.11800463519857        1.82271215235128        7.89204378993109
H           -0.82437711516160        5.71796187374994       -0.83589983655896
H            0.21605704904898        6.37039869571062        0.40096811006564
H           -1.22340021405174        7.31146201210010        0.21732564119836
116
 energy: -22.894692806942 gnorm: 0.379318416762 xtb: 6.6.1 (8d0f1dd)
C           -3.07880586931677        0.52044827531746       -0.59466240911143
C           -2.21183369153331       -0.39039474421673       -0.08537792932996
C           -1.17764028714550        0.03814718579249        0.74301891478737
C           -0.73446940347202        1.35833488216464        0.61219758901562
C           -1.62711427829705        2.28867721536641        0.04237757790617
C           -2.79863486698700        1.90619895297713       -0.57181999587510
C           -0.45056570428148       -0.69731340520750        1.68934461125560
C            0.84963684183427       -0.24966124073657        2.01033930565527
C            1.37871524474772        1.04816422206362        1.57814094996026
N            0.52221607563942        1.84228450915751        0.81220446840282
C           -1.00258620540704       -1.76965157014928        2.45282086287869
C           -0.04741614011414       -2.62136302966261        3.08766800751047
N            1.26741400835259       -2.34715914145961        3.22859699876886
C            1.71087368456559       -1.12239818656924        2.73809213885509
C            3.02233189026548       -0.71414546678821        2.97062400566215
C            3.44394239267007        0.58650105918044        2.69892791928513
C            2.69212410651651        1.45706022335139        1.95350225832066
C           -2.42272026755948       -1.96690043536316        2.74328197184506
C           -2.80719938643255       -3.12955882827665        3.40494624755737
C           -1.89256995057263       -4.08522221675381        3.75818409814874
C           -0.53081630971290       -3.79842899355877        3.57019613034959
O           -3.38129147653144       -0.99174877176641        2.30198094237695
O           -2.47026124579690       -1.73903366955504       -0.15260244859795
C           -3.73944478953772        2.98657229703094       -0.82109035967886
C           -2.19101596222020       -5.55948411656964        4.04841709753256
H           -1.62134523231388        3.33504042329324        0.39523777278513
H           -4.08883885289707        0.10864217712421       -0.91506353545945
H            3.09413513446786        2.39456748137715        1.54592962768566
H            3.66417096923092       -1.35591863341285        3.51672854352115
H            0.21360314537857       -4.53683047997568        3.97760957829615
H           -3.85956567839437       -3.34738073678685        3.43463727890488
O           -3.69943189580629        4.02711689525536       -0.11801542166723
O           -4.54159698449333        2.86139202749836       -1.89737703940265
C           -5.06450730386425        4.05702819001757       -2.27666695899254
C            4.79889254921744        1.08587251930310        3.18655984497378
O            5.57354891388513        0.26121444869305        3.65402221966912
O            5.10734172614107        2.41023310874540        3.01867109263110
C            6.48522075574321        2.70259760297375        3.08036053828158
O           -3.32547472060224       -5.96908233950945        3.81193953797322
O           -1.12086398755531       -6.38603906216859        4.34169162740876
C           -1.27274193395407       -7.70463501450803        4.52770588298210
C           -4.70753585927653       -1.46419208909069        2.34163472702727
C           -1.56978611684188       -2.74771294295418       -0.41983032064696
H           -0.35090787765431       -8.29605552194413        4.21352602620966
H           -2.28592326290647       -8.03787420905162        4.04237840663577
H           -1.44911732103514       -7.70813816342497        5.61593451095110
H            6.91015720187802        2.55458339745688        4.05985985015220
H            6.63741576891310        3.79499594945397        2.91404857555881
H            7.09002382221109        2.08358948901976        2.35643874391090
H           -1.25184487054991       -2.78680875995554       -1.49639963449185
H           -1.99157991627910       -3.62641930213979       -0.18489894652294
H           -0.63070170209735       -2.69303541750787        0.18496141833716
H           -4.86327957591929       -2.40391722729524        1.93988965076686
H           -5.34687369322576       -0.73352463984560        1.80926357789163
H           -5.06231565854421       -1.49811974505538        3.36375292433184
H           -5.65275501516975        4.53995352356551       -1.45809927808558
H           -5.82393941171063        3.92604109081663       -3.05843533855694
H           -4.31077685395609        4.84918449984752       -2.64432711873587
C           -1.88682183754933        4.14449394654428        2.87468996321255
C           -2.23976202571998        2.93819082012471        3.47254660091976
C           -1.30859672205390        2.28867401914293        4.44002810964926
C            0.03767613516257        2.86502342087345        4.59214697488333
C            0.21017217892650        4.18001708731178        4.00415754598944
C           -0.66275887967678        4.77413591460974        3.12137369161778
C           -1.46967175134813        1.06032435988510        5.14075786352064
C           -0.31404273997822        0.37721942628957        5.48880479045846
C            0.99513069377778        1.03136812236585        5.44805842610791
N            1.13656721637376        2.27422204796621        4.95898029071353
C           -2.70290831174751        0.42311846665337        5.52293367100376
C           -2.59732512180799       -0.89057069437603        6.01733226164455
N           -1.48200264987409       -1.56035689822121        6.25041375428087
C           -0.38312207214334       -0.82942411117120        6.22428414047075
C            0.75427287153987       -1.45053430237989        6.69924647887986
C            2.01484455411121       -0.91215815643299        6.43812272111561
C            2.10480886998538        0.30221017899708        5.88924118334923
C           -3.98785116581240        1.17316192555307        5.65839232277467
C           -5.11039733099260        0.35682896542207        5.68904499055686
C           -5.00356297645014       -1.02702199129826        5.83033456264923
C           -3.76045001847981       -1.66650138509270        6.05445401717023
O           -4.25426855719210        2.57293766773743        5.53788816188836
O           -3.30295501570388        2.15400762294809        2.97438818261975
C           -0.25704939275446        5.93063473822822        2.33662243556247
C           -6.21382700902522       -1.78399372615461        6.05838185443864
H            1.22197056691151        4.59351168287138        4.19947961849870
H           -2.50719906533629        4.64614663687746        2.18536141347203
H            3.09348105376545        0.79686824505850        5.91621339914568
H            0.61404305308602       -2.50066278722506        7.06230558626222
H           -3.66023546230748       -2.64393378564652        6.55987080520708
H           -6.05471762897798        0.78951283680121        5.58647245623010
O            0.81476943138077        6.40015389543605        2.35242012265134
O           -1.34657946963958        6.59108765933918        1.63869454822900
C           -0.78522887927209        7.68122116283916        0.94327751493352
C            3.15194314738457       -1.82831658535951        6.86786674762332
O            3.00902097481613       -2.86549634444612        7.49822975937847
O            4.40864901002949       -1.49328628368546        6.35962608802127
C            5.18997483375005       -2.52675619998961        6.83667616720672
O           -6.08730494860236       -2.70436293985947        6.82238460676444
O           -7.31313260972874       -1.52167397782538        5.20836593301057
C           -8.21429689674054       -2.61823239439132        5.34063940293728
C           -5.56834312748201        3.08690047732988        5.91827298210031
C           -4.40263691854822        2.82519125120426        2.43971681922247
H           -8.90724998630541       -2.41363571407965        6.11714537758602
H           -7.72849690368271       -3.48227965080461        5.61740566467593
H           -8.73867766585471       -2.78249156763010        4.41978681383473
H            4.81230857658861       -3.49678915969435        6.48278729040120
H            5.09438826073571       -2.63780964312493        8.00008843590453
H            6.17934884681628       -2.32206722649241        6.47073031083755
H           -5.31805657585470        2.20263265119369        2.60537708636340
H           -4.22906430601611        2.74917757758266        1.38006115143066
H           -4.49122632858940        3.83690999395467        2.83149577970766
H           -6.23007634156591        2.65316147669894        5.12855083886657
H           -5.51078818362371        4.19787557463069        5.99590036881150
H           -5.75169935656090        2.79090754510947        6.93606279465059
H           -0.68148582526678        8.56618680994671        1.63958895530112
H           -1.32427756347817        7.89514800663526        0.05546579840793
H            0.21195375422005        7.31643366388289        0.56827925561870
116
 energy: -22.914644595448 gnorm: 0.314347399069 xtb: 6.6.1 (8d0f1dd)
C           -2.58621387275282        0.55831086389641       -0.90091276464328
C           -1.94120290856637       -0.43704542993826       -0.16054566060266
C           -1.01861181304066        0.10338060322919        0.80766255355573
C           -0.58268376887696        1.48834138072744        0.67533989765981
C           -1.37977904191980        2.38504685951077       -0.04219522508761
C           -2.43638913494068        1.93775241776968       -0.82352567587527
C           -0.31778481018604       -0.77991070024991        1.67604966065715
C            0.99507313687231       -0.44179714363323        1.95592950639737
C            1.41646566838477        0.87728320668523        1.75245110939792
N            0.60702118445924        1.87242376062909        1.21196985763349
C           -0.89960570947192       -1.95971976533863        2.36101022482538
C            0.08375176283440       -2.76737628296463        2.87681488505546
N            1.38525324789284       -2.50990681628946        2.85677765958765
C            1.93877648934923       -1.36210426326982        2.45602886659189
C            3.28567773833138       -0.95281781683543        2.65680140837661
C            3.64378655130852        0.39819396067691        2.65046393661168
C            2.71672489279654        1.28406062468241        2.08407846545251
C           -2.27107709100255       -2.21705642588443        2.72104957133004
C           -2.55953019292310       -3.37401209508278        3.41478413443507
C           -1.58523068062234       -4.19939476787205        3.84889764119298
C           -0.27951842418517       -3.88399803044374        3.61836134738251
O           -3.29757135829665       -1.33694559840668        2.41506983828525
O           -2.24337351665367       -1.80404692273400       -0.46022937410048
C           -3.10644631596290        2.88631133136803       -1.72880273669355
C           -1.86425347515575       -5.60906289590729        4.41988506194165
H           -1.00537531770170        3.41753538832988       -0.14919729144619
H           -3.18266943693621        0.19289709217794       -1.76583357696035
H            2.91280903525159        2.33034929845425        1.78733736496627
H            3.88417133004303       -1.72596883203959        3.12553314477107
H            0.56406708131637       -4.56972840980092        3.91361828916307
H           -3.60524988106619       -3.59646656044625        3.60572745079156
O           -2.66681937877162        3.99735979156695       -1.77421259660251