116
 energy: -22.928061455056 gnorm: 0.329736929581 xtb: 6.6.1 (8d0f1dd)
C           -3.31122850772930        0.79849766164622       -0.92477639677520
C           -2.44380812530352       -0.12270372891954       -0.27661132624697
C           -1.41337090092821        0.39579727573559        0.56335275196199
C           -0.89266158675590        1.65801491088749        0.27377586709581
C           -1.72665675402493        2.51431363229076       -0.49448366572522
C           -2.95444148494349        2.13954154133227       -1.01494489940871
C           -0.74098268209890       -0.43411532818871        1.49825021926784
C            0.56872586496315        0.03782116815119        1.86248088067890
C            1.03782416582094        1.29402317993033        1.50887470833621
N            0.31238977034758        2.07067427098208        0.65193736800696
C           -1.29695700510141       -1.39996043042223        2.41574187746061
C           -0.38243517664656       -2.18060797534842        3.13232615520648
N            0.91308504082021       -1.90366887689689        3.30325166013478
C            1.37712470144904       -0.74872102533751        2.81811050966982
C            2.52149331701875       -0.17739833758153        3.39379298866852
C            2.95849061756259        1.02681208890480        2.95105897606587
C            2.24288949469137        1.78498308775960        2.03503020483770
C           -2.74860936222260       -1.74497937691422        2.38401158947411
C           -3.09416315450955       -2.91614440870436        3.00571134491758
C           -2.16786021984049       -3.77788778654213        3.63251872101904
C           -0.85708937311598       -3.40495313382985        3.68547234358092
O           -3.71994433332149       -0.94984598373544        1.67726658385724
O           -2.55702603277562       -1.47241711578389       -0.57241635275616
C           -3.84297843593025        3.13357444054366       -1.60938954875544
C           -2.68769581069131       -5.03867041417370        4.30484659386931
H           -1.39666850744143        3.51251503834900       -0.76806311868865
H           -4.27662633836220        0.55105838579656       -1.33106614114542
H            2.66329581305412        2.73912661909249        1.72562431984580
H            3.05775395548473       -0.69369546277216        4.16536137542516
H           -0.24710966264510       -4.12034095424229        4.22946223699121
H           -4.11477991332403       -3.04712728052358        3.03244694615357
O           -4.21824883374556        4.03433712717988       -0.87713382485991
O           -4.44510595673734        2.90643496899600       -2.81853501752979
C           -5.44216520282800        3.83300025693726       -3.02488532025093
C            4.23586651889298        1.50004220933226        3.59165660008449
O            5.05927614697201        0.66079890002952        3.91714215179376
O            4.47001334453535        2.86385149488593        3.72605651435371
C            5.79457498613219        3.08584475587818        4.15829123132174
O           -3.82227255313510       -5.27347675879771        4.16636005494405
O           -1.85023202017753       -5.79767454267276        5.06656077253571
C           -2.55119635829503       -6.86252441382958        5.62930343183426
C           -5.07197156564436       -1.42399175670916        1.58830531863830
C           -1.33089900128490       -2.23622472573986       -0.99264499351172
H           -2.54510546830388       -7.76426885143998        4.99136022291012
H           -3.57194749219491       -6.44405511486021        5.74196173723541
H           -2.09133598235598       -7.02043774843818        6.64022264233588
H            5.72707967266424        3.46798026205549        5.10135971236643
H            6.34060091246885        3.78468702308830        3.50069950143490
H            6.17933064298187        2.03010500085905        4.19342358084693
H           -0.91862729772622       -2.57650129080332       -0.01361370304871
H           -0.49769766914251       -1.60651221708571       -1.34094446550576
H           -1.52632419730509       -2.94569707152159       -1.75361447637286
H           -5.11788846557077       -2.41810833635233        1.17520213188926
H           -5.67929807973498       -0.69619639428435        1.04301666067831
H           -5.57598832326623       -1.42383358739762        2.57928294206544
H           -6.13050215934830        3.76035386975488       -2.23272855695873
H           -5.86615610071888        3.45938329385866       -4.02668959924245
H           -5.13479557532099        4.87790991548477       -2.98314551356402
C           -1.38192942069774        3.73616555005018        2.91232598411686
C           -1.84821468128685        2.59982427735607        3.49755545445181
C           -1.05946531454833        2.05730632010638        4.60922730982276
C            0.19893954712228        2.69376791964407        4.86302140881997
C            0.50425395911860        3.94630308659851        4.28768785650746
C           -0.26031777722226        4.46998310053134        3.25072669343212
C           -1.20488993561782        0.74454293276906        5.14851520323437
C           -0.06287609782692        0.02744069315890        5.60930570802864
C            1.19208754369866        0.71421540266195        5.78882868583885
N            1.19428660993148        2.06344359410476        5.62744624321596
C           -2.41361422770794        0.07928500213936        5.25249410304426
C           -2.45851584031083       -1.32662100968547        5.60237876023992
N           -1.29466212405906       -1.98318595734370        5.89916817085159
C           -0.14475655767527       -1.32117560077092        5.98824682881008
C            0.97209270935794       -1.98958449505532        6.53157704134458
C            2.21982707914082       -1.36973967291181        6.68703967237737
C            2.30561929262884       -0.09745313075593        6.26436900324455
C           -3.73018485967715        0.71367583494582        5.25810242262992
C           -4.89964478833448       -0.06184623426677        5.21204641615509
C           -4.82617965800088       -1.39228978090841        5.46901303780036
C           -3.67144193418464       -1.98914944386360        5.67265433266067
O           -3.75568638935321        2.07705011038914        5.52067969627343
O           -2.94192434743730        1.91263938797883        3.01658762327703
C            0.21273512614467        5.50086066357994        2.34765104514621
C           -6.06660304520411       -2.17604633098929        5.80641622556876
H            1.41756699010566        4.38133362238595        4.66974005703471
H           -1.82880610647429        4.11982501512100        2.06992133318584
H            3.26888037378556        0.32655662585251        6.31721410015598
H            0.87146188387207       -3.08471526305024        6.57830423410869
H           -3.67716811065157       -3.05999292755990        5.83019634570050
H           -5.77379677507622        0.43595144608221        4.71017130754348
O            1.34459852619901        5.82615848916894        2.44941456579099
O           -0.74718748219123        6.07961784856304        1.59848183464284
C           -0.21473095568964        7.24015934882472        1.05753806029483
C            3.53228080814219       -2.00967610361154        7.02506769044485
O            3.64093082622715       -3.14437803815732        7.50071391725347
O            4.56565258381079       -1.22937033368332        6.69086985080897
C            5.72579357310716       -1.80692399125161        7.22246151275881
O           -7.04801223588612       -1.95726935745904        5.14194115322235
O           -6.01514389321278       -2.93743591896022        6.94765316328794
C           -7.21292732384718       -3.62681918543340        7.15115816329978
C           -4.95459780685163        2.65960679932188        5.86868674392943
C           -3.68284113682406        2.59129188358641        2.05479246020704
H           -7.43119628931628       -4.22607794725959        6.20622607140901
H           -8.06548455146707       -2.91765848248592        7.29781126410398
H           -7.07314693247270       -4.33087306029711        7.91223421050944
H            6.57332189837178       -1.29353136199234        6.78341268688262
H            5.74663761932316       -2.84282155125561        6.88089468184451
H            5.69426191474290       -1.72781984964892        8.29460302186842
H           -4.10481209541493        3.44288266176275        2.60483747673152
H           -4.49244774344916        1.87419893016926        1.82433103764650
H           -3.18901540870812        2.85154642679373        1.06781919454921
H           -5.55414326821421        2.76698137191684        4.93950725322359
H           -4.78658370641210        3.62090640967288        6.25983200635257
H           -5.43485580473958        1.97242995129449        6.65265772412460
H            0.89164886030839        7.38838561720231        1.13776105146914
H           -0.62894889903848        8.04195665205089        1.64837664327952
H           -0.59282546386754        7.45699159724320        0.03719083132488
116
 energy: -22.589441595001 gnorm: 0.537558581069 xtb: 6.6.1 (8d0f1dd)
C           -3.00550710555884        0.46650985110226       -1.42094244857815
C           -2.23927893243756       -0.33784724771812       -0.48440992707134
C           -1.50281431320322        0.38254844764597        0.56819191638340
C           -1.17322534469958        1.70484777499012        0.34061729949618
C           -1.90837822134605        2.40974962642933       -0.59690297009769
C           -2.71449240788094        1.86670143852598       -1.57618440590734
C           -0.68188948417269       -0.22620628117683        1.49294612527533
C            0.66865665579771        0.26936914904569        1.74243098702565
C            0.86516663502590        1.66399576894044        1.63486159974292
N           -0.04870633739163        2.40069531320910        0.88378103886789
C           -1.14981700088394       -1.47483525837967        2.09524073548084
C           -0.19748798320036       -2.36193748522478        2.72707487597414
N            1.14816623079725       -1.97292615588073        2.81874074749987
C            1.44903195721904       -0.62413457306756        2.50759075443741
C            2.48959393672576       -0.05591514286625        3.17773462836803
C            2.78596231227150        1.30002962605483        3.08246397234540
C            2.03591002437087        2.12137743347149        2.25848522564237
C           -2.49624563458086       -1.98088699525928        2.13472345216567
C           -2.81488034483698       -3.33781515673851        2.36247233579583
C           -1.78765300901838       -4.02329296467026        3.03130680771385
C           -0.54858834210887       -3.64452258590395        3.10898281421177
O           -3.60467744379207       -1.06708933159266        2.19473141371426
O           -1.93903184389629       -1.56454133702884       -0.77253921545068
C           -3.25269242715605        2.78640085107450       -2.62296458013878
C           -2.17955090178994       -5.37329144072166        3.52510570329254
H           -1.70482207115382        3.55395116763529       -0.73577851858561
H           -3.64520616454889        0.15284105300804       -2.13760248873215
H            2.03353538589133        3.21285225924955        2.24931089225898
H            3.08925547266691       -0.74335263889282        3.78887127818700
H            0.20397956493534       -4.44518247225110        3.49088728141740
H           -3.64616003333193       -3.97791895949283        2.25015071022628
O           -3.72735509419269        3.86367621638066       -2.24583217648909
O           -3.18969487557088        2.58493879453106       -4.01609510114123
C           -2.96291791570038        3.89422275706125       -4.55683046095287
C            3.91868647585653        1.75285614908712        3.90906588081720
O            4.27688503263879        0.88597018165635        4.65810260521514
O            4.63082478278831        2.85979217533273        3.76189237672680
C            5.54451448645412        3.11209521744252        4.81060768394974
O           -3.11692312737088       -5.38511214038598        4.41883088470370
O           -1.59452469905383       -6.43076800122254        2.88826130106877
C           -1.67507180340261       -7.62368704202073        3.72660401739946
C           -4.83123597148477       -1.27728621305909        2.93074323235136
C           -2.83816840351111       -2.04350929164598       -1.70359259302842
H           -2.56093412202467       -8.07982584743463        3.98034516805061
H           -1.35205897848004       -7.54146210447106        4.80413875540694
H           -0.92843990746683       -8.40748194311066        3.42943878047893
H            5.12352161368043        4.02310457026710        5.21796119274197
H            6.71337347816924        3.26475863736015        4.49395799147454
H            5.79673028589071        2.39612059115216        5.67214476589477
H           -2.31435412382959       -2.86319192184796       -2.18052067116383
H           -3.33786735083719       -1.43591640116137       -2.50882444341719
H           -3.59325044270861       -2.43904709162427       -1.10310526927914
H           -5.56305676533381       -2.00527655940588        2.19075431961928
H           -5.32977723746456       -0.40303085029451        3.30641016960343
H           -4.36755164117976       -1.60106816645063        3.95981985472999
H           -3.51993594682244        4.03240678228857       -5.56193397275199
H           -2.06106708640387        4.42808326750785       -4.64288241782664
H           -3.56891034111291        4.49588407215744       -3.86107368033900
C           -1.83514964061436        3.70032490703650        3.48282770689866
C           -2.16889692267660        2.41274934354711        3.99986155309481
C           -1.05948262418632        2.05841691499490        4.95380496458102
C            0.12043413201151        2.80415075338244        4.99319538093633
C            0.32533355223933        4.02942707437013        4.34267021598548
C           -0.67663560491069        4.48331486899014        3.49855475451901
C           -1.23230863659147        1.01339656409019        5.85623418576519
C           -0.16721037732006        0.29713771833920        6.41127673796265
C            0.98868027706669        1.11787955715844        6.35476172704716
N            1.13030155421718        2.32129308853916        5.79704267553268
C           -2.47999754622861        0.28030502245195        5.95070856002027
C           -2.40912851569472       -1.10384656440270        6.11007109662719
N           -1.36038340589220       -1.79559276315038        6.57577547287111
C           -0.22879862806779       -1.12124673947525        6.72659558528746
C            1.05947464904169       -1.64176437963905        7.02527304441443
C            2.22730998003977       -0.79595911908845        7.09269611946220
C            2.13431311699588        0.55102431724358        6.91865899145692
C           -3.81788891895972        0.99363489186514        6.03766813880692
C           -5.02911452160670        0.25261120356314        6.22372722352480
C           -4.93563106698862       -1.07454108863039        6.32425886018604
C           -3.69867241659035       -1.74929558113809        6.02591799849103
O           -3.78739231781262        2.44069995916548        6.05176465672796
O           -3.22178081894350        1.74803495793038        3.43215423994387
C           -0.49550955348327        5.64255611856310        2.48014108643342
C           -5.99166123339607       -1.88254391191491        7.02266595463751
H            1.20540685387101        4.61677285053561        4.66779710535064
H           -2.61592978003048        4.20151697115652        2.78740998861970
H            2.90195955256084        1.22084242089510        6.46157980512534
H            1.25108255928869       -2.71754578006232        7.25849806559428
H           -3.58575639888573       -2.75668771955711        6.24904784463010
H           -5.83109551453659        0.66409687205849        6.91797336853462
O            0.06079111006464        6.69877219059969        2.85759695547398
O           -0.80962198174397        5.33486711060327        1.21508752842593
C           -0.19637820198726        6.19541851226011        0.21933688079251
C            3.49843417442400       -1.50057956888502        7.11568934048312
O            4.60929568612604       -1.10688238749848        7.34558783927280
O            3.33810257683571       -2.82037219734002        6.68136358315152
C            4.41196404639538       -3.36956830470370        5.97578330300500
O           -6.05149029167281       -1.84948103903825        8.30445982133617
O           -6.67758844461341       -2.81886374307690        6.17081485362476
C           -7.59450757602236       -3.66853490260343        6.78835307878505
C           -4.98420890411444        3.25849647696311        6.19153728702699
C           -4.08069391667677        2.43290411256072        2.56507398350147
H           -7.17719451308209       -4.24490595674925        7.70067858497721
H           -7.60374178843561       -4.52217926177687        6.11028401997112
H           -8.61633978778236       -3.46172266570617        6.87806665317179
H            5.37934149651665       -3.26624795032803        6.60889854415880
H            4.53522981069330       -2.87425956472490        4.91345818168515
H            4.26164376562595       -4.33423357333532        5.61415242802578
H           -4.50565898469943        3.31110113829639        3.12354845300801
H           -5.10340909758856        1.82572133924849        2.57149348597990
H           -3.66496531641997        2.50915488894520        1.65494223278990
H           -5.67398124311697        3.24237068891811        5.39082637943212
H           -5.08678919018077        4.43825713611559        6.37127521960300
H           -5.42733354901707        2.79268273193995        7.04253865149699
H            0.77082908380901        6.63400543405126        0.22352358365047
H           -0.82526202344882        6.97545061021105        0.32297810373080
H           -0.16861728073915        5.55457043604219       -0.60298191482943
116
 energy: -22.667651162358 gnorm: 0.489055028121 xtb: 6.6.1 (8d0f1dd)
C           -3.02538299793721        0.48410352657412       -1.48346012369924
C           -2.33349196458509       -0.28097123170178       -0.58693932129552
C           -1.31339129410909        0.28658851233056        0.25895737357309
C           -0.69905876477689        1.55402550268990       -0.20642920866117
C           -1.27911046323598        2.23221148259004       -1.26113179474900
C           -2.41199035640502        1.67555528824057       -1.99496109423716
C           -0.41128139532609       -0.53076287724227        1.10869115279299
C            0.91634539362130       -0.10852398567710        1.39398865385302
C            1.11335943180158        1.30159551829062        1.17226012170392
N            0.20812925432890        2.13906347854748        0.58839725504457
C           -0.69774233832188       -1.72520577203382        1.81770721508765
C            0.50320769624244       -2.44223275227533        2.22580413525054
N            1.69481792793346       -2.07797807119056        2.44589886961167
C            1.87926853453597       -0.83255618432617        2.17562432747783
C            3.08688672028809       -0.17248099728364        2.55319152158386
C            3.22687693711907        1.19311000639830        2.37696421019626
C            2.23605976532412        1.94194786162728        1.81968009528021
C           -2.04219257370606       -2.23851352999762        2.11441635805899
C           -2.08273585207404       -3.58484989477319        2.22561523250138
C           -0.98860541900416       -4.36878589258696        2.38518292692244
C            0.30162406103928       -3.82473779056042        2.47103450126091
O           -3.21861261252161       -1.36511455125400        2.36196398726940
O           -2.54243702840111       -1.75169468133737       -0.69413781292813
C           -2.90248840785103        2.57671116188324       -3.12394305151572
C           -1.18335033917552       -5.85852087849175        2.66943324552832
H           -0.82249492051077        3.15591951516852       -1.59566169396203
H           -4.00631947849631        0.19486841052319       -1.81316083718077
H            2.50850803133883        2.95317909593619        1.59824710139726
H            3.84305376622980       -0.79571190735544        2.97744749308368
H            1.16124716578374       -4.41754445501717        2.78321173495210
H           -2.98979961542888       -4.18215698418152        2.14254460318555
O           -2.29699985529229        3.51204109632466       -3.58127008088517
O           -3.98419570915445        2.06620883270969       -3.68775523551263
C           -4.57900265223774        2.98564393975795       -4.55679335332936
C            4.55263725948765        1.61961011378515        2.88500233234240
O            5.40382394358365        0.99363793980279        3.44743040039675
O            4.84795987094259        2.95225981500078        2.63490709240712
C            6.22716936792076        3.42479417365127        2.94720210665204
O           -2.02335228487388       -6.41424558672732        2.12966140955979
O           -0.35372790372140       -6.41776750878063        3.57855189485504
C           -0.70462195314255       -7.68914335899787        3.69266367182473
C           -4.27050760622585       -1.98700895055362        3.08975670996657
C           -1.63458616639484       -2.41272223546189       -1.51080264402771
H            0.06573904884533       -8.37762597240773        3.36282715611274
H           -1.55674031641836       -7.97924416809197        2.96875531345027
H           -0.76527001385448       -7.84625422651028        4.86594601282031
H            6.60311013052114        4.18081104569402        2.15249520216784
H            6.90157054980501        2.68537887403357        3.40338803766887
H            6.06873469722407        4.25177799570732        3.69084607490084
H           -1.19486830447725       -1.65841754721972       -2.11947242409340
H           -2.19211766717698       -3.17531080451504       -2.15881264386199
H           -1.05407105984539       -3.17097334203216       -0.89336830656865
H           -4.75309518950356       -2.72510452755051        2.49054347111745
H           -4.98417230304797       -1.08086498652820        3.47494543794630
H           -4.01377887952996       -2.68321673833421        3.94713565604758
H           -3.92810598723635        3.84017122485739       -4.56508928617063
H           -5.66626562792258        2.99555337771527       -4.29382430351713
H           -4.28652482876305        2.41031381828178       -5.58233383932106
C           -2.36276924481806        4.06591852819808        4.17230924999214
C           -2.52861243265927        3.05288003486843        5.04330601912693
C           -1.41668262501554        2.21226002976969        5.53873085212594
C            0.00610536759403        2.49868783632737        5.11614812029224
C            0.16669525560222        3.76766583053509        4.34099112817261
C           -1.01607661413931        4.46021291303495        3.96309466856639
C           -1.64895619995267        1.00376374344864        6.31553290913131
C           -0.55623106405539        0.14135459917347        6.39362314665863
C            0.78460330472866        0.63296396615742        6.24461009185741
N            1.10609604005079        1.72456635452858        5.53785945655656
C           -2.86708745103501        0.48482856790640        6.77380595544552
C           -3.10960707071393       -0.88214296560103        6.44773064161518
N           -1.98082959840455       -1.78848622619770        6.58009321664699
C           -0.71499874750431       -1.32536737324883        6.47512985131213
C            0.42855335120607       -2.03633854623383        6.93245668774629
C            1.68825971175526       -1.53316535507384        6.78829463809820
C            1.81356076533992       -0.28749078928902        6.22306554314561
C           -3.88926799309701        1.30212875599306        7.41800506275560
C           -5.20845197627133        0.82607769049132        7.22125098913552
C           -5.55348768197631       -0.37762816979707        6.55320566389723
C           -4.43133846731966       -1.26543041612067        6.17135296972301
O           -3.31839082926207        2.43411793629395        8.12871169458365
O           -3.94236520902856        2.80248407317300        5.04438194655078
C           -0.99814989795492        5.71798838018842        3.10533424054730
C           -7.04426347842117       -0.56889928636154        6.19126221306120
H            1.02946636286288        4.28339862814976        4.03994885296209
H           -3.14609208016905        4.70080316338911        4.08525923337850
H            2.83877793422842        0.03791875795733        5.92539613609389
H            0.44061566288032       -3.02554975279216        7.27777959552101
H           -4.45829574639346       -2.26920079121453        5.91664926433307
H           -6.03448645250515        1.49351253754509        7.58896664984980
O            0.08321825697259        6.09865600661872        2.67951387412632
O           -2.22059653948240        6.29065781626036        2.88232986035292
C           -1.86174462541382        7.42046988660631        2.13295311892036
C            2.90037235725234       -2.36474601689919        7.13795770931801
O            3.79842947698086       -2.12953396965890        6.30117693696575
O            3.05672937275803       -2.75233093248371        8.39084164125877
C            4.38324530630080       -2.90243746875126        8.72797875688848
O           -7.89241290591152        0.03088125441941        6.78626276561918
O           -7.33249405572937       -1.37358539269178        5.14654402678531
C           -8.62947957010358       -1.76988079211410        4.91151704646737
C           -3.80305623561348        3.73443488461761        7.71248346841168
C           -4.28190813128186        1.64661446151996        4.20933581179361
H           -9.29134160952105       -1.34054101245863        5.76120715290283
H           -8.51279286819636       -2.84632878454729        4.74067972234414
H           -8.82972618986905       -1.23200458057977        4.03742724681479
H            5.03453917816886       -1.89319533235471        8.72070637944669
H            4.76011100426755       -3.55013926995675        7.91012182584654
H            4.44551706614441       -3.47904525414587        9.77251515132191
H           -4.01826188681184        2.05214354560515        3.25381619872910
H           -5.28493130794129        1.15787257587221        3.99240883168678
H           -3.59167002431188        0.75049758890002        4.50616759430568
H           -3.83894455348853        3.80491870806080        6.68259832424530
H           -3.18271144223875        4.47289783370224        8.09807380294737
H           -4.76222727311169        3.91809947778001        8.18716888839869
H           -1.12167601691882        8.08148633833097        2.81216100466720
H           -2.75748135778540        7.89048486944048        1.78452496673093
H           -1.55664356214541        7.04821984275623        1.17637853504384
116
 energy: -22.652397189579 gnorm: 0.502404511419 xtb: 6.6.1 (8d0f1dd)
C           -2.65827318241794       -0.01966070869238       -1.36675335207461
C           -1.49991470510147       -0.68547332716713       -0.80047861059339
C           -0.60954453455269       -0.01072839506152        0.12778168577376
C           -0.55073049154859        1.43365425727362        0.13729855404900
C           -1.61020117393593        2.14896895262718       -0.51464376652785
C           -2.59596143587487        1.33323612060121       -1.16503379327165
C            0.12759322209061       -0.45325794846158        1.29875755309718
C            1.27914354677322        0.33869107314935        1.75795381044972
C            1.37294431862604        1.67832753115584        1.47277715834264
N            0.46998786280912        2.29477527423874        0.58492937253860
C           -0.01477547066274       -1.69008964899027        1.97529325629336
C            0.78971540716447       -2.23772035727259        2.87406859363494
N            1.96473996336447       -1.52324918086471        3.11301663302424
C            2.29265488212873       -0.36457802401120        2.46680491665131
C            3.42181090443380        0.36958215510974        2.85570910364603
C            3.61169663749268        1.67395015948992        2.29374990420364
C            2.55188924405461        2.36999693924725        1.73386636906664
C           -1.33512825169038       -2.27101139982097        1.96222447116283
C           -1.53014947546044       -3.53651583016253        2.55063775262029
C           -0.49643415252916       -4.19777112482867        3.25389735519145
C            0.62314253797983       -3.48469093264230        3.40220454859046
O           -2.39844263108295       -1.55682773668876        1.40138750476078
O           -1.42675524399136       -2.01040320175067       -1.34089931809794
C           -3.87901882343449        1.86146945474594       -1.60980851518869
C           -0.73316192895535       -5.44285922826087        3.92724496699729
H           -2.02963647724691        2.94781386234387       -0.00704643311581
H           -3.64135419384914       -0.40591994203912       -1.69379038688323
H            2.57746231252959        3.42090021313723        1.49410579424864
H            4.23904110365909       -0.10974401926915        3.36120417759487
H            1.44824621788820       -3.93921041367861        3.67373759334310
H           -2.36575218818529       -4.24703179457901        2.24373257528008
O           -4.31439792719786        2.83888089716433       -1.01763197038848