Optimization of monomers started
      -----------------------------------------------------------      
     |                   =====================                   |     
     |                           x T B                           |     
     |                   =====================                   |     
     |                         S. Grimme                         |     
     |          Mulliken Center for Theoretical Chemistry        |     
     |                    University of Bonn                     |     
      -----------------------------------------------------------      

   * xtb version 6.7.1 (edcfbbe) compiled by 'runner@Mac-1732539442253.local' on 2024-11-25

   xtb is free software: you can redistribute it and/or modify it under
   the terms of the GNU Lesser General Public License as published by
   the Free Software Foundation, either version 3 of the License, or
   (at your option) any later version.
   
   xtb is distributed in the hope that it will be useful,
   but WITHOUT ANY WARRANTY; without even the implied warranty of
   MERCHANTABILITY or FITNESS FOR A PARTICULAR PURPOSE.  See the
   GNU Lesser General Public License for more details.
   
   Cite this work as:
   * C. Bannwarth, E. Caldeweyher, S. Ehlert, A. Hansen, P. Pracht,
     J. Seibert, S. Spicher, S. Grimme, WIREs Comput. Mol. Sci., 2020, 11,
     e01493. DOI: 10.1002/wcms.1493
   
   for GFN2-xTB:
   * C. Bannwarth, S. Ehlert and S. Grimme., J. Chem. Theory Comput., 2019,
     15, 1652-1671. DOI: 10.1021/acs.jctc.8b01176
   for GFN1-xTB:
   * S. Grimme, C. Bannwarth, P. Shushkov, J. Chem. Theory Comput., 2017,
     13, 1989-2009. DOI: 10.1021/acs.jctc.7b00118
   for GFN0-xTB:
   * P. Pracht, E. Caldeweyher, S. Ehlert, S. Grimme, ChemRxiv, 2019, preprint.
     DOI: 10.26434/chemrxiv.8326202.v1
   for GFN-FF:
   * S. Spicher and S. Grimme, Angew. Chem. Int. Ed., 2020, 59, 15665-15673.
     DOI: 10.1002/anie.202004239
   
   for ALPB and GBSA implicit solvation:
   * S. Ehlert, M. Stahn, S. Spicher, S. Grimme, J. Chem. Theory Comput.,
     2021, 17, 4250-4261. DOI: 10.1021/acs.jctc.1c00471
   
   for ddCOSMO and CPCM-X implicit solvation:
   * M. Stahn, S. Ehlert, S. Grimme, J. Phys. Chem. A,
     2023, XX, XXXX-XXXX. DOI: 10.1021/acs.jpca.3c04382
   
   for DFT-D4:
   * E. Caldeweyher, C. Bannwarth and S. Grimme, J. Chem. Phys., 2017,
     147, 034112. DOI: 10.1063/1.4993215
   * E. Caldeweyher, S. Ehlert, A. Hansen, H. Neugebauer, S. Spicher,
     C. Bannwarth and S. Grimme, J. Chem. Phys., 2019, 150, 154122.
     DOI: 10.1063/1.5090222
   * E. Caldeweyher, J.-M. Mewes, S. Ehlert and S. Grimme, Phys. Chem. Chem. Phys.
     2020, 22, 8499-8512. DOI: 10.1039/D0CP00502A
   
   for sTDA-xTB:
   * S. Grimme and C. Bannwarth, J. Chem. Phys., 2016, 145, 054103.
     DOI: 10.1063/1.4959605
   
   in the mass-spec context:
   * V. Asgeirsson, C. Bauer and S. Grimme, Chem. Sci., 2017, 8, 4879.
     DOI: 10.1039/c7sc00601b
   * J. Koopman and S. Grimme, ACS Omega 2019, 4, 12, 15120-15133.
     DOI: 10.1021/acsomega.9b02011
   
   for metadynamics refer to:
   * S. Grimme, J. Chem. Theory Comput., 2019, 155, 2847-2862
     DOI: 10.1021/acs.jctc.9b00143
   
   for SPH calculations refer to:
   * S. Spicher and S. Grimme, J. Chem. Theory Comput., 2021, 17, 1701-1714
     DOI: 10.1021/acs.jctc.0c01306
   
   for ONIOM refer to:
   * C. Plett, A. Katbashev, S. Ehlert, S. Grimme, M. Bursch,
     Phys. Chem. Chem. Phys., 2023, 25, 17860-17868. DOI: 10.1039/D3CP02178E
   
   for DIPRO refer to:
   * J. Kohn, N. Gildemeister, S. Grimme, D. Fazzi, A. Hansen,
     J. Chem. Phys., 2023, just accepted.
   
   for PTB refer to:
   * S. Grimme, M. Mueller, A. Hansen, J. Chem. Phys., 2023, 158, 124111.
     DOI: 10.1063/5.0137838
   
   with help from (in alphabetical order)
   P. Atkinson, C. Bannwarth, F. Bohle, G. Brandenburg, E. Caldeweyher
   M. Checinski, S. Dohm, S. Ehlert, S. Ehrlich, I. Gerasimov, C. Hölzer
   A. Katbashev, J. Kohn, J. Koopman, C. Lavigne, S. Lehtola, F. März, M. Müller,
   F. Musil, H. Neugebauer, J. Pisarek, C. Plett, P. Pracht, F. Pultar,
   J. Seibert, P. Shushkov, S. Spicher, M. Stahn, M. Steiner, T. Strunk,
   J. Stückrath, T. Rose, and J. Unsleber
   
 * started run on 2025/03/06 at 14:43:33.396     
   ID    Z sym.   atoms
    1    6 C      1-9, 11, 12, 14-21, 23-31, 33, 34, 36-43, 47, 48, 50, 51
    2    7 N      10, 13, 32, 35, 46, 49
    3    8 O      22, 44
    4    5 B      45
    5   16 S      52, 58, 64, 70, 76, 82
    6    9 F      53-57, 59-63, 65-69, 71-75, 77-81, 83-87
    7    1 H      88-109

           -------------------------------------------------
          |                Calculation Setup                |
           -------------------------------------------------

          program call               : xtb Base2SF5.mol --opt --iterations 2000 --chrg 0 --uhf 1 --gfn 2
          coordinate file            : Base2SF5.mol
          omp threads                :                     8


           -------------------------------------------------
          |                 G F N 2 - x T B                 |
           -------------------------------------------------

        Reference                      10.1021/acs.jctc.8b01176
      * Hamiltonian:
        H0-scaling (s, p, d)           1.850000    2.230000    2.230000
        zeta-weighting                 0.500000
      * Dispersion:
        s8                             2.700000
        a1                             0.520000
        a2                             5.000000
        s9                             5.000000
      * Repulsion:
        kExp                           1.500000    1.000000
        rExp                           1.000000
      * Coulomb:
        alpha                          2.000000
        third order                    shell-resolved
        anisotropic                    true
        a3                             3.000000
        a5                             4.000000
        cn-shift                       1.200000
        cn-exp                         4.000000
        max-rad                        5.000000


          ...................................................
          :                      SETUP                      :
          :.................................................:
          :  # basis functions                 406          :
          :  # atomic orbitals                 400          :
          :  # shells                          202          :
          :  # electrons                       481          :
          :  max. iterations                  2000          :
          :  Hamiltonian                  GFN2-xTB          :
          :  restarted?                      false          :
          :  GBSA solvation                  false          :
          :  PC potential                    false          :
          :  electronic temp.          300.0000000     K    :
          :  accuracy                    1.0000000          :
          :  -> integral cutoff          0.2500000E+02      :
          :  -> integral neglect         0.1000000E-07      :
          :  -> SCF convergence          0.1000000E-05 Eh   :
          :  -> wf. convergence          0.1000000E-03 e    :
          :  Broyden damping             0.4000000          :
          :  net charge                          0          :
          :  unpaired electrons                  1          :
          ...................................................

 iter      E             dE          RMSdq      gap      omega  full diag
   1   -291.5071313 -0.291507E+03  0.684E+00    0.16       0.0  T
   2   -291.0589655  0.448166E+00  0.441E+00    0.25       1.0  T
   3   -287.8472646  0.321170E+01  0.426E+00    0.75       1.0  T
   4   -283.6604796  0.418679E+01  0.447E+00    0.28       1.0  T
   5   -289.8829183 -0.622244E+01  0.288E+00    0.21       1.0  T
   6   -291.8445864 -0.196167E+01  0.165E+00    0.32       1.0  T
   7   -291.7637024  0.808840E-01  0.159E+00    0.14       1.0  T
   8   -291.9572244 -0.193522E+00  0.109E+00    0.14       1.0  T
   9   -292.0037062 -0.464818E-01  0.822E-01    0.11       1.0  T
  10   -291.8408835  0.162823E+00  0.122E+00    0.17       1.0  T
  11   -292.0609885 -0.220105E+00  0.454E-01    0.04       1.0  T
  12   -291.8499521  0.211036E+00  0.119E+00    0.03       1.0  T
  13   -291.9277529 -0.778008E-01  0.851E-01    0.21       1.0  T
  14   -291.8810862  0.466667E-01  0.114E+00    0.04       1.0  T
  15   -292.0531609 -0.172075E+00  0.423E-01    0.05       1.0  T
  16   -292.0597435 -0.658268E-02  0.520E-01    0.01       1.0  T
  17   -292.0871982 -0.274547E-01  0.263E-01    0.02       1.0  T
  18   -292.1031745 -0.159763E-01  0.110E-01    0.02       1.0  T
  19   -292.1044032 -0.122871E-02  0.694E-02    0.02       1.0  T
  20   -292.1048816 -0.478314E-03  0.478E-02    0.02       1.0  T
  21   -292.1050983 -0.216741E-03  0.329E-02    0.02       1.0  T
  22   -292.1052718 -0.173484E-03  0.109E-02    0.03       1.0  T
  23   -292.1052829 -0.110813E-04  0.638E-03    0.03       1.5  T
  24   -292.1052888 -0.598810E-05  0.418E-03    0.03       2.3  T
  25   -292.1052902 -0.131567E-05  0.186E-03    0.03       5.1  T
  26   -292.1052910 -0.804921E-06  0.889E-04    0.03      10.8  T
  27   -292.1052911 -0.164629E-06  0.450E-04    0.03      21.3  T

   *** convergence criteria satisfied after 27 iterations ***

         #    Occupation            Energy/Eh            Energy/eV
      -------------------------------------------------------------
         1        2.0000           -0.9084125             -24.7192
       ...           ...                  ...                  ...
       235        2.0000           -0.4608923             -12.5415
       236        2.0000           -0.4565995             -12.4247
       237        2.0000           -0.4454425             -12.1211
       238        1.9971           -0.4413078             -12.0086
       239        1.9807           -0.4394908             -11.9592
       240        1.8283           -0.4372821             -11.8991
       241        0.7556           -0.4338386             -11.8053 (HOMO)
       242        0.4383           -0.4328989             -11.7798 (LUMO)
       243                         -0.3862114             -10.5093
       244                         -0.3828779             -10.4186
       245                         -0.3704555             -10.0806
       246                         -0.3647770              -9.9261
       ...                                ...                  ...
       400                          0.9582578              26.0755
      -------------------------------------------------------------
                  HL-Gap            0.0009397 Eh            0.0256 eV
             Fermi-level           -0.4345069 Eh          -11.8235 eV

 SCC (total)                   0 d,  0 h,  0 min,  2.335 sec
 SCC setup                      ...        0 min,  0.001 sec (  0.055%)
 Dispersion                     ...        0 min,  0.001 sec (  0.047%)
 classical contributions        ...        0 min,  0.000 sec (  0.015%)
 integral evaluation            ...        0 min,  0.009 sec (  0.373%)
 iterations                     ...        0 min,  2.234 sec ( 95.668%)
 molecular gradient             ...        0 min,  0.051 sec (  2.184%)
 printout                       ...        0 min,  0.039 sec (  1.658%)

         :::::::::::::::::::::::::::::::::::::::::::::::::::::
         ::                     SUMMARY                     ::
         :::::::::::::::::::::::::::::::::::::::::::::::::::::
         :: total energy            -289.711228082218 Eh    ::
         :: gradient norm              0.457180847488 Eh/a0 ::
         :: HOMO-LUMO gap              0.025571351948 eV    ::
         ::.................................................::
         :: SCC energy              -292.099576415559 Eh    ::
         :: -> isotropic ES            0.064037317468 Eh    ::
         :: -> anisotropic ES         -0.091365034784 Eh    ::
         :: -> anisotropic XC          0.014358102927 Eh    ::
         :: -> dispersion             -0.208898888753 Eh    ::
         :: repulsion energy           2.388348333341 Eh    ::
         :: add. restraining           0.000000000000 Eh    ::
         :: total charge               0.000000000007 e     ::
         :::::::::::::::::::::::::::::::::::::::::::::::::::::

      ----------------------------------------------------------- 
     |                   =====================                   |
     |                        A N C O P T                        |
     |                   =====================                   |
     |               Approximate Normal Coordinate               |
     |                Rational Function Optimizer                |
      ----------------------------------------------------------- 
      ----------------------------------------------------------- 
     |                   =====================                   |
     |                        A N C O P T                        |
     |                   =====================                   |
     |               Approximate Normal Coordinate               |
     |                Rational Function Optimizer                |
      ----------------------------------------------------------- 

          ...................................................
          :                      SETUP                      :
          :.................................................:
          :   optimization level            normal          :
          :   max. optcycles                   327          :
          :   ANC micro-cycles                  20          :
          :   degrees of freedom               321          :
          :.................................................:
          :   RF solver                   davidson          :
          :   write xtbopt.log                true          :
          :   linear?                        false          :
          :   energy convergence         0.5000000E-05 Eh   :
          :   grad. convergence          0.1000000E-02 Eh/α :
          :   maxmium RF displ.          1.0000000          :
          :   Hlow (freq-cutoff)         0.1000000E-01      :
          :   Hmax (freq-cutoff)         5.0000000          :
          :   S6 in model hess.         20.0000000          :
          ...................................................

generating ANC from exact Hessian ...
Using Lindh-Hessian (1995)
 Shifting diagonal of input Hessian by    9.8529316855608239E-003
 Lowest  eigenvalues of input Hessian
    0.000000    0.000000    0.000000    0.000000    0.000000    0.000000
    0.010000    0.010293    0.010364    0.010435    0.010764    0.010921
    0.011108    0.011259    0.011391    0.011554    0.011685    0.012071
 Highest eigenvalues
    2.296591    2.301847    2.319330    2.325819    2.360393    2.387737


........................................................................
.............................. CYCLE    1 ..............................
........................................................................

 iter      E             dE          RMSdq      gap      omega  full diag
   1   -292.1052912 -0.292105E+03  0.312E-04    0.03       0.0  T
   2   -292.1052856  0.551230E-05  0.419E-03    0.03       2.3  T
   3   -292.1052910 -0.537905E-05  0.804E-04    0.03      11.9  T
   4   -292.1052912 -0.142917E-06  0.267E-04    0.03      35.9  T
   5   -292.1052912 -0.584185E-08  0.245E-04    0.03      39.1  T
     SCC iter.                  ...        0 min,  0.523 sec
     gradient                   ...        0 min,  0.043 sec
 * total energy  :  -289.7112281 Eh     change       -0.3696596E-07 Eh
   gradient norm :     0.4571799 Eh/α   predicted     0.0000000E+00 (-100.00%)
   displ. norm   :     0.5391666 α      lambda       -0.1824141E+00
   maximum displ.:     0.1040197 α      in ANC's #171, #199, #38, ...

........................................................................
.............................. CYCLE    2 ..............................
........................................................................

 iter      E             dE          RMSdq      gap      omega  full diag
   1   -292.1678214 -0.292168E+03  0.310E-01    0.02       0.0  T
   2   -291.9464848  0.221337E+00  0.108E+00    0.04       1.0  T
   3   -292.1511747 -0.204690E+00  0.356E-01    0.03       1.0  T
   4   -292.0314522  0.119723E+00  0.801E-01    0.08       1.0  T
   5   -292.1306855 -0.992333E-01  0.394E-01    0.10       1.0  T
   6   -292.0760004  0.546851E-01  0.557E-01    0.14       1.0  T
   7   -292.1614515 -0.854511E-01  0.207E-01    0.05       1.0  T
   8   -292.1654709 -0.401943E-02  0.156E-01    0.03       1.0  T
   9   -292.1673222 -0.185123E-02  0.126E-01    0.02       1.0  T
  10   -292.1694221 -0.209995E-02  0.722E-02    0.02       1.0  T
  11   -292.1701251 -0.702978E-03  0.370E-02    0.02       1.0  T
  12   -292.1703265 -0.201356E-03  0.131E-02    0.02       1.0  T
  13   -292.1703695 -0.429964E-04  0.466E-03    0.02       2.1  T
  14   -292.1703719 -0.243672E-05  0.265E-03    0.02       3.6  T
  15   -292.1703731 -0.123195E-05  0.126E-03    0.02       7.6  T
  16   -292.1703733 -0.195598E-06  0.730E-04    0.02      13.1  T
  17   -292.1703733  0.274342E-07  0.718E-04    0.02      13.3  T
     SCC iter.                  ...        0 min,  2.273 sec
     gradient                   ...        0 min,  0.079 sec
 * total energy  :  -289.8579420 Eh     change       -0.1467139E+00 Eh
   gradient norm :     0.2660459 Eh/α   predicted    -0.1178492E+00 ( -19.67%)
   displ. norm   :     0.6182289 α      lambda       -0.1282578E+00
   maximum displ.:     0.1253818 α      in ANC's #38, #171, #51, ...

........................................................................
.............................. CYCLE    3 ..............................
........................................................................

 iter      E             dE          RMSdq      gap      omega  full diag
   1   -292.2274535 -0.292227E+03  0.366E-01    0.00       0.0  T
   2   -292.1038269  0.123627E+00  0.757E-01    0.08       1.0  T
   3   -292.1511478 -0.473209E-01  0.570E-01    0.16       1.0  T
   4   -292.0494494  0.101698E+00  0.841E-01    0.15       1.0  T
   5   -292.2161898 -0.166740E+00  0.280E-01    0.02       1.0  T
   6   -292.1309158  0.852740E-01  0.648E-01    0.06       1.0  T
   7   -292.2155556 -0.846398E-01  0.259E-01    0.03       1.0  T
   8   -292.2261358 -0.105802E-01  0.143E-01    0.02       1.0  T
   9   -292.2297930 -0.365717E-02  0.597E-02    0.01       1.0  T
  10   -292.2303691 -0.576120E-03  0.216E-02    0.01       1.0  T
  11   -292.2303847 -0.156103E-04  0.189E-02    0.01       1.0  T
  12   -292.2304060 -0.212592E-04  0.113E-02    0.01       1.0  T
  13   -292.2304343 -0.283455E-04  0.692E-03    0.01       1.4  T
  14   -292.2304377 -0.333852E-05  0.484E-03    0.01       2.0  T
  15   -292.2304398 -0.213651E-05  0.395E-03    0.01       2.4  T
  16   -292.2304420 -0.219334E-05  0.162E-03    0.01       5.9  T
  17   -292.2304423 -0.289003E-06  0.905E-04    0.01      10.6  T
  18   -292.2304425 -0.203808E-06  0.277E-04    0.01      34.6  T
     SCC iter.                  ...        0 min,  2.070 sec
     gradient                   ...        0 min,  0.046 sec
 * total energy  :  -289.9484739 Eh     change       -0.9053188E-01 Eh
   gradient norm :     0.1015865 Eh/α   predicted    -0.8863939E-01 (  -2.09%)
   displ. norm   :     0.6817661 α      lambda       -0.5225570E-01
   maximum displ.:     0.2228990 α      in ANC's #38, #51, #43, ...

........................................................................
.............................. CYCLE    4 ..............................
........................................................................

 iter      E             dE          RMSdq      gap      omega  full diag
   1   -292.2356940 -0.292236E+03  0.290E-01    0.02       0.0  T
   2   -292.0586173  0.177077E+00  0.823E-01    0.14       1.0  T
   3   -292.1892815 -0.130664E+00  0.481E-01    0.07       1.0  T
   4   -292.2155705 -0.262890E-01  0.352E-01    0.02       1.0  T
   5   -291.9796452  0.235925E+00  0.122E+00    0.08       1.0  T
   6   -292.2232886 -0.243643E+00  0.255E-01    0.05       1.0  T
   7   -292.2336866 -0.103980E-01  0.172E-01    0.01       1.0  T
   8   -292.2363842 -0.269756E-02  0.117E-01    0.01       1.0  T
   9   -292.2392927 -0.290850E-02  0.437E-02    0.00       1.0  T
  10   -292.2391398  0.152854E-03  0.464E-02    0.00       1.0  T
  11   -292.2394081 -0.268305E-03  0.241E-02    0.00       1.0  T
  12   -292.2395339 -0.125794E-03  0.922E-03    0.00       1.0  T
  13   -292.2395161  0.177797E-04  0.110E-02    0.00       1.0  T
  14   -292.2395452 -0.290248E-04  0.484E-03    0.00       2.0  T
  15   -292.2395472 -0.208101E-05  0.306E-03    0.00       3.1  T
  16   -292.2395468  0.446585E-06  0.343E-03    0.00       2.8  T
  17   -292.2395486 -0.181956E-05  0.122E-03    0.00       7.8  T
  18   -292.2395488 -0.205521E-06  0.627E-04    0.00      15.3  T
  19   -292.2395489 -0.560860E-07  0.160E-04    0.00      59.9  T
     SCC iter.                  ...        0 min,  1.644 sec
     gradient                   ...        0 min,  0.042 sec
 * total energy  :  -289.9891993 Eh     change       -0.4072541E-01 Eh
   gradient norm :     0.0612986 Eh/α   predicted    -0.3827221E-01 (  -6.02%)
   displ. norm   :     0.7414129 α      lambda       -0.3212985E-01
   maximum displ.:     0.2610122 α      in ANC's #38, #27, #43, ...

........................................................................
.............................. CYCLE    5 ..............................
........................................................................

 iter      E             dE          RMSdq      gap      omega  full diag
   1   -292.2281432 -0.292228E+03  0.257E-01    0.03       0.0  T
   2   -292.0351720  0.192971E+00  0.841E-01    0.27       1.0  T
   3   -292.2161827 -0.181011E+00  0.334E-01    0.03       1.0  T
   4   -292.1587879  0.573949E-01  0.647E-01    0.03       1.0  T
   5   -292.1729432 -0.141554E-01  0.504E-01    0.09       1.0  T
   6   -292.2268586 -0.539153E-01  0.185E-01    0.01       1.0  T
   7   -292.2263085  0.550105E-03  0.184E-01    0.01       1.0  T
   8   -292.2305361 -0.422763E-02  0.119E-01    0.01       1.0  T
   9   -292.2315831 -0.104703E-02  0.850E-02    0.01       1.0  T
  10   -292.2327873 -0.120420E-02  0.175E-02    0.01       1.0  T
  11   -292.2327348  0.525908E-04  0.200E-02    0.01       1.0  T
  12   -292.2328004 -0.656318E-04  0.101E-02    0.01       1.0  T
  13   -292.2328098 -0.940786E-05  0.622E-03    0.01       1.5  T
  14   -292.2328130 -0.321086E-05  0.528E-03    0.01       1.8  T
  15   -292.2328196 -0.659768E-05  0.268E-03    0.01       3.6  T
  16   -292.2328176  0.199664E-05  0.364E-03    0.01       2.6  T
  17   -292.2328207 -0.311911E-05  0.108E-03    0.01       8.9  T
  18   -292.2328209 -0.179417E-06  0.699E-04    0.01      13.7  T
  19   -292.2328210 -0.117469E-06  0.837E-05    0.01     114.4  T
     SCC iter.                  ...        0 min,  1.417 sec
     gradient                   ...        0 min,  0.041 sec
 * total energy  :  -290.0155689 Eh     change       -0.2636960E-01 Eh
   gradient norm :     0.0449834 Eh/α   predicted    -0.2489571E-01 (  -5.59%)
   displ. norm   :     0.7757584 α      lambda       -0.2266885E-01
   maximum displ.:     0.2700264 α      in ANC's #38, #27, #31, ...

........................................................................
.............................. CYCLE    6 ..............................
........................................................................

 iter      E             dE          RMSdq      gap      omega  full diag
   1   -292.2249630 -0.292225E+03  0.234E-01    0.03       0.0  T
   2   -292.0648673  0.160096E+00  0.776E-01    0.34       1.0  T
   3   -292.2045736 -0.139706E+00  0.350E-01    0.03       1.0  T
   4   -292.0960693  0.108504E+00  0.837E-01    0.03       1.0  T
   5   -292.1290722 -0.330028E-01  0.724E-01    0.07       1.0  T
   6   -292.2089998 -0.799277E-01  0.289E-01    0.04       1.0  T
   7   -292.2190088 -0.100090E-01  0.227E-01    0.01       1.0  T
   8   -292.2223881 -0.337934E-02  0.179E-01    0.02       1.0  T
   9   -292.2263085 -0.392033E-02  0.115E-01    0.01       1.0  T
  10   -292.2279147 -0.160623E-02  0.749E-02    0.01       1.0  T
  11   -292.2288377 -0.922956E-03  0.203E-02    0.01       1.0  T
  12   -292.2289038 -0.661560E-04  0.117E-02    0.01       1.0  T
  13   -292.2289331 -0.292915E-04  0.444E-03    0.01       2.2  T
  14   -292.2289368 -0.369615E-05  0.203E-03    0.01       4.7  T
  15   -292.2289367  0.587144E-07  0.206E-03    0.01       4.6  T
  16   -292.2289374 -0.632475E-06  0.912E-04    0.01      10.5  T
  17   -292.2289376 -0.198016E-06  0.430E-04    0.01      22.3  T
     SCC iter.                  ...        0 min,  1.085 sec
     gradient                   ...        0 min,  0.041 sec
 * total energy  :  -290.0347417 Eh     change       -0.1917279E-01 Eh
   gradient norm :     0.0346575 Eh/α   predicted    -0.1815550E-01 (  -5.31%)
   displ. norm   :     0.7965356 α      lambda       -0.1710823E-01
   maximum displ.:     0.2684388 α      in ANC's #27, #38, #23, ...

........................................................................
.............................. CYCLE    7 ..............................
........................................................................

 iter      E             dE          RMSdq      gap      omega  full diag
   1   -292.2233903 -0.292223E+03  0.225E-01    0.02       0.0  T
   2   -292.1163533  0.107037E+00  0.676E-01    0.27       1.0  T
   3   -292.1832058 -0.668525E-01  0.409E-01    0.10       1.0  T
   4   -292.1031737  0.800321E-01  0.729E-01    0.04       1.0  T
   5   -292.2094240 -0.106250E+00  0.334E-01    0.03       1.0  T
   6   -292.2115322 -0.210822E-02  0.276E-01    0.01       1.0  T
   7   -292.2185825 -0.705030E-02  0.192E-01    0.03       1.0  T
   8   -292.2240355 -0.545302E-02  0.113E-01    0.02       1.0  T
   9   -292.2263708 -0.233531E-02  0.610E-02    0.01       1.0  T
  10   -292.2266815 -0.310651E-03  0.372E-02    0.02       1.0  T
  11   -292.2269840 -0.302537E-03  0.109E-02    0.01       1.0  T
  12   -292.2269825  0.149768E-05  0.107E-02    0.01       1.0  T
  13   -292.2270066 -0.241302E-04  0.197E-03    0.01       4.9  T
  14   -292.2270064  0.261127E-06  0.224E-03    0.01       4.3  T
  15   -292.2270074 -0.998349E-06  0.853E-04    0.01      11.2  T
  16   -292.2270075 -0.849990E-07  0.573E-04    0.01      16.7  T
     SCC iter.                  ...        0 min,  1.216 sec
     gradient                   ...        0 min,  0.040 sec
 * total energy  :  -290.0493887 Eh     change       -0.1464699E-01 Eh
   gradient norm :     0.0267406 Eh/α   predicted    -0.1398146E-01 (  -4.54%)
   displ. norm   :     0.8055733 α      lambda       -0.1310224E-01
   maximum displ.:     0.2652489 α      in ANC's #23, #27, #31, ...

........................................................................
.............................. CYCLE    8 ..............................
........................................................................

 iter      E             dE          RMSdq      gap      omega  full diag
   1   -292.2225942 -0.292223E+03  0.218E-01    0.02       0.0  T
   2   -292.1319230  0.906712E-01  0.636E-01    0.16       1.0  T
   3   -292.1094055  0.225175E-01  0.669E-01    0.12       1.0  T
   4   -292.1956308 -0.862252E-01  0.341E-01    0.04       1.0  T
   5   -292.1714470  0.241837E-01  0.458E-01    0.12       1.0  T
   6   -292.2228697 -0.514226E-01  0.120E-01    0.03       1.0  T
   7   -292.2217281  0.114154E-02  0.148E-01    0.03       1.0  T
   8   -292.2250739 -0.334577E-02  0.708E-02    0.01       1.0  T
   9   -292.2262323 -0.115842E-02  0.174E-02    0.01       1.0  T
  10   -292.2262502 -0.178853E-04  0.146E-02    0.01       1.0  T
  11   -292.2262462  0.404864E-05  0.148E-02    0.01       1.0  T
  12   -292.2262808 -0.346130E-04  0.547E-03    0.01       1.8  T
  13   -292.2262855 -0.477684E-05  0.272E-03    0.01       3.5  T
  14   -292.2262867 -0.119717E-05  0.144E-03    0.01       6.7  T
  15   -292.2262870 -0.254289E-06  0.897E-04    0.01      10.7  T
  16   -292.2262870 -0.191421E-07  0.799E-04    0.01      12.0  T
     SCC iter.                  ...        0 min,  1.199 sec
     gradient                   ...        0 min,  0.041 sec
 * total energy  :  -290.0606534 Eh     change       -0.1126474E-01 Eh
   gradient norm :     0.0221341 Eh/α   predicted    -0.1080246E-01 (  -4.10%)
   displ. norm   :     0.8053119 α      lambda       -0.1015435E-01
   maximum displ.:     0.2810162 α      in ANC's #23, #31, #7, ...

........................................................................
.............................. CYCLE    9 ..............................
........................................................................

 iter      E             dE          RMSdq      gap      omega  full diag
   1   -292.2237143 -0.292224E+03  0.194E-01    0.02       0.0  T
   2   -292.1618719  0.618425E-01  0.544E-01    0.07       1.0  T
   3   -292.1063163  0.555556E-01  0.687E-01    0.11       1.0  T
   4   -292.2058477 -0.995314E-01  0.285E-01    0.03       1.0  T
   5   -292.1658612  0.399866E-01  0.476E-01    0.14       1.0  T
   6   -292.2246133 -0.587522E-01  0.966E-02    0.02       1.0  T
   7   -292.2234963  0.111705E-02  0.129E-01    0.02       1.0  T
   8   -292.2253707 -0.187439E-02  0.630E-02    0.01       1.0  T
   9   -292.2262555 -0.884888E-03  0.243E-02    0.01       1.0  T
  10   -292.2263342 -0.786918E-04  0.170E-02    0.01       1.0  T
  11   -292.2263514 -0.172053E-04  0.104E-02    0.01       1.0  T
  12   -292.2263596 -0.816366E-05  0.760E-03    0.01       1.3  T
  13   -292.2263694 -0.980157E-05  0.277E-03    0.01       3.5  T
  14   -292.2263707 -0.131810E-05  0.105E-03    0.01       9.1  T
  15   -292.2263709 -0.149250E-06  0.674E-04    0.01      14.2  T
  16   -292.2263709 -0.654073E-07  0.302E-04    0.01      31.7  T
     SCC iter.                  ...        0 min,  1.093 sec
     gradient                   ...        0 min,  0.040 sec
 * total energy  :  -290.0694439 Eh     change       -0.8790486E-02 Eh
   gradient norm :     0.0202757 Eh/α   predicted    -0.8369869E-02 (  -4.78%)
   displ. norm   :     0.8043004 α      lambda       -0.8161046E-02
   maximum displ.:     0.2848280 α      in ANC's #23, #7, #31, ...

........................................................................
.............................. CYCLE   10 ..............................
........................................................................

 iter      E             dE          RMSdq      gap      omega  full diag
   1   -292.2272215 -0.292227E+03  0.157E-01    0.02       0.0  T
   2   -292.1982948  0.289268E-01  0.399E-01    0.02       1.0  T
   3   -292.2041151 -0.582034E-02  0.307E-01    0.05       1.0  T
   4   -292.1045861  0.995290E-01  0.665E-01    0.09       1.0  T
   5   -292.1925547 -0.879686E-01  0.393E-01    0.06       1.0  T
   6   -292.2176869 -0.251322E-01  0.224E-01    0.01       1.0  T
   7   -292.2221854 -0.449846E-02  0.169E-01    0.01       1.0  T
   8   -292.2264921 -0.430674E-02  0.886E-02    0.01       1.0  T
   9   -292.2279184 -0.142630E-02  0.256E-02    0.01       1.0  T
  10   -292.2280449 -0.126498E-03  0.130E-02    0.02       1.0  T
  11   -292.2280277  0.172438E-04  0.144E-02    0.02       1.0  T
  12   -292.2280690 -0.412932E-04  0.341E-03    0.02       2.8  T
  13   -292.2280701 -0.115117E-05  0.261E-03    0.02       3.7  T
  14   -292.2280714 -0.130862E-05  0.107E-03    0.02       9.0  T
  15   -292.2280716 -0.196710E-06  0.262E-04    0.02      36.5  T
  16   -292.2280716  0.290858E-07  0.445E-04    0.02      21.5  T
     SCC iter.                  ...        0 min,  1.356 sec
     gradient                   ...        0 min,  0.041 sec
 * total energy  :  -290.0765508 Eh     change       -0.7106855E-02 Eh
   gradient norm :     0.0190814 Eh/α   predicted    -0.6720214E-02 (  -5.44%)
   displ. norm   :     0.8016390 α      lambda       -0.6749209E-02
   maximum displ.:     0.2990010 α      in ANC's #7, #23, #31, ...

........................................................................
.............................. CYCLE   11 ..............................
........................................................................

 iter      E             dE          RMSdq      gap      omega  full diag
   1   -292.2306641 -0.292231E+03  0.136E-01    0.02       0.0  T
   2   -292.2160941  0.145700E-01  0.273E-01    0.03       1.0  T
   3   -292.2120657  0.402835E-02  0.279E-01    0.02       1.0  T
   4   -292.1345712  0.774945E-01  0.623E-01    0.15       1.0  T
   5   -292.2131676 -0.785963E-01  0.279E-01    0.04       1.0  T
   6   -292.2217861 -0.861853E-02  0.214E-01    0.01       1.0  T
   7   -292.2284014 -0.661526E-02  0.110E-01    0.02       1.0  T
   8   -292.2297581 -0.135670E-02  0.731E-02    0.02       1.0  T
   9   -292.2305468 -0.788736E-03  0.343E-02    0.01       1.0  T
  10   -292.2307573 -0.210497E-03  0.127E-02    0.02       1.0  T
  11   -292.2307876 -0.302522E-04  0.639E-03    0.02       1.5  T
  12   -292.2307944 -0.686284E-05  0.263E-03    0.02       3.6  T
  13   -292.2307957 -0.124278E-05  0.120E-03    0.02       8.0  T
  14   -292.2307960 -0.310243E-06  0.767E-04    0.02      12.5  T
  15   -292.2307961 -0.799620E-07  0.357E-04    0.02      26.8  T
     SCC iter.                  ...        0 min,  1.359 sec
     gradient                   ...        0 min,  0.043 sec
 * total energy  :  -290.0824512 Eh     change       -0.5900424E-02 Eh
   gradient norm :     0.0181590 Eh/α   predicted    -0.5543214E-02 (  -6.05%)
   displ. norm   :     0.7979604 α      lambda       -0.5726153E-02
   maximum displ.:     0.3136451 α      in ANC's #7, #23, #25, ...

........................................................................
.............................. CYCLE   12 ..............................
........................................................................

 iter      E             dE          RMSdq      gap      omega  full diag
   1   -292.2337786 -0.292234E+03  0.141E-01    0.02       0.0  T
   2   -292.0077034  0.226075E+00  0.109E+00    0.07       1.0  T
   3   -292.2297027 -0.221999E+00  0.161E-01    0.03       1.0  T
   4   -292.0923368  0.137366E+00  0.705E-01    0.12       1.0  T
   5   -292.2232209 -0.130884E+00  0.225E-01    0.04       1.0  T
   6   -292.2305282 -0.730732E-02  0.125E-01    0.01       1.0  T
   7   -292.2332139 -0.268566E-02  0.772E-02    0.01       1.0  T
   8   -292.2342472 -0.103333E-02  0.334E-02    0.02       1.0  T
   9   -292.2344070 -0.159740E-03  0.205E-02    0.02       1.0  T
  10   -292.2344777 -0.707719E-04  0.568E-03    0.02       1.7  T
  11   -292.2344759  0.183863E-05  0.547E-03    0.02       1.8  T
  12   -292.2344795 -0.356465E-05  0.321E-03    0.02       3.0  T
  13   -292.2344809 -0.138534E-05  0.190E-03    0.02       5.1  T
  14   -292.2344817 -0.872565E-06  0.367E-04    0.02      26.1  T
  15   -292.2344817 -0.925905E-08  0.238E-04    0.02      40.3  T
     SCC iter.                  ...        0 min,  1.035 sec
     gradient                   ...        0 min,  0.041 sec
 * total energy  :  -290.0874763 Eh     change       -0.5025092E-02 Eh
   gradient norm :     0.0173128 Eh/α   predicted    -0.4686118E-02 (  -6.75%)
   displ. norm   :     0.7956737 α      lambda       -0.4971629E-02
   maximum displ.:     0.3222082 α      in ANC's #7, #10, #8, ...

........................................................................
.............................. CYCLE   13 ..............................
........................................................................

 iter      E             dE          RMSdq      gap      omega  full diag
   1   -292.2371947 -0.292237E+03  0.153E-01    0.02       0.0  T
   2   -291.9003681  0.336827E+00  0.135E+00    0.16       1.0  T
   3   -292.2327920 -0.332424E+00  0.156E-01    0.04       1.0  T
   4   -292.1201047  0.112687E+00  0.635E-01    0.12       1.0  T
   5   -292.2094557 -0.893510E-01  0.398E-01    0.03       1.0  T
   6   -292.2349448 -0.254891E-01  0.124E-01    0.01       1.0  T
   7   -292.2385313 -0.358653E-02  0.370E-02    0.02       1.0  T
   8   -292.2386424 -0.111062E-03  0.287E-02    0.02       1.0  T
   9   -292.2387688 -0.126439E-03  0.138E-02    0.02       1.0  T
  10   -292.2388009 -0.320568E-04  0.605E-03    0.02       1.6  T
  11   -292.2388063 -0.547443E-05  0.266E-03    0.02       3.6  T
  12   -292.2388074 -0.108702E-05  0.106E-03    0.02       9.1  T
  13   -292.2388075 -0.448744E-07  0.673E-04    0.02      14.2  T
  14   -292.2388074  0.939377E-07  0.794E-04    0.02      12.1  T
     SCC iter.                  ...        0 min,  0.909 sec
     gradient                   ...        0 min,  0.042 sec
 * total energy  :  -290.0918480 Eh     change       -0.4371781E-02 Eh
   gradient norm :     0.0164172 Eh/α   predicted    -0.4059578E-02 (  -7.14%)
   displ. norm   :     0.7964534 α      lambda       -0.4367256E-02
   maximum displ.:     0.3229806 α      in ANC's #7, #10, #8, ...

........................................................................
.............................. CYCLE   14 ..............................
........................................................................

 iter      E             dE          RMSdq      gap      omega  full diag
   1   -292.2417796 -0.292242E+03  0.157E-01    0.02       0.0  T
   2   -291.9107035  0.331076E+00  0.136E+00    0.20       1.0  T
   3   -292.2380275 -0.327324E+00  0.154E-01    0.04       1.0  T
   4   -292.1466373  0.913902E-01  0.580E-01    0.10       1.0  T
   5   -292.1730614 -0.264241E-01  0.587E-01    0.07       1.0  T
   6   -292.2381618 -0.651004E-01  0.154E-01    0.01       1.0  T
   7   -292.2431524 -0.499059E-02  0.547E-02    0.02       1.0  T
   8   -292.2435808 -0.428415E-03  0.289E-02    0.02       1.0  T
   9   -292.2436885 -0.107713E-03  0.163E-02    0.02       1.0  T
  10   -292.2437286 -0.400592E-04  0.863E-03    0.02       1.1  T
  11   -292.2437410 -0.124810E-04  0.235E-03    0.02       4.1  T
  12   -292.2437417 -0.680396E-06  0.140E-03    0.02       6.8  T
  13   -292.2437419 -0.197854E-06  0.731E-04    0.02      13.1  T
  14   -292.2437419  0.100835E-07  0.671E-04    0.02      14.3  T
     SCC iter.                  ...        0 min,  1.291 sec
     gradient                   ...        0 min,  0.051 sec
 * total energy  :  -290.0956975 Eh     change       -0.3849449E-02 Eh
   gradient norm :     0.0155250 Eh/α   predicted    -0.3568792E-02 (  -7.29%)
   displ. norm   :     0.7999528 α      lambda       -0.3868996E-02
   maximum displ.:     0.3226402 α      in ANC's #7, #10, #8, ...

........................................................................
.............................. CYCLE   15 ..............................
........................................................................

 iter      E             dE          RMSdq      gap      omega  full diag
   1   -292.2472791 -0.292247E+03  0.145E-01    0.02       0.0  T
   2   -291.9686342  0.278645E+00  0.126E+00    0.18       1.0  T
   3   -292.2433349 -0.274701E+00  0.154E-01    0.04       1.0  T
   4   -292.1739635  0.693715E-01  0.520E-01    0.08       1.0  T
   5   -292.1655686  0.839490E-02  0.596E-01    0.08       1.0  T
   6   -292.2443450 -0.787765E-01  0.138E-01    0.02       1.0  T
   7   -292.2480835 -0.373846E-02  0.593E-02    0.02       1.0  T
   8   -292.2485119 -0.428415E-03  0.342E-02    0.02       1.0  T
   9   -292.2487013 -0.189342E-03  0.156E-02    0.02       1.0  T
  10   -292.2487374 -0.361022E-04  0.813E-03    0.02       1.2  T
  11   -292.2487450 -0.759156E-05  0.381E-03    0.02       2.5  T
  12   -292.2487474 -0.249231E-05  0.217E-03    0.02       4.4  T
  13   -292.2487486 -0.111718E-05  0.422E-04    0.02      22.7  T
  14   -292.2487485  0.203964E-07  0.410E-04    0.02      23.4  T
  15   -292.2487486 -0.270762E-07  0.245E-04    0.02      39.0  T
     SCC iter.                  ...        0 min,  1.177 sec
     gradient                   ...        0 min,  0.040 sec
 * total energy  :  -290.0991156 Eh     change       -0.3418057E-02 Eh
   gradient norm :     0.0141774 Eh/α   predicted    -0.3172442E-02 (  -7.19%)
   displ. norm   :     0.8049236 α      lambda       -0.3438857E-02
   maximum displ.:     0.3289267 α      in ANC's #10, #7, #8, ...

........................................................................
.............................. CYCLE   16 ..............................
........................................................................

 iter      E             dE          RMSdq      gap      omega  full diag
   1   -292.2527224 -0.292253E+03  0.125E-01    0.02       0.0  T
   2   -292.0792989  0.173424E+00  0.980E-01    0.09       1.0  T
   3   -292.2452631 -0.165964E+00  0.193E-01    0.03       1.0  T
   4   -292.2235672  0.216959E-01  0.357E-01    0.04       1.0  T
   5   -292.1742418  0.493254E-01  0.529E-01    0.11       1.0  T
   6   -292.2509617 -0.767199E-01  0.105E-01    0.02       1.0  T
   7   -292.2525694 -0.160768E-02  0.635E-02    0.03       1.0  T
   8   -292.2530748 -0.505473E-03  0.411E-02    0.02       1.0  T
   9   -292.2533953 -0.320423E-03  0.152E-02    0.02       1.0  T
  10   -292.2534271 -0.318907E-04  0.695E-03    0.02       1.4  T
  11   -292.2534379 -0.107457E-04  0.213E-03    0.02       4.5  T
  12   -292.2534380 -0.112629E-06  0.210E-03    0.02       4.6  T
  13   -292.2534389 -0.907422E-06  0.352E-04    0.02      27.2  T
  14   -292.2534389  0.417902E-07  0.457E-04    0.02      20.9  T
     SCC iter.                  ...        0 min,  1.193 sec
     gradient                   ...        0 min,  0.040 sec
 * total energy  :  -290.1021564 Eh     change       -0.3040877E-02 Eh
   gradient norm :     0.0127558 Eh/α   predicted    -0.2833451E-02 (  -6.82%)
   displ. norm   :     0.8072070 α      lambda       -0.3048028E-02
   maximum displ.:     0.3545159 α      in ANC's #10, #7, #12, ...

........................................................................
.............................. CYCLE   17 ..............................
........................................................................

 iter      E             dE          RMSdq      gap      omega  full diag
   1   -292.2566179 -0.292257E+03  0.110E-01    0.03       0.0  T
   2   -292.2142502  0.423676E-01  0.406E-01    0.03       1.0  T
   3   -292.2341852 -0.199350E-01  0.283E-01    0.08       1.0  T
   4   -292.2388716 -0.468641E-02  0.279E-01    0.04       1.0  T
   5   -292.2087925  0.300791E-01  0.496E-01    0.05       1.0  T
   6   -292.2552878 -0.464952E-01  0.895E-02    0.03       1.0  T
   7   -292.2564653 -0.117755E-02  0.500E-02    0.03       1.0  T
   8   -292.2568787 -0.413310E-03  0.235E-02    0.03       1.0  T
   9   -292.2570036 -0.124921E-03  0.689E-03    0.03       1.4  T
  10   -292.2570037 -0.102427E-06  0.587E-03    0.03       1.6  T
  11   -292.2570074 -0.369724E-05  0.412E-03    0.03       2.3  T
  12   -292.2570112 -0.378239E-05  0.199E-03    0.03       4.8  T
  13   -292.2570120 -0.808254E-06  0.443E-04    0.03      21.6  T
  14   -292.2570120 -0.228438E-07  0.320E-04    0.03      29.9  T
     SCC iter.                  ...        0 min,  1.036 sec
     gradient                   ...        0 min,  0.040 sec
 * total energy  :  -290.1048517 Eh     change       -0.2695284E-02 Eh
   gradient norm :     0.0122753 Eh/α   predicted    -0.2517038E-02 (  -6.61%)
   displ. norm   :     0.8024265 α      lambda       -0.2718665E-02
   maximum displ.:     0.3744191 α      in ANC's #10, #7, #12, ...

........................................................................
.............................. CYCLE   18 ..............................
........................................................................

 iter      E             dE          RMSdq      gap      omega  full diag
   1   -292.2587639 -0.292259E+03  0.107E-01    0.03       0.0  T
   2   -292.2068618  0.519021E-01  0.455E-01    0.08       1.0  T
   3   -292.2453344 -0.384726E-01  0.225E-01    0.07       1.0  T
   4   -292.2218330  0.235014E-01  0.386E-01    0.02       1.0  T
   5   -292.2354118 -0.135788E-01  0.352E-01    0.05       1.0  T
   6   -292.2579345 -0.225227E-01  0.777E-02    0.02       1.0  T
   7   -292.2584626 -0.528163E-03  0.606E-02    0.03       1.0  T
   8   -292.2591214 -0.658738E-03  0.228E-02    0.03       1.0  T
   9   -292.2592528 -0.131453E-03  0.683E-03    0.03       1.4  T
  10   -292.2592564 -0.355394E-05  0.436E-03    0.03       2.2  T
  11   -292.2592595 -0.312102E-05  0.193E-03    0.03       5.0  T
  12   -292.2592586  0.874659E-06  0.271E-03    0.03       3.5  T
  13   -292.2592602 -0.152970E-05  0.461E-04    0.03      20.8  T
  14   -292.2592602 -0.998676E-08  0.327E-04    0.03      29.3  T
  15   -292.2592602 -0.690341E-08  0.252E-04    0.03      38.0  T
     SCC iter.                  ...        0 min,  1.078 sec
     gradient                   ...        0 min,  0.046 sec
 * total energy  :  -290.1072577 Eh     change       -0.2406018E-02 Eh
   gradient norm :     0.0126213 Eh/α   predicted    -0.2234602E-02 (  -7.12%)
   displ. norm   :     0.7950703 α      lambda       -0.2490988E-02
   maximum displ.:     0.3904853 α      in ANC's #10, #7, #12, ...

........................................................................
.............................. CYCLE   19 ..............................
........................................................................

 iter      E             dE          RMSdq      gap      omega  full diag
   1   -292.2606290 -0.292261E+03  0.111E-01    0.03       0.0  T
   2   -292.1863143  0.743148E-01  0.548E-01    0.12       1.0  T
   3   -292.2475614 -0.612471E-01  0.223E-01    0.06       1.0  T
   4   -292.2231222  0.244392E-01  0.401E-01    0.01       1.0  T
   5   -292.2299088 -0.678665E-02  0.394E-01    0.05       1.0  T
   6   -292.2601877 -0.302789E-01  0.778E-02    0.03       1.0  T
   7   -292.2606662 -0.478428E-03  0.590E-02    0.03       1.0  T
   8   -292.2613550 -0.688783E-03  0.189E-02    0.03       1.0  T
   9   -292.2614402 -0.852814E-04  0.630E-03    0.03       1.5  T
  10   -292.2614433 -0.310788E-05  0.372E-03    0.03       2.6  T
  11   -292.2614400  0.339811E-05  0.561E-03    0.03       1.7  T
  12   -292.2614451 -0.517747E-05  0.230E-03    0.03       4.2  T
  13   -292.2614460 -0.921174E-06  0.775E-04    0.03      12.4  T
  14   -292.2614462 -0.105252E-06  0.321E-04    0.03      29.8  T
     SCC iter.                  ...        0 min,  1.100 sec
     gradient                   ...        0 min,  0.039 sec
 * total energy  :  -290.1094629 Eh     change       -0.2205129E-02 Eh
   gradient norm :     0.0126664 Eh/α   predicted    -0.2032817E-02 (  -7.81%)
   displ. norm   :     0.7948696 α      lambda       -0.2343939E-02
   maximum displ.:     0.3973157 α      in ANC's #10, #7, #11, ...

........................................................................
.............................. CYCLE   20 ..............................
........................................................................

 iter      E             dE          RMSdq      gap      omega  full diag
   1   -292.2616235 -0.292262E+03  0.102E-01    0.03       0.0  T
   2   -292.1986944  0.629291E-01  0.505E-01    0.10       1.0  T
   3   -292.2528139 -0.541195E-01  0.184E-01    0.06       1.0  T
   4   -292.2115607  0.412532E-01  0.465E-01    0.01       1.0  T
   5   -292.2476126 -0.360519E-01  0.265E-01    0.04       1.0  T
   6   -292.2609421 -0.133296E-01  0.750E-02    0.03       1.0  T
   7   -292.2614734 -0.531302E-03  0.572E-02    0.03       1.0  T
   8   -292.2620640 -0.590524E-03  0.199E-02    0.03       1.0  T
   9   -292.2621394 -0.754686E-04  0.542E-03    0.03       1.8  T
  10   -292.2621416 -0.218784E-05  0.375E-03    0.03       2.6  T
  11   -292.2621410  0.642357E-06  0.450E-03    0.03       2.1  T
  12   -292.2621437 -0.274298E-05  0.232E-03    0.03       4.1  T
  13   -292.2621446 -0.855922E-06  0.867E-04    0.03      11.0  T
  14   -292.2621447 -0.149139E-06  0.411E-04    0.03      23.3  T
     SCC iter.                  ...        0 min,  1.069 sec
     gradient                   ...        0 min,  0.041 sec
 * total energy  :  -290.1115169 Eh     change       -0.2054013E-02 Eh
   gradient norm :     0.0127754 Eh/α   predicted    -0.1912444E-02 (  -6.89%)
   displ. norm   :     0.8036114 α      lambda       -0.2217993E-02
   maximum displ.:     0.3855842 α      in ANC's #10, #7, #11, ...
 * RMSD in coord.:     1.1250215 α      energy gain  -0.4002888E+00 Eh

generating ANC from exact Hessian ...
Using Lindh-Hessian (1995)
 Shifting diagonal of input Hessian by    9.9731466105385958E-003
 Lowest  eigenvalues of input Hessian
    0.000000    0.000000    0.000000    0.000000    0.000000    0.000000
    0.010000    0.010083    0.010243    0.010328    0.010481    0.010616
    0.010807    0.010946    0.011087    0.011267    0.011502    0.011822
 Highest eigenvalues
    2.262163    2.265717    2.274250    2.309546    2.351023    2.360816


........................................................................
.............................. CYCLE   21 ..............................
........................................................................

 iter      E             dE          RMSdq      gap      omega  full diag
   1   -292.2646986 -0.292265E+03  0.103E-01    0.04       0.0  T
   2   -292.1769508  0.877478E-01  0.572E-01    0.15       1.0  T
   3   -292.2576049 -0.806542E-01  0.174E-01    0.05       1.0  T
   4   -292.2242850  0.333199E-01  0.443E-01    0.02       1.0  T
   5   -292.2612692 -0.369842E-01  0.145E-01    0.04       1.0  T
   6   -292.2633424 -0.207320E-02  0.974E-02    0.03       1.0  T
   7   -292.2647394 -0.139696E-02  0.596E-02    0.03       1.0  T
   8   -292.2653333 -0.593967E-03  0.243E-02    0.03       1.0  T
   9   -292.2654382 -0.104823E-03  0.802E-03    0.03       1.2  T
  10   -292.2654494 -0.111821E-04  0.355E-03    0.03       2.7  T
  11   -292.2654472  0.213290E-05  0.480E-03    0.03       2.0  T
  12   -292.2654510 -0.375924E-05  0.190E-03    0.03       5.0  T
  13   -292.2654517 -0.729557E-06  0.551E-04    0.03      17.4  T
  14   -292.2654518 -0.541213E-07  0.287E-04    0.03      33.4  T
     SCC iter.                  ...        0 min,  0.943 sec
     gradient                   ...        0 min,  0.039 sec
 * total energy  :  -290.1134292 Eh     change       -0.1912302E-02 Eh
   gradient norm :     0.0132828 Eh/α   predicted     0.0000000E+00 (-100.00%)
   displ. norm   :     0.2181520 α      lambda       -0.8614204E-03
   maximum displ.:     0.0878245 α      in ANC's #8, #6, #9, ...

........................................................................
.............................. CYCLE   22 ..............................
........................................................................

 iter      E             dE          RMSdq      gap      omega  full diag
   1   -292.2669977 -0.292267E+03  0.292E-02    0.03       0.0  T
   2   -292.2598312  0.716652E-02  0.173E-01    0.02       1.0  T
   3   -292.2665323 -0.670110E-02  0.434E-02    0.04       1.0  T
   4   -292.2567888  0.974353E-02  0.199E-01    0.03       1.0  T
   5   -292.2669678 -0.101790E-01  0.166E-02    0.03       1.0  T
   6   -292.2670021 -0.342825E-04  0.103E-02    0.03       1.0  T
   7   -292.2669714  0.306540E-04  0.153E-02    0.03       1.0  T
   8   -292.2670174 -0.459466E-04  0.580E-03    0.03       1.7  T
   9   -292.2670237 -0.638536E-05  0.186E-03    0.03       5.1  T
  10   -292.2670244 -0.648481E-06  0.724E-04    0.03      13.2  T
  11   -292.2670245 -0.759860E-07  0.295E-04    0.03      32.4  T
     SCC iter.                  ...        0 min,  0.882 sec
     gradient                   ...        0 min,  0.041 sec
 * total energy  :  -290.1142054 Eh     change       -0.7762581E-03 Eh
   gradient norm :     0.0082868 Eh/α   predicted    -0.4512178E-03 ( -41.87%)
   displ. norm   :     0.7019983 α      lambda       -0.2203025E-02
   maximum displ.:     0.2879389 α      in ANC's #8, #6, #15, ...

........................................................................
.............................. CYCLE   23 ..............................
........................................................................

 iter      E             dE          RMSdq      gap      omega  full diag
   1   -292.2693010 -0.292269E+03  0.752E-02    0.04       0.0  T
   2   -292.2241332  0.451678E-01  0.412E-01    0.03       1.0  T
   3   -292.2674142 -0.432810E-01  0.906E-02    0.04       1.0  T
   4   -292.2334422  0.339720E-01  0.384E-01    0.06       1.0  T
   5   -292.2685852 -0.351430E-01  0.626E-02    0.03       1.0  T
   6   -292.2685221  0.631846E-04  0.648E-02    0.03       1.0  T
   7   -292.2692657 -0.743599E-03  0.306E-02    0.03       1.0  T
   8   -292.2694205 -0.154805E-03  0.131E-02    0.03       1.0  T
   9   -292.2694459 -0.254260E-04  0.666E-03    0.03       1.4  T
  10   -292.2694542 -0.835125E-05  0.307E-03    0.03       3.1  T
  11   -292.2694559 -0.165011E-05  0.838E-04    0.03      11.4  T
  12   -292.2694557  0.156868E-06  0.117E-03    0.03       8.2  T
  13   -292.2694560 -0.221930E-06  0.426E-04    0.03      22.5  T
  14   -292.2694560 -0.412803E-07  0.193E-04    0.03      49.5  T
     SCC iter.                  ...        0 min,  0.985 sec
     gradient                   ...        0 min,  0.042 sec
 * total energy  :  -290.1160354 Eh     change       -0.1829939E-02 Eh
   gradient norm :     0.0088222 Eh/α   predicted    -0.1644340E-02 ( -10.14%)
   displ. norm   :     0.7625778 α      lambda       -0.1826290E-02
   maximum displ.:     0.3180004 α      in ANC's #8, #6, #15, ...

........................................................................
.............................. CYCLE   24 ..............................
........................................................................

 iter      E             dE          RMSdq      gap      omega  full diag
   1   -292.2696743 -0.292270E+03  0.737E-02    0.04       0.0  T
   2   -292.1976418  0.720325E-01  0.501E-01    0.09       1.0  T
   3   -292.2691079 -0.714661E-01  0.717E-02    0.04       1.0  T
   4   -292.2347730  0.343349E-01  0.415E-01    0.03       1.0  T
   5   -292.2636102 -0.288371E-01  0.176E-01    0.04       1.0  T
   6   -292.2693467 -0.573650E-02  0.534E-02    0.03       1.0  T
   7   -292.2698824 -0.535704E-03  0.224E-02    0.03       1.0  T
   8   -292.2699806 -0.982256E-04  0.628E-03    0.03       1.5  T
   9   -292.2699876 -0.700978E-05  0.239E-03    0.03       4.0  T
  10   -292.2699862  0.138280E-05  0.311E-03    0.03       3.1  T
  11   -292.2699884 -0.220774E-05  0.779E-04    0.03      12.3  T
  12   -292.2699885 -0.945173E-07  0.350E-04    0.03      27.4  T
  13   -292.2699885 -0.333171E-08  0.248E-04    0.03      38.6  T
     SCC iter.                  ...        0 min,  1.155 sec
     gradient                   ...        0 min,  0.040 sec
 * total energy  :  -290.1176845 Eh     change       -0.1649147E-02 Eh
   gradient norm :     0.0146326 Eh/α   predicted    -0.1444170E-02 ( -12.43%)
   displ. norm   :     0.8163885 α      lambda       -0.1925882E-02
   maximum displ.:     0.3450974 α      in ANC's #8, #6, #15, ...

........................................................................
.............................. CYCLE   25 ..............................
........................................................................

 iter      E             dE          RMSdq      gap      omega  full diag
   1   -292.2693464 -0.292269E+03  0.887E-02    0.04       0.0  T
   2   -292.1748141  0.945323E-01  0.592E-01    0.16       1.0  T
   3   -292.2645609 -0.897469E-01  0.157E-01    0.05       1.0  T
   4   -292.2596262  0.493469E-02  0.214E-01    0.02       1.0  T
   5   -292.2601511 -0.524894E-03  0.220E-01    0.04       1.0  T
   6   -292.2694369 -0.928575E-02  0.567E-02    0.04       1.0  T
   7   -292.2700098 -0.572923E-03  0.279E-02    0.04       1.0  T
   8   -292.2701932 -0.183378E-03  0.666E-03    0.04       1.4  T
   9   -292.2701970 -0.385422E-05  0.449E-03    0.03       2.1  T
  10   -292.2701975 -0.481031E-06  0.402E-03    0.04       2.4  T
  11   -292.2701991 -0.159098E-05  0.305E-03    0.04       3.1  T
  12   -292.2702017 -0.259682E-05  0.557E-04    0.03      17.2  T
  13   -292.2702017 -0.184874E-07  0.550E-04    0.03      17.4  T
  14   -292.2702018 -0.533153E-07  0.162E-04    0.03      59.1  T
     SCC iter.                  ...        0 min,  1.293 sec
     gradient                   ...        0 min,  0.041 sec
 * total energy  :  -290.1194536 Eh     change       -0.1769064E-02 Eh
   gradient norm :     0.0174224 Eh/α   predicted    -0.1604733E-02 (  -9.29%)
   displ. norm   :     0.7948986 α      lambda       -0.2074720E-02
   maximum displ.:     0.3486731 α      in ANC's #8, #6, #15, ...

........................................................................
.............................. CYCLE   26 ..............................
........................................................................

 iter      E             dE          RMSdq      gap      omega  full diag
   1   -292.2698421 -0.292270E+03  0.115E-01    0.04       0.0  T
   2   -292.1363271  0.133515E+00  0.698E-01    0.23       1.0  T
   3   -292.2551581 -0.118831E+00  0.250E-01    0.07       1.0  T
   4   -292.2633967 -0.823858E-02  0.184E-01    0.02       1.0  T
   5   -292.2637123 -0.315573E-03  0.198E-01    0.04       1.0  T
   6   -292.2704646 -0.675236E-02  0.758E-02    0.03       1.0  T
   7   -292.2716855 -0.122090E-02  0.218E-02    0.04       1.0  T
   8   -292.2715234  0.162071E-03  0.354E-02    0.04       1.0  T
   9   -292.2717879 -0.264442E-03  0.621E-03    0.04       1.5  T
  10   -292.2717890 -0.111732E-05  0.490E-03    0.04       2.0  T
  11   -292.2717921 -0.313619E-05  0.254E-03    0.04       3.8  T
  12   -292.2717934 -0.130686E-05  0.112E-03    0.04       8.6  T
  13   -292.2717936 -0.154154E-06  0.599E-04    0.04      16.0  T
  14   -292.2717936  0.510944E-07  0.734E-04    0.04      13.0  T
     SCC iter.                  ...        0 min,  1.320 sec
     gradient                   ...        0 min,  0.041 sec
 * total energy  :  -290.1213063 Eh     change       -0.1852692E-02 Eh
   gradient norm :     0.0171234 Eh/α   predicted    -0.1692836E-02 (  -8.63%)
   displ. norm   :     0.7364428 α      lambda       -0.2109038E-02
   maximum displ.:     0.3367263 α      in ANC's #8, #6, #4, ...

........................................................................
.............................. CYCLE   27 ..............................
........................................................................

 iter      E             dE          RMSdq      gap      omega  full diag
   1   -292.2718616 -0.292272E+03  0.149E-01    0.05       0.0  T
   2   -292.0740861  0.197775E+00  0.821E-01    0.28       1.0  T
   3   -292.2337083 -0.159622E+00  0.389E-01    0.12       1.0  T
   4   -292.2709694 -0.372612E-01  0.138E-01    0.03       1.0  T
   5   -292.2720943 -0.112482E-02  0.128E-01    0.04       1.0  T
   6   -292.2730556 -0.961331E-03  0.103E-01    0.03       1.0  T
   7   -292.2749340 -0.187843E-02  0.542E-02    0.03       1.0  T
   8   -292.2751518 -0.217820E-03  0.388E-02    0.04       1.0  T
   9   -292.2753563 -0.204426E-03  0.216E-02    0.04       1.0  T
  10   -292.2754558 -0.995395E-04  0.610E-03    0.04       1.6  T
  11   -292.2754595 -0.368384E-05  0.450E-03    0.04       2.1  T
  12   -292.2754621 -0.257550E-05  0.256E-03    0.04       3.7  T
  13   -292.2754628 -0.721142E-06  0.128E-03    0.04       7.5  T
  14   -292.2754630 -0.179628E-06  0.122E-03    0.04       7.8  T
  15   -292.2754632 -0.238393E-06  0.424E-04    0.04      22.6  T
  16   -292.2754632 -0.450166E-07  0.167E-04    0.04      57.5  T
     SCC iter.                  ...        0 min,  1.174 sec
     gradient                   ...        0 min,  0.043 sec
 * total energy  :  -290.1230898 Eh     change       -0.1783507E-02 Eh
   gradient norm :     0.0161533 Eh/α   predicted    -0.1626437E-02 (  -8.81%)
   displ. norm   :     0.7771994 α      lambda       -0.1858125E-02
   maximum displ.:     0.3464559 α      in ANC's #8, #6, #4, ...

........................................................................
.............................. CYCLE   28 ..............................
........................................................................

 iter      E             dE          RMSdq      gap      omega  full diag
   1   -292.2712993 -0.292271E+03  0.157E-01    0.05       0.0  T
   2   -292.0348287  0.236471E+00  0.884E-01    0.30       1.0  T
   3   -292.2265540 -0.191725E+00  0.424E-01    0.13       1.0  T
   4   -292.2720768 -0.455229E-01  0.129E-01    0.03       1.0  T
   5   -292.2732690 -0.119217E-02  0.106E-01    0.03       1.0  T
   6   -292.2726028  0.666224E-03  0.118E-01    0.03       1.0  T
   7   -292.2744101 -0.180734E-02  0.809E-02    0.04       1.0  T
   8   -292.2755271 -0.111693E-02  0.291E-02    0.04       1.0  T
   9   -292.2755608 -0.337788E-04  0.237E-02    0.04       1.0  T
  10   -292.2756863 -0.125517E-03  0.821E-03    0.04       1.2  T
  11   -292.2756830  0.335018E-05  0.887E-03    0.04       1.1  T
  12   -292.2756965 -0.135035E-04  0.281E-03    0.04       3.4  T
  13   -292.2756976 -0.112288E-05  0.137E-03    0.04       7.0  T
  14   -292.2756975  0.977430E-07  0.163E-03    0.04       5.9  T
  15   -292.2756980 -0.489348E-06  0.340E-04    0.04      28.1  T
  16   -292.2756980  0.524471E-08  0.373E-04    0.04      25.7  T
     SCC iter.                  ...        0 min,  1.158 sec
     gradient                   ...        0 min,  0.042 sec
 * total energy  :  -290.1247480 Eh     change       -0.1658250E-02 Eh
   gradient norm :     0.0164373 Eh/α   predicted    -0.1490253E-02 ( -10.13%)
   displ. norm   :     0.7190758 α      lambda       -0.2027331E-02
   maximum displ.:     0.3026712 α      in ANC's #8, #6, #4, ...

........................................................................
.............................. CYCLE   29 ..............................
........................................................................

 iter      E             dE          RMSdq      gap      omega  full diag
   1   -292.2769137 -0.292277E+03  0.176E-01    0.05       0.0  T
   2   -292.0579837  0.218930E+00  0.870E-01    0.28       1.0  T
   3   -292.2169917 -0.159008E+00  0.484E-01    0.17       1.0  T
   4   -292.2783886 -0.613969E-01  0.142E-01    0.03       1.0  T
   5   -292.2782136  0.174977E-03  0.135E-01    0.04       1.0  T
   6   -292.2786362 -0.422588E-03  0.128E-01    0.03       1.0  T
   7   -292.2792470 -0.610766E-03  0.125E-01    0.04       1.0  T
   8   -292.2820813 -0.283435E-02  0.350E-02    0.05       1.0  T
   9   -292.2821034 -0.220725E-04  0.318E-02    0.05       1.0  T
  10   -292.2823560 -0.252584E-03  0.801E-03    0.04       1.2  T
  11   -292.2823552  0.782011E-06  0.741E-03    0.04       1.3  T
  12   -292.2823600 -0.485355E-05  0.459E-03    0.04       2.1  T
  13   -292.2823647 -0.468290E-05  0.191E-03    0.04       5.0  T
  14   -292.2823646  0.819935E-07  0.191E-03    0.04       5.0  T
  15   -292.2823654 -0.770725E-06  0.676E-04    0.04      14.2  T
  16   -292.2823654 -0.238582E-07  0.568E-04    0.04      16.9  T
     SCC iter.                  ...        0 min,  1.190 sec
     gradient                   ...        0 min,  0.044 sec
 * total energy  :  -290.1263564 Eh     change       -0.1608403E-02 Eh
   gradient norm :     0.0144603 Eh/α   predicted    -0.1537807E-02 (  -4.39%)
   displ. norm   :     0.8315589 α      lambda       -0.1880516E-02
   maximum displ.:     0.3283486 α      in ANC's #8, #6, #15, ...

........................................................................
.............................. CYCLE   30 ..............................
........................................................................

 iter      E             dE          RMSdq      gap      omega  full diag
   1   -292.2750481 -0.292275E+03  0.148E-01    0.06       0.0  T
   2   -292.0931444  0.181904E+00  0.808E-01    0.25       1.0  T
   3   -292.2362155 -0.143071E+00  0.392E-01    0.13       1.0  T
   4   -292.2752140 -0.389985E-01  0.127E-01    0.03       1.0  T
   5   -292.2734177  0.179625E-02  0.154E-01    0.04       1.0  T
   6   -292.2759067 -0.248899E-02  0.108E-01    0.04       1.0  T
   7   -292.2772848 -0.137808E-02  0.891E-02    0.04       1.0  T
   8   -292.2784795 -0.119466E-02  0.382E-02    0.05       1.0  T
   9   -292.2786698 -0.190335E-03  0.202E-02    0.05       1.0  T
  10   -292.2787608 -0.910065E-04  0.867E-03    0.05       1.1  T
  11   -292.2787742 -0.133990E-04  0.383E-03    0.05       2.5  T
  12   -292.2787766 -0.239696E-05  0.105E-03    0.04       9.1  T
  13   -292.2787761  0.516057E-06  0.196E-03    0.04       4.9  T
  14   -292.2787768 -0.675936E-06  0.549E-04    0.04      17.4  T
  15   -292.2787768 -0.334434E-07  0.420E-04    0.04      22.8  T
     SCC iter.                  ...        0 min,  1.012 sec
     gradient                   ...        0 min,  0.041 sec
 * total energy  :  -290.1279151 Eh     change       -0.1558700E-02 Eh
   gradient norm :     0.0152724 Eh/α   predicted    -0.1590446E-02 (   2.04%)
   displ. norm   :     0.6884288 α      lambda       -0.1734515E-02
   maximum displ.:     0.2599716 α      in ANC's #6, #8, #1, ...

........................................................................
.............................. CYCLE   31 ..............................
........................................................................

 iter      E             dE          RMSdq      gap      omega  full diag
   1   -292.2816242 -0.292282E+03  0.113E-01    0.05       0.0  T
   2   -292.1914731  0.901511E-01  0.622E-01    0.10       1.0  T
   3   -292.2491110 -0.576379E-01  0.349E-01    0.12       1.0  T
   4   -292.2782347 -0.291238E-01  0.143E-01    0.03       1.0  T
   5   -292.2794192 -0.118449E-02  0.135E-01    0.04       1.0  T
   6   -292.2822775 -0.285832E-02  0.704E-02    0.06       1.0  T
   7   -292.2826082 -0.330639E-03  0.602E-02    0.05       1.0  T
   8   -292.2834227 -0.814469E-03  0.128E-02    0.05       1.0  T
   9   -292.2833926  0.300929E-04  0.184E-02    0.05       1.0  T
  10   -292.2834543 -0.617152E-04  0.570E-03    0.05       1.7  T
  11   -292.2834557 -0.144730E-05  0.512E-03    0.05       1.9  T
  12   -292.2834605 -0.479100E-05  0.142E-03    0.05       6.7  T
  13   -292.2834610 -0.524293E-06  0.443E-04    0.05      21.6  T
  14   -292.2834610 -0.840089E-08  0.329E-04    0.05      29.1  T
     SCC iter.                  ...        0 min,  1.002 sec
     gradient                   ...        0 min,  0.049 sec
 * total energy  :  -290.1293720 Eh     change       -0.1456878E-02 Eh
   gradient norm :     0.0152570 Eh/α   predicted    -0.1278292E-02 ( -12.26%)
   displ. norm   :     0.7323087 α      lambda       -0.1651093E-02
   maximum displ.:     0.2730206 α      in ANC's #6, #1, #8, ...

........................................................................
.............................. CYCLE   32 ..............................
........................................................................

 iter      E             dE          RMSdq      gap      omega  full diag
   1   -292.2853107 -0.292285E+03  0.106E-01    0.06       0.0  T
   2   -292.2166572  0.686535E-01  0.550E-01    0.06       1.0  T
   3   -292.2556734 -0.390162E-01  0.330E-01    0.11       1.0  T
   4   -292.2823732 -0.266998E-01  0.131E-01    0.04       1.0  T
   5   -292.2829592 -0.585928E-03  0.130E-01    0.05       1.0  T
   6   -292.2854574 -0.249824E-02  0.718E-02    0.06       1.0  T
   7   -292.2864001 -0.942698E-03  0.361E-02    0.06       1.0  T
   8   -292.2867127 -0.312607E-03  0.115E-02    0.05       1.0  T
   9   -292.2867187 -0.598397E-05  0.113E-02    0.05       1.0  T
  10   -292.2867414 -0.227504E-04  0.362E-03    0.05       2.6  T
  11   -292.2867392  0.221778E-05  0.488E-03    0.05       2.0  T
  12   -292.2867440 -0.473631E-05  0.915E-04    0.05      10.5  T
  13   -292.2867441 -0.197791E-06  0.367E-04    0.05      26.1  T
  14   -292.2867442 -0.882392E-08  0.254E-04    0.05      37.8  T
     SCC iter.                  ...        0 min,  1.133 sec
     gradient                   ...        0 min,  0.047 sec
 * total energy  :  -290.1308183 Eh     change       -0.1446316E-02 Eh
   gradient norm :     0.0140486 Eh/α   predicted    -0.1268271E-02 ( -12.31%)
   displ. norm   :     0.7232471 α      lambda       -0.1744178E-02
   maximum displ.:     0.3019882 α      in ANC's #1, #6, #15, ...

........................................................................
.............................. CYCLE   33 ..............................
........................................................................

 iter      E             dE          RMSdq      gap      omega  full diag
   1   -292.2930465 -0.292293E+03  0.687E-02    0.05       0.0  T
   2   -292.2832798  0.976663E-02  0.203E-01    0.07       1.0  T
   3   -292.2863828 -0.310301E-02  0.163E-01    0.04       1.0  T
   4   -292.2538197  0.325632E-01  0.400E-01    0.08       1.0  T
   5   -292.2923048 -0.384851E-01  0.660E-02    0.05       1.0  T
   6   -292.2916208  0.683923E-03  0.755E-02    0.06       1.0  T
   7   -292.2928771 -0.125626E-02  0.350E-02    0.05       1.0  T
   8   -292.2931335 -0.256389E-03  0.119E-02    0.05       1.0  T
   9   -292.2931619 -0.284041E-04  0.254E-03    0.05       3.8  T
  10   -292.2931627 -0.821245E-06  0.127E-03    0.05       7.5  T
  11   -292.2931625  0.225520E-06  0.147E-03    0.05       6.5  T
  12   -292.2931630 -0.465800E-06  0.491E-04    0.05      19.5  T
  13   -292.2931630 -0.269700E-07  0.358E-04    0.05      26.8  T
     SCC iter.                  ...        0 min,  0.981 sec
     gradient                   ...        0 min,  0.041 sec
 * total energy  :  -290.1322161 Eh     change       -0.1397791E-02 Eh
   gradient norm :     0.0120242 Eh/α   predicted    -0.1328274E-02 (  -4.97%)
   displ. norm   :     0.8319051 α      lambda       -0.1675518E-02
   maximum displ.:     0.3170440 α      in ANC's #1, #6, #15, ...

........................................................................
.............................. CYCLE   34 ..............................
........................................................................

 iter      E             dE          RMSdq      gap      omega  full diag
   1   -292.2886390 -0.292289E+03  0.109E-01    0.06       0.0  T
   2   -292.2079775  0.806615E-01  0.586E-01    0.09       1.0  T
   3   -292.2615010 -0.535235E-01  0.315E-01    0.12       1.0  T
   4   -292.2829238 -0.214228E-01  0.168E-01    0.04       1.0  T
   5   -292.2828457  0.781250E-04  0.178E-01    0.05       1.0  T
   6   -292.2885712 -0.572551E-02  0.741E-02    0.06       1.0  T
   7   -292.2896860 -0.111485E-02  0.281E-02    0.06       1.0  T
   8   -292.2898720 -0.185964E-03  0.128E-02    0.05       1.0  T
   9   -292.2898988 -0.268261E-04  0.795E-03    0.05       1.2  T
  10   -292.2899074 -0.857122E-05  0.416E-03    0.05       2.3  T
  11   -292.2899091 -0.165344E-05  0.312E-03    0.05       3.1  T
  12   -292.2899113 -0.226662E-05  0.522E-04    0.05      18.4  T
  13   -292.2899114 -0.338466E-07  0.383E-04    0.05      25.0  T
  14   -292.2899114 -0.230087E-07  0.173E-04    0.05      55.5  T
     SCC iter.                  ...        0 min,  0.916 sec
     gradient                   ...        0 min,  0.042 sec
 * total energy  :  -290.1335822 Eh     change       -0.1366113E-02 Eh
   gradient norm :     0.0142833 Eh/α   predicted    -0.1417552E-02 (   3.77%)
   displ. norm   :     0.7079419 α      lambda       -0.1469721E-02
   maximum displ.:     0.3379381 α      in ANC's #1, #6, #4, ...

........................................................................
.............................. CYCLE   35 ..............................
........................................................................

 iter      E             dE          RMSdq      gap      omega  full diag
   1   -292.2926186 -0.292293E+03  0.720E-02    0.06       0.0  T
   2   -292.2909315  0.168713E-02  0.973E-02    0.05       1.0  T
   3   -292.2697460  0.211855E-01  0.310E-01    0.07       1.0  T
   4   -292.2597297  0.100163E-01  0.338E-01    0.05       1.0  T
   5   -292.2886158 -0.288861E-01  0.130E-01    0.06       1.0  T
   6   -292.2923869 -0.377113E-02  0.358E-02    0.06       1.0  T
   7   -292.2926162 -0.229263E-03  0.123E-02    0.06       1.0  T
   8   -292.2926335 -0.173087E-04  0.813E-03    0.06       1.2  T
   9   -292.2926479 -0.144211E-04  0.219E-03    0.06       4.4  T
  10   -292.2926485 -0.619263E-06  0.120E-03    0.06       8.0  T
  11   -292.2926488 -0.275820E-06  0.497E-04    0.06      19.3  T
  12   -292.2926488 -0.241058E-07  0.298E-04    0.06      32.2  T
     SCC iter.                  ...        0 min,  0.931 sec
     gradient                   ...        0 min,  0.042 sec
 * total energy  :  -290.1348599 Eh     change       -0.1277627E-02 Eh
   gradient norm :     0.0143076 Eh/α   predicted    -0.1103169E-02 ( -13.65%)
   displ. norm   :     0.7212833 α      lambda       -0.1636880E-02
   maximum displ.:     0.3448427 α      in ANC's #1, #4, #15, ...

........................................................................
.............................. CYCLE   36 ..............................
........................................................................

 iter      E             dE          RMSdq      gap      omega  full diag
   1   -292.2933888 -0.292293E+03  0.851E-02    0.05       0.0  T
   2   -292.2815945  0.117943E-01  0.238E-01    0.07       1.0  T
   3   -292.2892812 -0.768673E-02  0.144E-01    0.06       1.0  T
   4   -292.2783470  0.109342E-01  0.257E-01    0.05       1.0  T
   5   -292.2924692 -0.141222E-01  0.627E-02    0.06       1.0  T
   6   -292.2852543  0.721495E-02  0.177E-01    0.04       1.0  T
   7   -292.2934306 -0.817628E-02  0.214E-02    0.06       1.0  T
   8   -292.2934988 -0.682387E-04  0.112E-02    0.06       1.0  T
   9   -292.2935264 -0.275873E-04  0.320E-03    0.06       3.0  T
  10   -292.2935279 -0.155606E-05  0.102E-03    0.06       9.4  T
  11   -292.2935280 -0.129074E-07  0.813E-04    0.06      11.8  T
  12   -292.2935280 -0.700181E-07  0.512E-04    0.06      18.7  T
     SCC iter.                  ...        0 min,  0.824 sec
     gradient                   ...        0 min,  0.039 sec
 * total energy  :  -290.1362402 Eh     change       -0.1380369E-02 Eh
   gradient norm :     0.0113667 Eh/α   predicted    -0.1244234E-02 (  -9.86%)
   displ. norm   :     0.7893214 α      lambda       -0.1515667E-02
   maximum displ.:     0.4111677 α      in ANC's #1, #4, #2, ...

........................................................................
.............................. CYCLE   37 ..............................
........................................................................

 iter      E             dE          RMSdq      gap      omega  full diag
   1   -292.2951813 -0.292295E+03  0.961E-02    0.05       0.0  T
   2   -292.2791968  0.159845E-01  0.256E-01    0.10       1.0  T
   3   -292.2760671  0.312969E-02  0.273E-01    0.04       1.0  T
   4   -292.2650600  0.110071E-01  0.361E-01    0.08       1.0  T
   5   -292.2903613 -0.253013E-01  0.139E-01    0.05       1.0  T
   6   -292.2931412 -0.277990E-02  0.932E-02    0.06       1.0  T
   7   -292.2951322 -0.199107E-02  0.281E-02    0.06       1.0  T
   8   -292.2952620 -0.129774E-03  0.146E-02    0.06       1.0  T
   9   -292.2952996 -0.375518E-04  0.604E-03    0.06       1.6  T
  10   -292.2953071 -0.752712E-05  0.249E-03    0.06       3.8  T
  11   -292.2953082 -0.107747E-05  0.114E-03    0.06       8.4  T
  12   -292.2953083 -0.107609E-06  0.741E-04    0.06      12.9  T
  13   -292.2953084 -0.104960E-06  0.308E-04    0.06      31.1  T
     SCC iter.                  ...        0 min,  1.101 sec
     gradient                   ...        0 min,  0.042 sec
 * total energy  :  -290.1375962 Eh     change       -0.1355955E-02 Eh
   gradient norm :     0.0112561 Eh/α   predicted    -0.1229988E-02 (  -9.29%)
   displ. norm   :     0.8089060 α      lambda       -0.1553908E-02
   maximum displ.:     0.4113975 α      in ANC's #1, #4, #15, ...

........................................................................
.............................. CYCLE   38 ..............................
........................................................................

 iter      E             dE          RMSdq      gap      omega  full diag
   1   -292.2962434 -0.292296E+03  0.105E-01    0.05       0.0  T
   2   -292.2743862  0.218573E-01  0.320E-01    0.10       1.0  T
   3   -292.2837988 -0.941266E-02  0.237E-01    0.04       1.0  T
   4   -292.2570434  0.267554E-01  0.396E-01    0.09       1.0  T
   5   -292.2602171 -0.317374E-02  0.353E-01    0.05       1.0  T
   6   -292.2949115 -0.346944E-01  0.838E-02    0.06       1.0  T
   7   -292.2962976 -0.138605E-02  0.341E-02    0.06       1.0  T
   8   -292.2964501 -0.152562E-03  0.206E-02    0.06       1.0  T
   9   -292.2965288 -0.786258E-04  0.799E-03    0.06       1.2  T
  10   -292.2965433 -0.145007E-04  0.276E-03    0.06       3.5  T
  11   -292.2965432  0.494967E-07  0.245E-03    0.06       3.9  T
  12   -292.2965440 -0.841850E-06  0.136E-03    0.06       7.0  T
  13   -292.2965445 -0.448309E-06  0.414E-04    0.06      23.1  T
  14   -292.2965445 -0.190392E-07  0.268E-04    0.06      35.7  T
     SCC iter.                  ...        0 min,  0.930 sec
     gradient                   ...        0 min,  0.042 sec
 * total energy  :  -290.1389115 Eh     change       -0.1315275E-02 Eh
   gradient norm :     0.0117766 Eh/α   predicted    -0.1285337E-02 (  -2.28%)
   displ. norm   :     0.7846447 α      lambda       -0.1762442E-02
   maximum displ.:     0.4194762 α      in ANC's #1, #4, #12, ...

........................................................................
.............................. CYCLE   39 ..............................
........................................................................

 iter      E             dE          RMSdq      gap      omega  full diag
   1   -292.2979500 -0.292298E+03  0.147E-01    0.05       0.0  T
   2   -292.1883840  0.109566E+00  0.670E-01    0.12       1.0  T
   3   -292.2947206 -0.106337E+00  0.155E-01    0.05       1.0  T
   4   -292.2622377  0.324829E-01  0.408E-01    0.08       1.0  T
   5   -292.2814025 -0.191648E-01  0.266E-01    0.05       1.0  T
   6   -292.2931560 -0.117534E-01  0.152E-01    0.07       1.0  T
   7   -292.2991319 -0.597591E-02  0.379E-02    0.06       1.0  T
   8   -292.2992186 -0.866837E-04  0.329E-02    0.05       1.0  T
   9   -292.2993985 -0.179906E-03  0.159E-02    0.06       1.0  T
  10   -292.2994566 -0.581483E-04  0.706E-03    0.06       1.4  T
  11   -292.2994472  0.941931E-05  0.884E-03    0.06       1.1  T
  12   -292.2994683 -0.210974E-04  0.141E-03    0.06       6.8  T
  13   -292.2994686 -0.328694E-06  0.767E-04    0.06      12.5  T
  14   -292.2994687 -0.822510E-07  0.389E-04    0.06      24.6  T
     SCC iter.                  ...        0 min,  1.017 sec
     gradient                   ...        0 min,  0.039 sec
[...]
   A. Katbashev, J. Kohn, J. Koopman, C. Lavigne, S. Lehtola, F. März, M. Müller,
   F. Musil, H. Neugebauer, J. Pisarek, C. Plett, P. Pracht, F. Pultar,
   J. Seibert, P. Shushkov, S. Spicher, M. Stahn, M. Steiner, T. Strunk,
   J. Stückrath, T. Rose, and J. Unsleber
   
 * started run on 2025/03/06 at 15:06:13.065     
   ID    Z sym.   atoms
    1    6 C      1-9, 11, 12, 14-21, 23-31, 33, 34, 36-43, 47, 48, 50, 51,
                  110-118, 120, 121, 123-130, 132-140, 142, 143, 145-152,
                  156, 157, 159, 160
    2    7 N      10, 13, 32, 35, 46, 49, 119, 122, 141, 144, 155, 158
    3    8 O      22, 44, 131, 153
    4    5 B      45, 154
    5   16 S      52, 58, 64, 70, 76, 82, 161, 167, 173, 179, 185, 191
    6    9 F      53-57, 59-63, 65-69, 71-75, 77-81, 83-87, 162-166, 168-172,
                  174-178, 180-184, 186-190, 192-196
    7    1 H      88-109, 197-218

           -------------------------------------------------
          |                Calculation Setup                |
           -------------------------------------------------

          program call               : xtb opt_dimer.mol --dipro 0.3 --chrg 0 --uhf 2 --gfn 2
          coordinate file            : opt_dimer.mol
          omp threads                :                     8


molecular fragmentation (1/2 indicates fragments):
111111111111111111111111111111111111111111111111111111111111111111111111
111111111111111111111111111111111111122222222222222222222222222222222222
222222222222222222222222222222222222222222222222222222222222222222222222
22
# atoms in fragment 1/2:   109   109
 fragment masses (1/2) :     1415.82     1415.82
CMA distance (Bohr)    :  12.975
constraining FC (au)   :  0.0500

           -------------------------------------------------
          |                 G F N 2 - x T B                 |
           -------------------------------------------------

        Reference                      10.1021/acs.jctc.8b01176
      * Hamiltonian:
        H0-scaling (s, p, d)           1.850000    2.230000    2.230000
        zeta-weighting                 0.500000
      * Dispersion:
        s8                             2.700000
        a1                             0.520000
        a2                             5.000000
        s9                             5.000000
      * Repulsion:
        kExp                           1.500000    1.000000
        rExp                           1.000000
      * Coulomb:
        alpha                          2.000000
        third order                    shell-resolved
        anisotropic                    true
        a3                             3.000000
        a5                             4.000000
        cn-shift                       1.200000
        cn-exp                         4.000000
        max-rad                        5.000000

q/qsh data taken from xtbrestart
CAMM data taken from xtbrestart
           -------------------------------------------------
          |                    D I P R O                    |
           -------------------------------------------------
Calculation for dimer 
--------------------- 
  
charge of dimer :   0.
unpaired e- of dimer :  2
repulsion energy          4.3309295515768E+00 Eh
dispersion energy         4.0290614402954E-02 Eh
number of electrons       9.6200000000000E+02 e
integral cutoff           1.9311100799991E+01 bohr

------------------------------------------------------------
  cycle        total energy    energy error   density error
------------------------------------------------------------
      1     -578.0733583203  -5.8244458E+02   2.6460915E-01
      2     -578.6027671093  -5.2940879E-01   1.4516504E-01
      3     -575.1027822637   3.4999848E+00   1.1809583E-01
      4     -560.6031629965   1.4499619E+01   1.2515105E-01
      5     -564.0137598636  -3.4105969E+00   1.0731377E-01
      6     -579.2847162813  -1.5270956E+01   5.4308794E-02
      7     -579.9423754178  -6.5765914E-01   3.7436175E-02
      8     -579.2413486442   7.0102677E-01   4.4473989E-02
      9     -579.9849544415  -7.4360580E-01   3.0321306E-02
     10     -579.6603909868   3.2456345E-01   3.3905415E-02
     11     -580.0955435575  -4.3515257E-01   2.6129750E-02
     12     -580.2067501152  -1.1120656E-01   2.3672016E-02
     13     -580.2661726577  -5.9422542E-02   1.9362811E-02
     14     -580.1447953318   1.2137733E-01   2.5563093E-02
     15     -580.2513763744  -1.0658104E-01   1.6221810E-02
     16     -580.2856476774  -3.4271303E-02   1.4468390E-02
     17     -580.3778341208  -9.2186443E-02   8.3245081E-03
     18     -580.3557322400   2.2101881E-02   1.0878284E-02
     19     -580.3912657360  -3.5533496E-02   6.0650618E-03
     20     -580.3955364252  -4.2706892E-03   5.9408598E-03
     21     -580.4027946550  -7.2582298E-03   3.9787412E-03
     22     -580.3982898957   4.5047593E-03   5.5753583E-03
     23     -580.4084495003  -1.0159605E-02   2.2763125E-03
     24     -580.4107905223  -2.3410220E-03   1.3542600E-03
     25     -580.4106867162   1.0380614E-04   1.2495557E-03
     26     -580.4107764934  -8.9777218E-05   1.0439791E-03
     27     -580.4111373962  -3.6090286E-04   6.8219076E-04
     28     -580.4113921126  -2.5471639E-04   3.2019531E-04
     29     -580.4113678368   2.4275777E-05   3.1713745E-04
     30     -580.4114380256  -7.0188781E-05   1.0074768E-04
     31     -580.4114390809  -1.0553074E-06   6.0634579E-05
     32     -580.4114400706  -9.8968599E-07   4.9166446E-05
     33     -580.4114400010   6.9574298E-08   4.9938250E-05
     34     -580.4114405539  -5.5281157E-07   3.7974410E-05
     35     -580.4114412597  -7.0588294E-07   1.2146708E-05
------------------------------------------------------------

electronic energy        -5.8478266142572E+02 Eh
total energy             -5.8041144125974E+02 Eh

 total:                                  36.003 sec
 - repulsion                              0.000 sec (  0%)
 - dispersion                             0.019 sec (  0%)
 - coulomb                                0.007 sec (  0%)
 - hamiltonian                            0.024 sec (  0%)
 - scc                                   35.953 sec ( 99%)

Found 2 fragments!
Fragment 1:  1-109
Fragment 2:  110-218

[Info] Fragment spin read from .UHFfrag
Calculation for fragment 1
 ------------------------------
   
charge of fragment :   0.
unpaired e- of fragment :  1
------------------------------------------------------------
  cycle        total energy    energy error   density error
------------------------------------------------------------
      1     -288.9628763404  -2.9113318E+02   2.6500987E-01
      2     -289.2758455235  -3.1296918E-01   1.4319283E-01
      3     -288.5763002240   6.9954530E-01   1.1051755E-01
      4     -289.1281809607  -5.5188074E-01   6.9663740E-02
      5     -289.5100810139  -3.8190005E-01   4.8082269E-02
      6     -289.5105705576  -4.8954363E-04   4.7654310E-02
      7     -289.8727942039  -3.6222365E-01   3.5978266E-02
      8     -290.0100865438  -1.3729234E-01   2.7933220E-02
      9     -290.0770475570  -6.6961013E-02   2.0097830E-02
     10     -290.0779382307  -8.9067377E-04   1.7094784E-02
     11     -290.0896174359  -1.1679205E-02   1.5637151E-02
     12     -290.0941514141  -4.5339782E-03   1.3155669E-02
     13     -290.0486550133   4.5496401E-02   1.9214519E-02
     14     -290.1261820991  -7.7527086E-02   6.1297936E-03
     15     -290.1146061645   1.1575935E-02   8.4508059E-03
     16     -290.1311830126  -1.6576848E-02   4.0136414E-03
     17     -290.1304851730   6.9783956E-04   4.0574385E-03
     18     -290.1330424768  -2.5573038E-03   1.9758580E-03
     19     -290.1341226088  -1.0801320E-03   7.6232073E-04
     20     -290.1342151489  -9.2540078E-05   4.1205087E-04
     21     -290.1342624758  -4.7326971E-05   1.1370575E-04
     22     -290.1342640641  -1.5882945E-06   7.2413801E-05
     23     -290.1342644410  -3.7688017E-07   5.1424523E-05
     24     -290.1342646265  -1.8551560E-07   4.0749204E-05
     25     -290.1342647323  -1.0573444E-07   3.3287172E-05
     26     -290.1342650744  -3.4208796E-07   7.4218211E-06
------------------------------------------------------------

 total:                                   8.783 sec
Calculation for fragment 2
 ------------------------------
   
charge of fragment :   0.
unpaired e- of fragment :  1
------------------------------------------------------------
  cycle        total energy    energy error   density error
------------------------------------------------------------
      1     -288.9622978391  -2.9113601E+02   2.6421827E-01
      2     -289.2102020788  -2.4790424E-01   1.4506994E-01
      3     -288.7109775006   4.9922458E-01   1.1092866E-01
      4     -289.2836081574  -5.7263066E-01   6.9299568E-02
      5     -289.5583130608  -2.7470490E-01   4.8823014E-02
      6     -289.5709189972  -1.2605936E-02   4.7349349E-02
      7     -289.9373507173  -3.6643172E-01   3.2497266E-02
      8     -289.9506229201  -1.3272203E-02   3.0303099E-02
      9     -290.0319732872  -8.1350367E-02   2.4365550E-02
     10     -290.1079747515  -7.6001464E-02   1.3848230E-02
     11     -289.9793431234   1.2863163E-01   2.5494479E-02
     12     -290.0967126440  -1.1736952E-01   1.3365148E-02
     13     -290.1101117256  -1.3399082E-02   1.0069946E-02
     14     -290.1053167246   4.7950010E-03   9.4181437E-03
     15     -290.0893912107   1.5925514E-02   1.4766947E-02
     16     -290.1285366650  -3.9145454E-02   3.7360930E-03
     17     -290.1279279064   6.0875862E-04   5.0274618E-03
     18     -290.1320359837  -4.1080773E-03   1.0541167E-03
     19     -290.1323301308  -2.9414712E-04   3.6770780E-04
     20     -290.1323265646   3.5662902E-06   3.5244479E-04
     21     -290.1323578390  -3.1274463E-05   1.6141303E-04
     22     -290.1323625279  -4.6889150E-06   3.6522162E-05
     23     -290.1323616170   9.1092863E-07   6.5964241E-05
     24     -290.1323622371  -6.2008019E-07   3.8138916E-05
     25     -290.1323626640  -4.2693620E-07   1.3981192E-05
------------------------------------------------------------

 total:                                   8.647 sec
   
   ::::::::::::::::::::::::::::::::::::::::::::::
   ::     D I P R O      C O U P L I N G S     ::
   ::::::::::::::::::::::::::::::::::::::::::::::
   
energy threshhold for near-degenerate orbitals near HOMO and LUMO considered for DIPRO:  0.300 eV
no. of orbitals within energy window of frag 1         6
no. of orbitals within energy window of frag 2         6
   
  Fragment 1 SOMO-3  Fragment 2 SOMO-3
--------------------------------------
E_mon(orb) frag1 frag2             -12.022   -12.045 eV
J(AB):               -0.000 eV
S(AB):             0.00002126 Eh
|J(AB,eff)|:            0.000 eV
   
  Fragment 1 SOMO-3  Fragment 2 SOMO-2
--------------------------------------
E_mon(orb) frag1 frag2             -12.022   -11.967 eV
J(AB):                0.000 eV
S(AB):            -0.00001071 Eh
|J(AB,eff)|:            0.000 eV
   
  Fragment 1 SOMO-3  Fragment 2 SOMO-1
--------------------------------------
E_mon(orb) frag1 frag2             -12.022   -11.866 eV
J(AB):               -0.001 eV
S(AB):             0.00004702 Eh
|J(AB,eff)|:            0.001 eV
   
  Fragment 1 SOMO-3  Fragment 2 SOMO 
--------------------------------------
E_mon(orb) frag1 frag2             -12.022   -11.790 eV
J(AB):               -0.001 eV
S(AB):             0.00004313 Eh
|J(AB,eff)|:            0.000 eV
   
  Fragment 1 SOMO-3  Fragment 2 LUMO 
--------------------------------------
E_mon(orb) frag1 frag2             -12.022   -11.720 eV
J(AB):               -0.001 eV
S(AB):             0.00001681 Eh
|J(AB,eff)|:            0.000 eV
   
  Fragment 1 SOMO-3  Fragment 2 LUMO+1
--------------------------------------
E_mon(orb) frag1 frag2             -12.022   -11.668 eV
J(AB):               -0.001 eV
S(AB):             0.00005968 Eh
|J(AB,eff)|:            0.001 eV
   
  Fragment 1 SOMO-2  Fragment 2 SOMO-3
--------------------------------------
E_mon(orb) frag1 frag2             -12.000   -12.045 eV
J(AB):               -0.003 eV
S(AB):             0.00012297 Eh
|J(AB,eff)|:            0.001 eV
   
  Fragment 1 SOMO-2  Fragment 2 SOMO-2
--------------------------------------
E_mon(orb) frag1 frag2             -12.000   -11.967 eV
J(AB):                0.001 eV
S(AB):            -0.00005161 Eh
|J(AB,eff)|:            0.001 eV
   
  Fragment 1 SOMO-2  Fragment 2 SOMO-1
--------------------------------------
E_mon(orb) frag1 frag2             -12.000   -11.866 eV
J(AB):               -0.005 eV
S(AB):             0.00020306 Eh
|J(AB,eff)|:            0.003 eV
   
  Fragment 1 SOMO-2  Fragment 2 SOMO 
--------------------------------------
E_mon(orb) frag1 frag2             -12.000   -11.790 eV
J(AB):                0.003 eV
S(AB):            -0.00012238 Eh
|J(AB,eff)|:            0.002 eV
   
  Fragment 1 SOMO-2  Fragment 2 LUMO 
--------------------------------------
E_mon(orb) frag1 frag2             -12.000   -11.720 eV
J(AB):                0.001 eV
S(AB):            -0.00005516 Eh
|J(AB,eff)|:            0.001 eV
   
  Fragment 1 SOMO-2  Fragment 2 LUMO+1
--------------------------------------
E_mon(orb) frag1 frag2             -12.000   -11.668 eV
J(AB):               -0.004 eV
S(AB):             0.00017205 Eh
|J(AB,eff)|:            0.002 eV
   
  Fragment 1 SOMO-1  Fragment 2 SOMO-3
--------------------------------------
E_mon(orb) frag1 frag2             -11.922   -12.045 eV
J(AB):               -0.001 eV
S(AB):             0.00005171 Eh
|J(AB,eff)|:            0.001 eV
   
  Fragment 1 SOMO-1  Fragment 2 SOMO-2
--------------------------------------
E_mon(orb) frag1 frag2             -11.922   -11.967 eV
J(AB):                0.003 eV
S(AB):            -0.00012212 Eh
|J(AB,eff)|:            0.002 eV
   
  Fragment 1 SOMO-1  Fragment 2 SOMO-1
--------------------------------------
E_mon(orb) frag1 frag2             -11.922   -11.866 eV
J(AB):               -0.010 eV
S(AB):             0.00038443 Eh
|J(AB,eff)|:            0.005 eV
   
  Fragment 1 SOMO-1  Fragment 2 SOMO 
--------------------------------------
E_mon(orb) frag1 frag2             -11.922   -11.790 eV
J(AB):                0.008 eV
S(AB):            -0.00032683 Eh
|J(AB,eff)|:            0.004 eV
   
  Fragment 1 SOMO-1  Fragment 2 LUMO 
--------------------------------------
E_mon(orb) frag1 frag2             -11.922   -11.720 eV
J(AB):                0.000 eV
S(AB):             0.00000066 Eh
|J(AB,eff)|:            0.000 eV
   
  Fragment 1 SOMO-1  Fragment 2 LUMO+1
--------------------------------------
E_mon(orb) frag1 frag2             -11.922   -11.668 eV
J(AB):               -0.003 eV
S(AB):             0.00010836 Eh
|J(AB,eff)|:            0.002 eV
   
  Fragment 1 SOMO   Fragment 2 SOMO-3
--------------------------------------
E_mon(orb) frag1 frag2             -11.780   -12.045 eV
J(AB):               -0.001 eV
S(AB):             0.00003437 Eh
|J(AB,eff)|:            0.000 eV
   
  Fragment 1 SOMO   Fragment 2 SOMO-2
--------------------------------------
E_mon(orb) frag1 frag2             -11.780   -11.967 eV
J(AB):               -0.001 eV
S(AB):             0.00002188 Eh
|J(AB,eff)|:            0.001 eV
   
  Fragment 1 SOMO   Fragment 2 SOMO-1
--------------------------------------
E_mon(orb) frag1 frag2             -11.780   -11.866 eV
J(AB):                0.001 eV
S(AB):            -0.00000466 Eh
|J(AB,eff)|:            0.001 eV
   
  Fragment 1 SOMO   Fragment 2 SOMO 
--------------------------------------
E_mon(orb) frag1 frag2             -11.780   -11.790 eV
J(AB):               -0.001 eV
S(AB):            -0.00002105 Eh
|J(AB,eff)|:            0.001 eV
   
  Fragment 1 SOMO   Fragment 2 LUMO 
--------------------------------------
E_mon(orb) frag1 frag2             -11.780   -11.720 eV
J(AB):               -0.000 eV
S(AB):             0.00001363 Eh
|J(AB,eff)|:            0.000 eV
   
  Fragment 1 SOMO   Fragment 2 LUMO+1
--------------------------------------
E_mon(orb) frag1 frag2             -11.780   -11.668 eV
J(AB):                0.002 eV
S(AB):            -0.00006657 Eh
|J(AB,eff)|:            0.001 eV
   
  Fragment 1 LUMO   Fragment 2 SOMO-3
--------------------------------------
E_mon(orb) frag1 frag2             -11.716   -12.045 eV
J(AB):                0.002 eV
S(AB):            -0.00010126 Eh
|J(AB,eff)|:            0.001 eV
   
  Fragment 1 LUMO   Fragment 2 SOMO-2
--------------------------------------
E_mon(orb) frag1 frag2             -11.716   -11.967 eV
J(AB):               -0.001 eV
S(AB):             0.00005865 Eh
|J(AB,eff)|:            0.001 eV
   
  Fragment 1 LUMO   Fragment 2 SOMO-1
--------------------------------------
E_mon(orb) frag1 frag2             -11.716   -11.866 eV
J(AB):                0.001 eV
S(AB):            -0.00003093 Eh
|J(AB,eff)|:            0.000 eV
   
  Fragment 1 LUMO   Fragment 2 SOMO 
--------------------------------------
E_mon(orb) frag1 frag2             -11.716   -11.790 eV
J(AB):               -0.003 eV
S(AB):             0.00012440 Eh
|J(AB,eff)|:            0.001 eV
   
  Fragment 1 LUMO   Fragment 2 LUMO 
--------------------------------------
E_mon(orb) frag1 frag2             -11.716   -11.720 eV
J(AB):               -0.001 eV
S(AB):             0.00005550 Eh
|J(AB,eff)|:            0.001 eV
   
  Fragment 1 LUMO   Fragment 2 LUMO+1
--------------------------------------
E_mon(orb) frag1 frag2             -11.716   -11.668 eV
J(AB):                0.002 eV
S(AB):            -0.00006796 Eh
|J(AB,eff)|:            0.001 eV
   
  Fragment 1 LUMO+1  Fragment 2 SOMO-3
--------------------------------------
E_mon(orb) frag1 frag2             -11.700   -12.045 eV
J(AB):                0.003 eV
S(AB):            -0.00012026 Eh
|J(AB,eff)|:            0.001 eV
   
  Fragment 1 LUMO+1  Fragment 2 SOMO-2
--------------------------------------
E_mon(orb) frag1 frag2             -11.700   -11.967 eV
J(AB):               -0.002 eV
S(AB):             0.00005929 Eh
|J(AB,eff)|:            0.001 eV
   
  Fragment 1 LUMO+1  Fragment 2 SOMO-1
--------------------------------------
E_mon(orb) frag1 frag2             -11.700   -11.866 eV
J(AB):                0.009 eV
S(AB):            -0.00037460 Eh
|J(AB,eff)|:            0.005 eV
   
  Fragment 1 LUMO+1  Fragment 2 SOMO 
--------------------------------------
E_mon(orb) frag1 frag2             -11.700   -11.790 eV
J(AB):               -0.008 eV
S(AB):             0.00031670 Eh
|J(AB,eff)|:            0.004 eV
   
  Fragment 1 LUMO+1  Fragment 2 LUMO 
--------------------------------------
E_mon(orb) frag1 frag2             -11.700   -11.720 eV
J(AB):               -0.000 eV
S(AB):             0.00000120 Eh
|J(AB,eff)|:            0.000 eV
   
  Fragment 1 LUMO+1  Fragment 2 LUMO+1
--------------------------------------
E_mon(orb) frag1 frag2             -11.700   -11.668 eV
J(AB):                0.003 eV
S(AB):            -0.00013377 Eh
|J(AB,eff)|:            0.002 eV
   
..............................................................................
:  total |J(AB,eff)| for hole transport (occ. MOs) :               0.008 eV  :
:  total |J(AB,eff)| for charge transport (unocc. MOs) :           0.002 eV  :
:  total |J(AB,eff)| for charge transfer (CT) :                    0.008 eV  :
..............................................................................
  
 Please remember, DIPRO is not available for restart!
   
normal termination of dipro
----------------------------------------------------------
 * finished run on 2025/03/06 at 15:07:06.589     
----------------------------------------------------------
 dipro:
 * wall-time:     0 d,  0 h,  0 min, 53.510 sec
 *  cpu-time:     0 d,  0 h,  4 min, 50.156 sec
 * ratio c/w:     5.422 speedup
Reorganization energy (electron): 0.18139653772527592 eV
Reorganization energy (hole): 0.1849033171022535 eV
Electron Transfer integral J: 0.002 eV
Hole Transfer integral J: 0.008 eV
