156
 energy: -260.473841411157 gnorm: 0.290380281747 xtb: 6.7.1 (edcfbbe)
C            0.52550000000000        4.16290000000000       -1.97420000000000
C            1.45400000000000       -2.97150000000000        0.00010000000000
C           -4.13720000000000        2.18110000000000       -1.63920000000000
C           -3.29220000000000        1.12110000000000       -1.32910000000000
C           -1.91050000000000        1.41320000000000       -1.05280000000000
C           -1.38610000000000        2.67790000000000       -1.43720000000000
C           -2.28690000000000        3.69850000000000       -1.74030000000000
C           -3.63780000000000        3.46120000000000       -1.79910000000000
C           -1.01370000000000        0.44170000000000       -0.48440000000000
C            0.36110000000000        0.55020000000000       -0.83010000000000
C            0.86920000000000        1.76690000000000       -1.36800000000000
N           -0.00130000000000        2.84560000000000       -1.56640000000000
C           -1.39030000000000       -0.54660000000000        0.49290000000000
C           -0.47890000000000       -1.60450000000000        0.75410000000000
N            0.72910000000000       -1.68410000000000        0.04350000000000
C            1.23290000000000       -0.55070000000000       -0.60750000000000
C            2.57110000000000       -0.42710000000000       -0.96490000000000
C            3.06690000000000        0.77010000000000       -1.43450000000000
C            2.23400000000000        1.85210000000000       -1.62480000000000
C           -2.56000000000000       -0.42210000000000        1.32180000000000
C           -2.79720000000000       -1.39090000000000        2.29200000000000
C           -1.87930000000000       -2.38780000000000        2.54730000000000
C           -0.75080000000000       -2.50770000000000        1.77970000000000
O           -3.36850000000000        0.71160000000000        1.23330000000000
O           -3.69270000000000       -0.21160000000000       -1.32500000000000
S           -4.76230000000000        4.84240000000000       -2.10390000000000
S           -2.08400000000000       -3.49910000000000        3.95250000000000
S            4.85220000000000        0.91670000000000       -1.68500000000000
O            4.97320000000000        2.45280000000000       -1.48180000000000
O            4.87110000000000        0.79030000000000       -3.36480000000000
C            4.40600000000000        1.92570000000000       -4.01690000000000
O           -3.69550000000000        5.95960000000000       -2.30200000000000
O           -5.20150000000000        5.07250000000000       -0.49190000000000
C           -4.28490000000000        5.85300000000000        0.20230000000000
O           -3.63450000000000       -3.60410000000000        3.97670000000000
O           -1.64980000000000       -4.91350000000000        3.15590000000000
C           -2.61330000000000       -5.30200000000000        2.23300000000000
H           -5.19220000000000        2.02070000000000       -1.76080000000000
H           -1.95170000000000        4.70490000000000       -1.90810000000000
H           -3.65850000000000       -1.32800000000000        2.92940000000000
H           -0.04620000000000       -3.27890000000000        2.02770000000000
H            3.27200000000000       -1.21540000000000       -0.76180000000000
H            2.68690000000000        2.78350000000000       -1.90490000000000
C            0.62390000000000       -4.07030000000000       -0.65110000000000
C            1.33980000000000       -5.40900000000000       -0.69840000000000
C            0.77070000000000        5.06170000000000       -0.77200000000000
C            1.19460000000000        6.46790000000000       -1.15650000000000
C           -4.68850000000000        0.54410000000000        1.70050000000000
C           -5.01110000000000       -0.43700000000000       -1.76050000000000
H           -4.58970000000000        5.92240000000000        1.25030000000000
H           -4.25850000000000        6.84860000000000       -0.24980000000000
H           -3.29180000000000        5.40090000000000        0.13450000000000
H           -2.31680000000000       -6.25180000000000        1.77990000000000
H           -2.71330000000000       -4.53890000000000        1.45650000000000
H           -3.56850000000000       -5.42130000000000        2.75360000000000
H            4.68500000000000        1.86530000000000       -5.07200000000000
H            4.86540000000000        2.81070000000000       -3.56690000000000
H            3.31830000000000        1.97890000000000       -3.93610000000000
H            1.74650000000000       -3.24160000000000        1.01680000000000
H            2.38660000000000       -2.85720000000000       -0.55380000000000
H            0.34760000000000       -3.74910000000000       -1.66370000000000
H           -0.33120000000000       -4.17180000000000       -0.12180000000000
H            2.27780000000000       -5.33440000000000       -1.25060000000000
H            0.73520000000000       -6.17890000000000       -1.18170000000000
H            1.58000000000000       -5.76400000000000        0.30470000000000
H           -5.29300000000000        1.37250000000000        1.32940000000000
H           -4.70950000000000        0.55340000000000        2.78890000000000
H           -5.09600000000000       -0.39380000000000        1.32120000000000
H           -5.19070000000000       -1.51260000000000       -1.77280000000000
H           -5.13930000000000       -0.04360000000000       -2.76960000000000
H           -5.71680000000000        0.03140000000000       -1.07420000000000
H            1.36620000000000        7.09620000000000       -0.28040000000000
H            0.43130000000000        6.95490000000000       -1.76530000000000
H            2.11640000000000        6.45570000000000       -1.73990000000000
H            1.52590000000000        4.59820000000000       -0.12580000000000
H           -0.14040000000000        5.09400000000000       -0.16130000000000
H           -0.17400000000000        4.62840000000000       -2.67220000000000
H            1.43640000000000        4.03930000000000       -2.56240000000000
C            2.62060000000000        2.11120000000000        1.71920000000000
C            2.20800000000000       -4.62760000000000        4.81970000000000
C           -2.07950000000000        1.69980000000000        3.74820000000000
C           -1.36510000000000        0.64220000000000        4.29810000000000
C            0.02210000000000        0.49400000000000        3.94880000000000
C            0.57880000000000        1.33330000000000        2.94560000000000
C           -0.22280000000000        2.31950000000000        2.37000000000000
C           -1.52570000000000        2.49110000000000        2.76290000000000
C            0.81880000000000       -0.59230000000000        4.45090000000000
C            1.91520000000000       -1.03540000000000        3.67080000000000
C            2.47320000000000       -0.16980000000000        2.69290000000000
N            1.87890000000000        1.07970000000000        2.47390000000000
C            0.50700000000000       -1.34320000000000        5.63700000000000
C            0.86730000000000       -2.71910000000000        5.68500000000000
N            1.83330000000000       -3.20090000000000        4.78920000000000
C            2.44890000000000       -2.33970000000000        3.86970000000000
C            3.54080000000000       -2.72350000000000        3.09820000000000
C            4.10300000000000       -1.86640000000000        2.17640000000000
C            3.58340000000000       -0.60470000000000        1.97830000000000
C           -0.11950000000000       -0.74120000000000        6.78280000000000
C           -0.66270000000000       -1.58670000000000        7.74080000000000
C           -0.51730000000000       -2.95700000000000        7.64240000000000
C            0.27000000000000       -3.51860000000000        6.66300000000000
O           -0.12080000000000        0.64580000000000        6.88290000000000
O           -1.99220000000000       -0.34160000000000        5.06150000000000
S           -2.57250000000000        3.68150000000000        1.90300000000000
S           -1.38770000000000       -4.03220000000000        8.80110000000000
S            5.52600000000000       -2.37910000000000        1.18610000000000
O            4.81780000000000       -2.39010000000000       -0.20330000000000
O            5.49050000000000       -4.00700000000000        1.62940000000000
C            4.75070000000000       -4.78470000000000        0.74850000000000
O           -1.47690000000000        4.62990000000000        1.34870000000000
O           -3.09200000000000        4.53600000000000        3.24970000000000
C           -2.04880000000000        5.20890000000000        3.87510000000000
O           -2.49510000000000       -3.03940000000000        9.25560000000000
O           -2.20000000000000       -4.93390000000000        7.63550000000000
C           -3.21150000000000       -4.20610000000000        7.01950000000000
H           -3.11290000000000        1.84790000000000        3.99870000000000
H            0.11740000000000        2.89330000000000        1.52910000000000
H           -1.24680000000000       -1.19570000000000        8.55320000000000
H            0.36720000000000       -4.58810000000000        6.63910000000000
H            3.97180000000000       -3.70050000000000        3.19770000000000
H            4.02840000000000        0.02310000000000        1.22900000000000
C            1.41280000000000       -5.43250000000000        3.80360000000000
C            1.77000000000000       -6.90800000000000        3.80120000000000
C            3.88440000000000        2.58110000000000        2.42390000000000
C            4.68070000000000        3.56590000000000        1.58170000000000
C           -0.67570000000000        1.15400000000000        8.07130000000000
C           -3.22990000000000        0.02180000000000        5.62820000000000
H           -2.45460000000000        5.81860000000000        4.68690000000000
H           -1.55300000000000        5.85250000000000        3.14200000000000
H           -1.33140000000000        4.49010000000000        4.28020000000000
H           -3.68140000000000       -4.82480000000000        6.24880000000000
H           -2.79460000000000       -3.30690000000000        6.55840000000000
H           -3.94770000000000       -3.92000000000000        7.77690000000000
H            4.84190000000000       -5.83730000000000        1.02900000000000
H            5.13570000000000       -4.63260000000000       -0.26410000000000
H            3.70350000000000       -4.48080000000000        0.78940000000000
H            2.06640000000000       -5.02400000000000        5.82700000000000
H            3.28080000000000       -4.72990000000000        4.64560000000000
H            1.56920000000000       -5.00230000000000        2.80700000000000
H            0.34170000000000       -5.30030000000000        4.00180000000000
H            2.82500000000000       -7.05770000000000        3.56690000000000
H            1.18620000000000       -7.46770000000000        3.06790000000000
H            1.58800000000000       -7.35820000000000        4.77810000000000
H           -0.59000000000000        2.24100000000000        8.05380000000000
H           -0.12690000000000        0.76720000000000        8.93090000000000
H           -1.72980000000000        0.88290000000000        8.13610000000000
H           -3.48820000000000       -0.71740000000000        6.38740000000000
H           -4.00610000000000        0.02710000000000        4.86450000000000
H           -3.14910000000000        1.00200000000000        6.09900000000000
H            5.59350000000000        3.89120000000000        2.08390000000000
H            4.09280000000000        4.45680000000000        1.35640000000000
H            4.96980000000000        3.12570000000000        0.62550000000000
H            4.50560000000000        1.71550000000000        2.68350000000000
H            3.61230000000000        3.02900000000000        3.38820000000000
H            1.98180000000000        2.97400000000000        1.53280000000000
H            2.86030000000000        1.70820000000000        0.73610000000000
156
 energy: -260.526345558102 gnorm: 0.186903908146 xtb: 6.7.1 (edcfbbe)
C            0.51956069345768        4.15291988481812       -1.97032709413799
C            1.44430138124342       -2.96141961853804        0.00002050444995
C           -4.13517618739288        2.17413864728101       -1.64334580144073
C           -3.28579698668426        1.12716702883466       -1.32293233174771
C           -1.90872130887177        1.40623070962437       -1.06312682746440
C           -1.37957682083571        2.66680007441219       -1.44793080544050
C           -2.27299216108546        3.69451228042001       -1.74176562757799
C           -3.62502164953502        3.45283366304312       -1.79537931994573
C           -1.01990870894435        0.44195104086717       -0.48475469292682
C            0.35648492772303        0.55128627841637       -0.82594789277614
C            0.85981177331021        1.76809163605517       -1.36523517331243
N           -0.00325443174913        2.84201293778466       -1.56365827671641
C           -1.38620984370333       -0.53716470836534        0.49652367493321
C           -0.46882250590830       -1.59194697381996        0.75639349295345
N            0.72261857009404       -1.68288045836820        0.03398616935650
C            1.22688321937140       -0.54877780757418       -0.59923271877839
C            2.56561885646936       -0.43307365941738       -0.95600104340463
C            3.05092756982696        0.76795883316197       -1.43759009042709
C            2.22384819956698        1.85934825254858       -1.62298260166817
C           -2.54790412568332       -0.42324533433198        1.32235460425668
C           -2.79013908021598       -1.37993141478543        2.29580465192129
C           -1.87576642801886       -2.38273988675483        2.53935330605141
C           -0.73098801633384       -2.49616333688056        1.78228611862205
O           -3.35936439641053        0.69380703952208        1.21768635828674
O           -3.68599312466142       -0.19311718524141       -1.31627672990749
S           -4.73123468710529        4.84938806007550       -2.09417582086979
S           -2.11395034346929       -3.49314567621155        3.93968693410018
S            4.83327383422154        0.94039956354125       -1.69092275476213
O            5.00564761417339        2.42965000741578       -1.45484748801829
O            4.86969157255430        0.78911992002532       -3.36404010007693
C            4.40620092168736        1.92416686140501       -4.03010981209609
O           -3.73824299252528        5.96649889972675       -2.34885891733589
O           -5.20377874667504        5.07255140066433       -0.49332779501546
C           -4.28596129876984        5.85926774479996        0.20974306054109
O           -3.62399802282330       -3.58236261639471        4.01113513741844
O           -1.65555861714875       -4.90697207220264        3.15537173165881
C           -2.61607002397071       -5.31052811592812        2.22587419029884
H           -5.19402697259498        2.01992398457344       -1.76793047877096
H           -1.94709205069902        4.70494454024220       -1.91391424856839
H           -3.66136724687393       -1.33505113013661        2.92563561065372
H           -0.03588988022752       -3.27987342703497        2.02567651916798
H            3.27134905907430       -1.22381142172285       -0.77362680466516
H            2.68654620631720        2.78897688940884       -1.90119659781946
C            0.61322682207229       -4.06606568879457       -0.65381939796524
C            1.34192917232822       -5.40302945901779       -0.69650990094794
C            0.76842134585342        5.05724734222319       -0.76511192682579
C            1.19424570306658        6.46313338432351       -1.16273977802162
C           -4.68036977627521        0.54163138787714        1.69501802960867
C           -5.00333556055445       -0.43256657186460       -1.75647499631218
H           -4.60278897269883        5.91719440659474        1.24988500779477
H           -4.25129754885764        6.85816295775705       -0.23249628723922
H           -3.28894115250573        5.41593135936146        0.15120993647718
H           -2.30616933203900       -6.25754227211281        1.78604240804437
H           -2.72001275542054       -4.55123458398647        1.44452546106211
H           -3.57602547478580       -5.42814063016767        2.73628519965750
H            4.69649810226368        1.85528999778286       -5.07726709359982
H            4.85556540520208        2.81488613999809       -3.57802226424750
H            3.31646497699928        1.98365285772627       -3.95569802895096
H            1.73387445907092       -3.23888939791919        1.01934653618432
H            2.37187493294748       -2.84429165767775       -0.56003117852420
H            0.35459044071602       -3.75019192565918       -1.66929428127094
H           -0.33288566100470       -4.17899605995513       -0.11724841474263
H            2.27671826299328       -5.32602282911700       -1.25064835795895
H            0.73179103587691       -6.16521972375384       -1.17995675564978
H            1.57582369649022       -5.75791055493698        0.30690814882538
H           -5.27133338602684        1.37859287983218        1.32019374937034
H           -4.71482845813672        0.55587401926787        2.78706722653671
H           -5.10692919145111       -0.39510838404882        1.32911856289493
H           -5.16578500282648       -1.51081742177367       -1.76441332690651
H           -5.14546151027789       -0.04594633794522       -2.76992108922475
H           -5.72793736449334        0.02690829957113       -1.07929540865475
H            1.36232850729939        7.08206499887202       -0.28220703259020
H            0.42701987823501        6.94781296279646       -1.76514066421456
H            2.11772576181172        6.44875744508707       -1.74162335857974
H            1.53750455886176        4.60125965987497       -0.13305691145529
H           -0.14268639186475        5.10032914392526       -0.16211318941075
H           -0.18583226041245        4.62117410923069       -2.66110320688596
H            1.43628503375942        4.02497821219396       -2.55013849529520
C            2.61926187367015        2.10006539853337        1.72804829400275
C            2.20528308636302       -4.61482666093723        4.81900209646609
C           -2.08209559049093        1.68780951978365        3.74196431371561
C           -1.36051456643929        0.64003762370711        4.28970317956969
C            0.01763271351437        0.48332287040645        3.94486455590997
C            0.57757469221544        1.31652473929192        2.93838853356550
C           -0.21798030986399        2.30154117738504        2.35600473629281
C           -1.51637546542411        2.48652277489795        2.76663507658172
C            0.81308852086740       -0.59286137109374        4.45541298141018
C            1.90651119419893       -1.03539694697166        3.67006166722411
C            2.46377067088239       -0.16556313794557        2.69516952498722
N            1.87891332780766        1.07985452359193        2.48471629820868
C            0.51496067647209       -1.33866197628755        5.64132081850643
C            0.87751678454992       -2.71191187908618        5.68687687622061
N            1.82661712112082       -3.19805266641714        4.78648660885483
C            2.43659881877560       -2.33882344378932        3.87114722588424
C            3.53379471948647       -2.72470279139642        3.11004670362663
C            4.09541367369984       -1.85776174084059        2.19189607477066
C            3.57985931656339       -0.59218340541081        1.98182920749016
C           -0.12010160323889       -0.74892553932040        6.77499518515670
C           -0.65581445955131       -1.58166154382734        7.74208705787097
C           -0.51275245841777       -2.95073289956261        7.63429059136540
C            0.28083299191604       -3.51895614398625        6.65682304057144
O           -0.12691788607040        0.62446265064798        6.87309806621335
O           -1.97279370368767       -0.32471633882131        5.06606726646652
S           -2.54883069095007        3.68861080253076        1.90595309945733
S           -1.40900859535551       -4.00989113924999        8.79300453716897
S            5.49893126857608       -2.38016877665318        1.17670146078955
O            4.85562766808557       -2.36342678373665       -0.20155084342313
O            5.50808587579117       -4.00576693663006        1.61656078822650
C            4.75338010683847       -4.79482163279860        0.74456976630046
O           -1.49926437824961        4.60697106674882        1.31498883279514
O           -3.08918280039872        4.52512834620091        3.25379341875163
C           -2.04967964100310        5.21380689776567        3.88432575868481
O           -2.46972573977171       -3.05373646394115        9.29923980431773
O           -2.19638933746329       -4.93374643924519        7.63440132928177
C           -3.21876072516872       -4.20945286489951        7.01532208190171
H           -3.11382881065590        1.85198928966698        4.00224269662906
H            0.12412336735362        2.90126096693586        1.53144395548402
H           -1.24348109848463       -1.19948635497662        8.55919659354583
H            0.37416562282268       -4.59091123105355        6.63853042154674
H            3.97103319051219       -3.70158743805227        3.21046075843439
H            4.03245265620579        0.03030494133870        1.23057405804785
C            1.40871244776882       -5.42768860303511        3.80098732470904
C            1.77469438581833       -6.90469812908152        3.80494997331623
C            3.88591335946024        2.57620471635729        2.43693149693881
C            4.67336241856222        3.56250350966106        1.58118524419687
C           -0.67463844774019        1.14728242874661        8.06330849868787
C           -3.22073241542323        0.02244660640720        5.62747555432326
H           -2.46745891269716        5.81951995107093        4.68728366975255
H           -1.54795987042947        5.85581424799427        3.15393136674206
H           -1.32495118811718        4.50216775389698        4.29239385442863
H           -3.67754349884149       -4.83283868068873        6.25075159908103
H           -2.81095566451716       -3.30799081913319        6.54820723633390
H           -3.96017800481566       -3.91812454911219        7.76452297196267
H            4.85591473836857       -5.83847421320500        1.03839750743925
H            5.11954149000349       -4.65438128446444       -0.27509397655503
H            3.70265970432884       -4.49901525057308        0.78582408901810
H            2.05502274986191       -5.01055589031917        5.82520756528752
H            3.27793487906761       -4.71528520313233        4.63570517551524
H            1.57867860448731       -5.00760714129643        2.80425613676530
H            0.34141104065735       -5.30876686389482        4.00630680754603
H            2.82802704234204       -7.05183011842045        3.56718214191777
H            1.18633533344452       -7.45440737257840        3.07125074652100
H            1.58671557034561       -7.35152796247219        4.78024862900570
H           -0.57924973729407        2.23320099574550        8.03026264054821
H           -0.13124357789612        0.77075230903749        8.93453179543840
H           -1.73281351911741        0.88791155786062        8.14757072327643
H           -3.46828359234362       -0.72666640796237        6.38006405978870
H           -4.00921681985528        0.02367591248889        4.87068780151282
H           -3.16222056711747        1.00456272897418        6.10270642326691
H            5.58216820523483        3.88224350206140        2.08943803860587
H            4.08507221298492        4.45302388491410        1.36412644344569
H            4.96176409578748        3.12157679000964        0.62736079371708
H            4.51405818383538        1.71528054281643        2.68182058460334
H            3.60903402907368        3.03767110099810        3.39041126428198
H            1.97963219388454        2.96391103848966        1.55423639856371
H            2.86883501689422        1.70268046881223        0.74351178116306
156
 energy: -260.554605706316 gnorm: 0.031653933605 xtb: 6.7.1 (edcfbbe)
C            0.51352839984505        4.14002984727106       -1.96738377779641
C            1.43275621366241       -2.94696900872595       -0.00071910158240
C           -4.13750975113492        2.17410845098096       -1.64881048711408
C           -3.28098763670040        1.13654791245126       -1.32443254322882
C           -1.90852192237759        1.40128527157592       -1.07455732116452
C           -1.37373726837465        2.65874856217926       -1.45761189907615
C           -2.26245617723992        3.69440795778334       -1.73977533939552
C           -3.61755502981257        3.45194998075164       -1.78636843866675
C           -1.02686861696447        0.44337434664085       -0.48470204704072
C            0.35413734726391        0.55388568577347       -0.82141966584365
C            0.85144614825019        1.77066390428692       -1.36116527781304
N           -0.00554526083911        2.83910969740654       -1.55922880377596
C           -1.38200720532909       -0.52562969982720        0.50310033307039
C           -0.45710765952241       -1.57779661408477        0.76344706528873
N            0.71429315969542       -1.68086868724892        0.02086904923082
C            1.22325829564950       -0.54470862456609       -0.59174417050806
C            2.56399246747982       -0.43625757595956       -0.95019198191839
C            3.03855557290018        0.76650893202884       -1.44423967586734
C            2.21636764921611        1.86656234157695       -1.62066751610800
C           -2.53709060698951       -0.42359815811243        1.32461835676001
C           -2.78557216057302       -1.37455305473307        2.29728036838512
C           -1.87413116378045       -2.38365124823849        2.52961479118308
C           -0.71077411903501       -2.48467929809439        1.78773949842662
O           -3.35164102464523        0.67364131241827        1.20138346240367
O           -3.68102355638506       -0.17037842659656       -1.31075623893358
S           -4.70279461527851        4.87069820924807       -2.09804261100127
S           -2.15322766954479       -3.48644099022883        3.93431405928104
S            4.82670761919178        0.96873656452510       -1.68967610362730
O            5.01054755125935        2.39140119274401       -1.44148949330461
O            4.86460747754945        0.78652528560552       -3.35391003069130
C            4.40408073273556        1.92083221972737       -4.04102830013245
O           -3.76902942199940        5.93879978423928       -2.37448329126510
O           -5.20455823955945        5.07268828265483       -0.50576454485493
C           -4.28659099383849        5.86352838047902        0.21573162148108
O           -3.59781898878796       -3.55472010650690        4.02768962401444
O           -1.66277730255717       -4.89600729159046        3.15642296115425
C           -2.61951116432292       -5.31726651593673        2.21781640690718
H           -5.19778082995733        2.02820391411105       -1.77615095945818
H           -1.95098083906773        4.70886016899349       -1.91755503322878
H           -3.66267236260869       -1.34742595530138        2.92245514555393
H           -0.02855680723615       -3.28011834657081        2.03019760603444
H            3.27723986487223       -1.22437646630167       -0.78957963059794
H            2.69226361825141        2.79126095533883       -1.89637489030707
C            0.60193277817854       -4.06077167180844       -0.65635059064706
C            1.34296120493934       -5.39728199497630       -0.69469708638496
C            0.76841358736715        5.05145541979261       -0.75924968382281
C            1.19368894957627        6.45897758464516       -1.16894872838658
C           -4.67184911214912        0.54135837267779        1.68868443249325
C           -4.99547293783485       -0.43022340777917       -1.75199926965235
H           -4.61869329635149        5.90922301821420        1.24833770366152
H           -4.24729471864872        6.86678954817943       -0.21587436144473
H           -3.28685816830334        5.42839104042726        0.16702876289827
H           -2.29472018879341       -6.26257414587701        1.79406715180708
H           -2.72501704516402       -4.56403312174253        1.42899581609730
H           -3.58452212198183       -5.43568494158037        2.71791369394111
H            4.70829663780489        1.84173882346251       -5.07990739749681
H            4.84466312224121        2.81923514539081       -3.59145034811200
H            3.31221396145676        1.98608146842464       -3.97846577723064
H            1.72129013740413       -3.23331052637272        1.01929071867374
H            2.35369457356992       -2.83340385830591       -0.56870972924495
H            0.35957734315220       -3.75139809919659       -1.67343349397106
H           -0.33472448509817       -4.18480245912343       -0.11426798552971
H            2.27437159773222       -5.31553988736086       -1.24974311438588
H            0.72808625138276       -6.15254729927413       -1.17867034070690
H            1.57093455235135       -5.74970268738523        0.30926035215633
H           -5.24389720781265        1.38849216758879        1.30818948798772
H           -4.71641287181180        0.56097076597291        2.78397832622661
H           -5.11875227499587       -0.39381841113569        1.33668639156994
H           -5.13387467370833       -1.51153027983868       -1.75351858074436