Optimization of monomers started
Stacking dimer
Calculating transfer integral
Reorganization energy (electron): 0.4485368185229121 eV
Reorganization energy (hole): 0.2970566317011603 eV
Electron Transfer integral J: 0.004 eV
Hole Transfer integral J: 0.043 eV
==                   |     
     |                         S. Grimme                         |     
     |          Mulliken Center for Theoretical Chemistry        |     
     |                    University of Bonn                     |     
      -----------------------------------------------------------      

   * xtb version 6.7.1 (43a0e4e5b5d943adc66b4aa6563d39c792f6153b) compiled by 'joseph@Linux' on 2024/10/21

   xtb is free software: you can redistribute it and/or modify it under
   the terms of the GNU Lesser General Public License as published by
   the Free Software Foundation, either version 3 of the License, or
   (at your option) any later version.
   
   xtb is distributed in the hope that it will be useful,
   but WITHOUT ANY WARRANTY; without even the implied warranty of
   MERCHANTABILITY or FITNESS FOR A PARTICULAR PURPOSE.  See the
   GNU Lesser General Public License for more details.
   
   Cite this work as:
   * C. Bannwarth, E. Caldeweyher, S. Ehlert, A. Hansen, P. Pracht,
     J. Seibert, S. Spicher, S. Grimme, WIREs Comput. Mol. Sci., 2020, 11,
     e01493. DOI: 10.1002/wcms.1493
   
   for GFN2-xTB:
   * C. Bannwarth, S. Ehlert and S. Grimme., J. Chem. Theory Comput., 2019,
     15, 1652-1671. DOI: 10.1021/acs.jctc.8b01176
   for GFN1-xTB:
   * S. Grimme, C. Bannwarth, P. Shushkov, J. Chem. Theory Comput., 2017,
     13, 1989-2009. DOI: 10.1021/acs.jctc.7b00118
   for GFN0-xTB:
   * P. Pracht, E. Caldeweyher, S. Ehlert, S. Grimme, ChemRxiv, 2019, preprint.
     DOI: 10.26434/chemrxiv.8326202.v1
   for GFN-FF:
   * S. Spicher and S. Grimme, Angew. Chem. Int. Ed., 2020, 59, 15665-15673.
     DOI: 10.1002/anie.202004239
   
   for ALPB and GBSA implicit solvation:
   * S. Ehlert, M. Stahn, S. Spicher, S. Grimme, J. Chem. Theory Comput.,
     2021, 17, 4250-4261. DOI: 10.1021/acs.jctc.1c00471
   
   for ddCOSMO and CPCM-X implicit solvation:
   * M. Stahn, S. Ehlert, S. Grimme, J. Phys. Chem. A,
     2023, XX, XXXX-XXXX. DOI: 10.1021/acs.jpca.3c04382
   
   for DFT-D4:
   * E. Caldeweyher, C. Bannwarth and S. Grimme, J. Chem. Phys., 2017,
     147, 034112. DOI: 10.1063/1.4993215
   * E. Caldeweyher, S. Ehlert, A. Hansen, H. Neugebauer, S. Spicher,
     C. Bannwarth and S. Grimme, J. Chem. Phys., 2019, 150, 154122.
     DOI: 10.1063/1.5090222
   * E. Caldeweyher, J.-M. Mewes, S. Ehlert and S. Grimme, Phys. Chem. Chem. Phys.
     2020, 22, 8499-8512. DOI: 10.1039/D0CP00502A
   
   for sTDA-xTB:
   * S. Grimme and C. Bannwarth, J. Chem. Phys., 2016, 145, 054103.
     DOI: 10.1063/1.4959605
   
   in the mass-spec context:
   * V. Asgeirsson, C. Bauer and S. Grimme, Chem. Sci., 2017, 8, 4879.
     DOI: 10.1039/c7sc00601b
   * J. Koopman and S. Grimme, ACS Omega 2019, 4, 12, 15120-15133.
     DOI: 10.1021/acsomega.9b02011
   
   for metadynamics refer to:
   * S. Grimme, J. Chem. Theory Comput., 2019, 155, 2847-2862
     DOI: 10.1021/acs.jctc.9b00143
   
   for SPH calculations refer to:
   * S. Spicher and S. Grimme, J. Chem. Theory Comput., 2021, 17, 1701-1714
     DOI: 10.1021/acs.jctc.0c01306
   
   for ONIOM refer to:
   * C. Plett, A. Katbashev, S. Ehlert, S. Grimme, M. Bursch,
     Phys. Chem. Chem. Phys., 2023, 25, 17860-17868. DOI: 10.1039/D3CP02178E
   
   for DIPRO refer to:
   * J. Kohn, N. Gildemeister, S. Grimme, D. Fazzi, A. Hansen,
     J. Chem. Phys., 2023, just accepted.
   
   for PTB refer to:
   * S. Grimme, M. Mueller, A. Hansen, J. Chem. Phys., 2023, 158, 124111.
     DOI: 10.1063/5.0137838
   
   with help from (in alphabetical order)
   P. Atkinson, C. Bannwarth, F. Bohle, G. Brandenburg, E. Caldeweyher
   M. Checinski, S. Dohm, S. Ehlert, S. Ehrlich, I. Gerasimov, C. Hölzer
   A. Katbashev, J. Kohn, J. Koopman, C. Lavigne, S. Lehtola, F. März, M. Müller,
   F. Musil, H. Neugebauer, J. Pisarek, C. Plett, P. Pracht, F. Pultar,
   J. Seibert, P. Shushkov, S. Spicher, M. Stahn, M. Steiner, T. Strunk,
   J. Stückrath, T. Rose, and J. Unsleber
   
 * started run on 2024/11/25 at 11:29:40.348     
   ID    Z sym.   atoms
    1    6 C      1-11, 13, 14, 16-23, 31, 34, 37, 44-49
    2    7 N      12, 15
    3    8 O      24, 25, 29, 30, 32, 33, 35, 36
    4   16 S      26-28
    5    1 H      38-43, 50-78

           -------------------------------------------------
          |                Calculation Setup                |
           -------------------------------------------------

          program call               : xtb Base4SO2Me.mol --opt --gfn 2 --chrg 0 --uhf 1 --tight
          coordinate file            : Base4SO2Me.mol
          omp threads                :                     4

########################################################################
[WARNING] Please study the warnings concerning your input carefully
-1- prog_main_parseArguments: Unknown option '--tight' provided
########################################################################

           -------------------------------------------------
          |                 G F N 2 - x T B                 |
           -------------------------------------------------

        Reference                      10.1021/acs.jctc.8b01176
      * Hamiltonian:
        H0-scaling (s, p, d)           1.850000    2.230000    2.230000
        zeta-weighting                 0.500000
      * Dispersion:
        s8                             2.700000
        a1                             0.520000
        a2                             5.000000
        s9                             5.000000
      * Repulsion:
        kExp                           1.500000    1.000000
        rExp                           1.000000
      * Coulomb:
        alpha                          2.000000
        third order                    shell-resolved
        anisotropic                    true
        a3                             3.000000
        a5                             4.000000
        cn-shift                       1.200000
        cn-exp                         4.000000
        max-rad                        5.000000


          ...................................................
          :                      SETUP                      :
          :.................................................:
          :  # basis functions                 225          :
          :  # atomic orbitals                 222          :
          :  # shells                          124          :
          :  # electrons                       231          :
          :  max. iterations                   250          :
          :  Hamiltonian                  GFN2-xTB          :
          :  restarted?                      false          :
          :  GBSA solvation                  false          :
          :  PC potential                    false          :
          :  electronic temp.          300.0000000     K    :
          :  accuracy                    1.0000000          :
          :  -> integral cutoff          0.2500000E+02      :
          :  -> integral neglect         0.1000000E-07      :
          :  -> SCF convergence          0.1000000E-05 Eh   :
          :  -> wf. convergence          0.1000000E-03 e    :
          :  Broyden damping             0.4000000          :
          :  net charge                          0          :
          :  unpaired electrons                  1          :
          ...................................................

 iter      E             dE          RMSdq      gap      omega  full diag
   1   -128.9706642 -0.128971E+03  0.581E+00    0.14       0.0  T
   2   -127.0125358  0.195813E+01  0.724E+00    0.19       1.0  T
   3   -129.4626684 -0.245013E+01  0.414E+00    0.23       1.0  T
   4   -128.5798288  0.882840E+00  0.455E+00    0.35       1.0  T
   5   -128.7244913 -0.144662E+00  0.412E+00    0.22       1.0  T
   6   -129.6653649 -0.940874E+00  0.164E+00    0.06       1.0  T
   7   -129.8741903 -0.208825E+00  0.917E-01    0.15       1.0  T
   8   -129.9056631 -0.314728E-01  0.546E-01    0.09       1.0  T
   9   -129.9054092  0.253970E-03  0.408E-01    0.08       1.0  T
  10   -129.8819969  0.234123E-01  0.695E-01    0.05       1.0  T
  11   -129.9101920 -0.281951E-01  0.128E-01    0.04       1.0  T
  12   -129.9089335  0.125846E-02  0.230E-01    0.10       1.0  T
  13   -129.9117017 -0.276821E-02  0.685E-02    0.06       1.0  T
  14   -129.9118609 -0.159196E-03  0.284E-02    0.05       1.0  T
  15   -129.9119054 -0.445076E-04  0.220E-02    0.06       1.0  T
  16   -129.9119212 -0.157473E-04  0.122E-02    0.06       1.0  T
  17   -129.9119198  0.143754E-05  0.119E-02    0.06       1.0  T
  18   -129.9119273 -0.752004E-05  0.328E-03    0.06       3.4  T
  19   -129.9119280 -0.678765E-06  0.120E-03    0.06       9.5  T
  20   -129.9119280 -0.237203E-07  0.869E-04    0.06      13.0  T
  21   -129.9119279  0.357182E-07  0.140E-03    0.06       8.1  T
  22   -129.9119280 -0.648940E-07  0.787E-04    0.06      14.4  T

   *** convergence criteria satisfied after 22 iterations ***

         #    Occupation            Energy/Eh            Energy/eV
      -------------------------------------------------------------
         1        2.0000           -0.8984712             -24.4486
       ...           ...                  ...                  ...
       110        2.0000           -0.3409016              -9.2764
       111        2.0000           -0.3332303              -9.0677
       112        2.0000           -0.3242409              -8.8230
       113        2.0000           -0.3066916              -8.3455
       114        2.0000           -0.2912587              -7.9256
       115        2.0000           -0.2899238              -7.8892
       116        0.7509           -0.2587351              -7.0405 (HOMO)
       117        0.2491           -0.2566381              -6.9835 (LUMO)
       118        0.0000           -0.2454845              -6.6800
       119                         -0.2381847              -6.4813
       120                         -0.2327295              -6.3329
       121                         -0.2245067              -6.1091
       ...                                ...                  ...
       222                          5.5135459             150.0312
      -------------------------------------------------------------
                  HL-Gap            0.0020969 Eh            0.0571 eV
             Fermi-level           -0.2659807 Eh           -7.2377 eV

 SCC (total)                   0 d,  0 h,  0 min,  0.629 sec
 SCC setup                      ...        0 min,  0.001 sec (  0.092%)
 Dispersion                     ...        0 min,  0.003 sec (  0.483%)
 classical contributions        ...        0 min,  0.000 sec (  0.052%)
 integral evaluation            ...        0 min,  0.013 sec (  2.078%)
 iterations                     ...        0 min,  0.569 sec ( 90.406%)
 molecular gradient             ...        0 min,  0.026 sec (  4.204%)
 printout                       ...        0 min,  0.017 sec (  2.682%)

         :::::::::::::::::::::::::::::::::::::::::::::::::::::
         ::                     SUMMARY                     ::
         :::::::::::::::::::::::::::::::::::::::::::::::::::::
         :: total energy            -127.818895187579 Eh    ::
         :: gradient norm              3.955089045115 Eh/a0 ::
         :: HOMO-LUMO gap              0.057060861346 eV    ::
         ::.................................................::
         :: SCC energy              -129.911092393292 Eh    ::
         :: -> isotropic ES            0.194037392766 Eh    ::
         :: -> anisotropic ES          0.035357462145 Eh    ::
         :: -> anisotropic XC          0.026537136839 Eh    ::
         :: -> dispersion             -0.097456614935 Eh    ::
         :: repulsion energy           2.092197205714 Eh    ::
         :: add. restraining           0.000000000000 Eh    ::
         :: total charge               0.000000000011 e     ::
         :::::::::::::::::::::::::::::::::::::::::::::::::::::

      ----------------------------------------------------------- 
     |                   =====================                   |
     |                        A N C O P T                        |
     |                   =====================                   |
     |               Approximate Normal Coordinate               |
     |                Rational Function Optimizer                |
      ----------------------------------------------------------- 
      ----------------------------------------------------------- 
     |                   =====================                   |
     |                        A N C O P T                        |
     |                   =====================                   |
     |               Approximate Normal Coordinate               |
     |                Rational Function Optimizer                |
      ----------------------------------------------------------- 

          ...................................................
          :                      SETUP                      :
          :.................................................:
          :   optimization level            normal          :
          :   max. optcycles                   234          :
          :   ANC micro-cycles                  20          :
          :   degrees of freedom               228          :
          :.................................................:
          :   RF solver                   davidson          :
          :   write xtbopt.log                true          :
          :   linear?                        false          :
          :   energy convergence         0.5000000E-05 Eh   :
          :   grad. convergence          0.1000000E-02 Eh/α :
          :   maxmium RF displ.          1.0000000          :
          :   Hlow (freq-cutoff)         0.1000000E-01      :
          :   Hmax (freq-cutoff)         5.0000000          :
          :   S6 in model hess.         20.0000000          :
          ...................................................

generating ANC from exact Hessian ...
Using Lindh-Hessian (1995)
 Shifting diagonal of input Hessian by    1.0055480382489209E-002
 Lowest  eigenvalues of input Hessian
    0.010000    0.010011    0.000000    0.000000    0.000000    0.000000
    0.000000    0.000000    0.010103    0.010128    0.010244    0.010312
    0.010380    0.010451    0.010671    0.010856    0.010947    0.010978
 Highest eigenvalues
    3.188380    3.315410    6.236110    6.293670    7.809258    7.991832


........................................................................
.............................. CYCLE    1 ..............................
........................................................................

 iter      E             dE          RMSdq      gap      omega  full diag
   1   -129.9119280 -0.129912E+03  0.609E-04    0.06       0.0  T
   2   -129.9119258  0.221805E-05  0.600E-03    0.06       1.9  T
   3   -129.9119280 -0.223801E-05  0.195E-04    0.06      58.0  T
   4   -129.9119280  0.159966E-08  0.243E-04    0.06      46.6  T
   5   -129.9119280 -0.290459E-08  0.131E-04    0.06      86.7  T
     SCC iter.                  ...        0 min,  0.134 sec
     gradient                   ...        0 min,  0.025 sec
 * total energy  :  -127.8188952 Eh     change       -0.3024581E-07 Eh
   gradient norm :     3.9550895 Eh/α   predicted     0.0000000E+00 (-100.00%)
   displ. norm   :     0.5992889 α      lambda       -0.2293521E+01
   maximum displ.:     0.3794598 α      in ANC's #225, #228, #212, ...

........................................................................
.............................. CYCLE    2 ..............................
........................................................................

 iter      E             dE          RMSdq      gap      omega  full diag
   1   -130.0399945 -0.130040E+03  0.208E+00    0.15       0.0  T
   2   -129.7093724  0.330622E+00  0.260E+00    0.52       1.0  T
   3   -130.0844443 -0.375072E+00  0.116E+00    0.18       1.0  T
   4   -130.0723374  0.121070E-01  0.120E+00    0.13       1.0  T
   5   -130.0912765 -0.189392E-01  0.980E-01    0.50       1.0  T
   6   -130.1468641 -0.555875E-01  0.554E-01    0.25       1.0  T
   7   -130.1497930 -0.292895E-02  0.360E-01    0.18       1.0  T
   8   -130.1591292 -0.933621E-02  0.181E-01    0.06       1.0  T
   9   -130.1610726 -0.194343E-02  0.656E-02    0.08       1.0  T
  10   -130.1608063  0.266318E-03  0.862E-02    0.10       1.0  T
  11   -130.1612487 -0.442371E-03  0.194E-02    0.08       1.0  T
  12   -130.1612235  0.252227E-04  0.263E-02    0.08       1.0  T
  13   -130.1612550 -0.315483E-04  0.103E-02    0.08       1.1  T
  14   -130.1612611 -0.612252E-05  0.498E-03    0.08       2.3  T
  15   -130.1612627 -0.159771E-05  0.131E-03    0.08       8.6  T
  16   -130.1612628 -0.477440E-07  0.620E-04    0.08      18.3  T
  17   -130.1612628 -0.168341E-07  0.332E-04    0.08      34.1  T
     SCC iter.                  ...        0 min,  0.440 sec
     gradient                   ...        0 min,  0.025 sec
 * total energy  :  -128.8900657 Eh     change       -0.1071170E+01 Eh
   gradient norm :     0.7766132 Eh/α   predicted    -0.1558617E+01 (  45.51%)
   displ. norm   :     0.6806020 α      lambda       -0.3909681E+00
   maximum displ.:     0.2300754 α      in ANC's #92, #93, #97, ...

........................................................................
.............................. CYCLE    3 ..............................
........................................................................

 iter      E             dE          RMSdq      gap      omega  full diag
   1   -130.3619820 -0.130362E+03  0.114E+00    0.18       0.0  T
   2   -130.2774566  0.845254E-01  0.126E+00    0.69       1.0  T
   3   -130.3005849 -0.231283E-01  0.111E+00    0.24       1.0  T
   4   -130.3957567 -0.951718E-01  0.565E-01    0.45       1.0  T
   5   -130.3943244  0.143233E-02  0.414E-01    0.40       1.0  T
   6   -130.4059737 -0.116493E-01  0.233E-01    0.35       1.0  T
   7   -130.4078925 -0.191874E-02  0.147E-01    0.31       1.0  T
   8   -130.4086617 -0.769214E-03  0.704E-02    0.27       1.0  T
   9   -130.4086034  0.582634E-04  0.476E-02    0.26       1.0  T
  10   -130.4087562 -0.152810E-03  0.125E-02    0.28       1.0  T
  11   -130.4087656 -0.937579E-05  0.920E-03    0.28       1.2  T
  12   -130.4087689 -0.327993E-05  0.477E-03    0.28       2.4  T
  13   -130.4087700 -0.113002E-05  0.143E-03    0.28       7.9  T
  14   -130.4087701 -0.123421E-06  0.582E-04    0.28      19.5  T
  15   -130.4087701  0.209903E-08  0.414E-04    0.28      27.4  T
     SCC iter.                  ...        0 min,  0.386 sec
     gradient                   ...        0 min,  0.025 sec
 * total energy  :  -129.2291137 Eh     change       -0.3390481E+00 Eh
   gradient norm :     0.5581921 Eh/α   predicted    -0.2860366E+00 ( -15.64%)
   displ. norm   :     0.8292749 α      lambda       -0.3897668E+00
   maximum displ.:     0.2577210 α      in ANC's #93, #156, #92, ...

........................................................................
.............................. CYCLE    4 ..............................
........................................................................

 iter      E             dE          RMSdq      gap      omega  full diag
   1   -130.6371643 -0.130637E+03  0.110E+00    0.70       0.0  T
   2   -130.6060116  0.311527E-01  0.108E+00    1.01       1.0  T
   3   -130.6764444 -0.704328E-01  0.598E-01    0.81       1.0  T
   4   -130.6889930 -0.125486E-01  0.330E-01    1.03       1.0  T
   5   -130.6918394 -0.284635E-02  0.158E-01    0.92       1.0  T
   6   -130.6933837 -0.154431E-02  0.597E-02    0.97       1.0  T
   7   -130.6933820  0.162091E-05  0.407E-02    0.95       1.0  T
   8   -130.6934260 -0.439875E-04  0.220E-02    0.96       1.0  T
   9   -130.6934528 -0.267392E-04  0.857E-03    0.96       1.3  T
  10   -130.6934553 -0.248881E-05  0.444E-03    0.96       2.5  T
  11   -130.6934561 -0.845142E-06  0.158E-03    0.96       7.2  T
  12   -130.6934562 -0.531620E-07  0.882E-04    0.96      12.8  T
  13   -130.6934562 -0.399640E-07  0.450E-04    0.96      25.1  T
     SCC iter.                  ...        0 min,  0.325 sec
     gradient                   ...        0 min,  0.025 sec
 * total energy  :  -129.5669825 Eh     change       -0.3378688E+00 Eh
   gradient norm :     0.4095618 Eh/α   predicted    -0.3289052E+00 (  -2.65%)
   displ. norm   :     0.8290075 α      lambda       -0.2881278E+00
   maximum displ.:     0.2865547 α      in ANC's #93, #92, #135, ...

........................................................................
.............................. CYCLE    5 ..............................
........................................................................

 iter      E             dE          RMSdq      gap      omega  full diag
   1   -130.9186511 -0.130919E+03  0.684E-01    1.11       0.0  T
   2   -130.9262457 -0.759460E-02  0.539E-01    1.23       1.0  T
   3   -130.9297356 -0.348995E-02  0.348E-01    1.17       1.0  T
   4   -130.9265624  0.317324E-02  0.256E-01    1.25       1.0  T
   5   -130.9331023 -0.653988E-02  0.593E-02    1.19       1.0  T
   6   -130.9332477 -0.145370E-03  0.339E-02    1.21       1.0  T
   7   -130.9332731 -0.254327E-04  0.163E-02    1.20       1.0  T
   8   -130.9332796 -0.648654E-05  0.806E-03    1.20       1.4  T
   9   -130.9332817 -0.216907E-05  0.469E-03    1.20       2.4  T
  10   -130.9332822 -0.488098E-06  0.176E-03    1.20       6.4  T
  11   -130.9332824 -0.174560E-06  0.817E-04    1.20      13.9  T
  12   -130.9332824 -0.282315E-07  0.358E-04    1.20      31.6  T
     SCC iter.                  ...        0 min,  0.360 sec
     gradient                   ...        0 min,  0.025 sec
 * total energy  :  -129.7918532 Eh     change       -0.2248707E+00 Eh
   gradient norm :     0.3103154 Eh/α   predicted    -0.2430724E+00 (   8.09%)
   displ. norm   :     0.7707108 α      lambda       -0.1656898E+00
   maximum displ.:     0.3500141 α      in ANC's #92, #93, #49, ...

........................................................................
.............................. CYCLE    6 ..............................
........................................................................

 iter      E             dE          RMSdq      gap      omega  full diag
   1   -131.1374578 -0.131137E+03  0.470E-01    1.24       0.0  T
   2   -131.1390794 -0.162156E-02  0.325E-01    1.30       1.0  T
   3   -131.1382596  0.819808E-03  0.198E-01    1.26       1.0  T
   4   -131.1393128 -0.105317E-02  0.986E-02    1.30       1.0  T
   5   -131.1401933 -0.880583E-03  0.320E-02    1.28       1.0  T
   6   -131.1402813 -0.879983E-04  0.144E-02    1.29       1.0  T
   7   -131.1402878 -0.642992E-05  0.595E-03    1.29       1.9  T
   8   -131.1402887 -0.924825E-06  0.284E-03    1.29       4.0  T
   9   -131.1402889 -0.214499E-06  0.171E-03    1.29       6.6  T
  10   -131.1402890 -0.103874E-06  0.659E-04    1.29      17.2  T
  11   -131.1402890 -0.552353E-08  0.282E-04    1.29      40.1  T
     SCC iter.                  ...        0 min,  0.283 sec
     gradient                   ...        0 min,  0.025 sec
 * total energy  :  -129.9277890 Eh     change       -0.1359358E+00 Eh
   gradient norm :     0.2419216 Eh/α   predicted    -0.1320544E+00 (  -2.86%)
   displ. norm   :     0.7650960 α      lambda       -0.1152645E+00
   maximum displ.:     0.2819171 α      in ANC's #92, #49, #93, ...

........................................................................
.............................. CYCLE    7 ..............................
........................................................................

 iter      E             dE          RMSdq      gap      omega  full diag
   1   -131.3167421 -0.131317E+03  0.382E-01    1.29       0.0  T
   2   -131.3182544 -0.151239E-02  0.286E-01    1.34       1.0  T
   3   -131.3192548 -0.100038E-02  0.157E-01    1.31       1.0  T
   4   -131.3188950  0.359795E-03  0.988E-02    1.33       1.0  T
   5   -131.3196938 -0.798816E-03  0.241E-02    1.31       1.0  T
   6   -131.3197428 -0.489196E-04  0.119E-02    1.32       1.0  T
   7   -131.3197497 -0.691698E-05  0.426E-03    1.32       2.7  T
   8   -131.3197503 -0.574250E-06  0.165E-03    1.32       6.9  T
   9   -131.3197503 -0.790886E-07  0.975E-04    1.32      11.6  T
  10   -131.3197504 -0.199234E-07  0.340E-04    1.32      33.3  T
     SCC iter.                  ...        0 min,  0.248 sec
     gradient                   ...        0 min,  0.025 sec
 * total energy  :  -130.0232264 Eh     change       -0.9543739E-01 Eh
   gradient norm :     0.1727128 Eh/α   predicted    -0.9136864E-01 (  -4.26%)
   displ. norm   :     0.7665008 α      lambda       -0.8024397E-01
   maximum displ.:     0.2807588 α      in ANC's #49, #44, #39, ...

........................................................................
.............................. CYCLE    8 ..............................
........................................................................

 iter      E             dE          RMSdq      gap      omega  full diag
   1   -131.4612857 -0.131461E+03  0.325E-01    1.30       0.0  T
   2   -131.4625266 -0.124094E-02  0.239E-01    1.34       1.0  T
   3   -131.4632429 -0.716346E-03  0.128E-01    1.31       1.0  T
   4   -131.4629772  0.265745E-03  0.831E-02    1.33       1.0  T
   5   -131.4634939 -0.516745E-03  0.186E-02    1.32       1.0  T
   6   -131.4635223 -0.283608E-04  0.933E-03    1.32       1.2  T
   7   -131.4635266 -0.428105E-05  0.340E-03    1.32       3.3  T
   8   -131.4635270 -0.365234E-06  0.143E-03    1.32       7.9  T
   9   -131.4635270 -0.462756E-07  0.890E-04    1.32      12.7  T
  10   -131.4635270 -0.950766E-08  0.325E-04    1.32      34.8  T
     SCC iter.                  ...        0 min,  0.247 sec
     gradient                   ...        0 min,  0.025 sec
 * total energy  :  -130.0889641 Eh     change       -0.6573769E-01 Eh
   gradient norm :     0.1110774 Eh/α   predicted    -0.6369457E-01 (  -3.11%)
   displ. norm   :     0.7768663 α      lambda       -0.5407283E-01
   maximum displ.:     0.2755978 α      in ANC's #49, #22, #39, ...

........................................................................
.............................. CYCLE    9 ..............................
........................................................................

 iter      E             dE          RMSdq      gap      omega  full diag
   1   -131.5624015 -0.131562E+03  0.274E-01    1.31       0.0  T
   2   -131.5628685 -0.466985E-03  0.168E-01    1.34       1.0  T
   3   -131.5627176  0.150892E-03  0.941E-02    1.32       1.0  T
   4   -131.5629832 -0.265599E-03  0.466E-02    1.34       1.0  T
   5   -131.5631287 -0.145481E-03  0.127E-02    1.33       1.0  T
   6   -131.5631381 -0.940770E-05  0.669E-03    1.33       1.7  T
   7   -131.5631403 -0.214134E-05  0.256E-03    1.33       4.4  T
   8   -131.5631404 -0.172336E-06  0.140E-03    1.33       8.1  T
   9   -131.5631405 -0.230632E-07  0.860E-04    1.33      13.2  T
  10   -131.5631405 -0.200168E-07  0.247E-04    1.33      45.8  T
     SCC iter.                  ...        0 min,  0.260 sec
     gradient                   ...        0 min,  0.036 sec
 * total energy  :  -130.1333492 Eh     change       -0.4438517E-01 Eh
   gradient norm :     0.0738203 Eh/α   predicted    -0.4335348E-01 (  -2.32%)
   displ. norm   :     0.7858750 α      lambda       -0.3865996E-01
   maximum displ.:     0.3008330 α      in ANC's #22, #49, #39, ...

........................................................................
.............................. CYCLE   10 ..............................
........................................................................

 iter      E             dE          RMSdq      gap      omega  full diag
   1   -131.6324352 -0.131632E+03  0.255E-01    1.33       0.0  T
   2   -131.6326699 -0.234675E-03  0.145E-01    1.35       1.0  T
   3   -131.6325356  0.134301E-03  0.678E-02    1.34       1.0  T
   4   -131.6327080 -0.172399E-03  0.264E-02    1.35       1.0  T
   5   -131.6327377 -0.296705E-04  0.104E-02    1.35       1.1  T
   6   -131.6327414 -0.373135E-05  0.592E-03    1.35       1.9  T
   7   -131.6327435 -0.213223E-05  0.200E-03    1.35       5.7  T
   8   -131.6327436 -0.440447E-07  0.127E-03    1.35       8.9  T
   9   -131.6327436 -0.204919E-07  0.762E-04    1.35      14.9  T
  10   -131.6327436 -0.253167E-07  0.193E-04    1.35      58.8  T
     SCC iter.                  ...        0 min,  0.251 sec
     gradient                   ...        0 min,  0.027 sec
 * total energy  :  -130.1636317 Eh     change       -0.3028252E-01 Eh
   gradient norm :     0.0575507 Eh/α   predicted    -0.3126820E-01 (   3.25%)
   displ. norm   :     0.7997320 α      lambda       -0.3060431E-01
   maximum displ.:     0.3487360 α      in ANC's #22, #39, #21, ...

........................................................................
.............................. CYCLE   11 ..............................
........................................................................

 iter      E             dE          RMSdq      gap      omega  full diag
   1   -131.6815016 -0.131682E+03  0.269E-01    1.37       0.0  T
   2   -131.6818259 -0.324326E-03  0.149E-01    1.39       1.0  T
   3   -131.6818143  0.116623E-04  0.674E-02    1.38       1.0  T
   4   -131.6818509 -0.366407E-04  0.268E-02    1.39       1.0  T
   5   -131.6818775 -0.265755E-04  0.942E-03    1.39       1.2  T
   6   -131.6818769  0.542950E-06  0.492E-03    1.38       2.3  T
   7   -131.6818794 -0.245046E-05  0.179E-03    1.39       6.3  T
   8   -131.6818794 -0.468244E-07  0.106E-03    1.39      10.7  T
   9   -131.6818794 -0.242584E-07  0.574E-04    1.39      19.7  T
  10   -131.6818795 -0.137525E-07  0.194E-04    1.39      58.5  T
     SCC iter.                  ...        0 min,  0.249 sec
     gradient                   ...        0 min,  0.025 sec
 * total energy  :  -130.1852916 Eh     change       -0.2165989E-01 Eh
   gradient norm :     0.0542387 Eh/α   predicted    -0.2508898E-01 (  15.83%)
   displ. norm   :     0.7297657 α      lambda       -0.2029075E-01
   maximum displ.:     0.3788292 α      in ANC's #22, #21, #39, ...

........................................................................
.............................. CYCLE   12 ..............................
........................................................................

 iter      E             dE          RMSdq      gap      omega  full diag
   1   -131.7165066 -0.131717E+03  0.211E-01    1.38       0.0  T
   2   -131.7166906 -0.183972E-03  0.120E-01    1.39       1.0  T
   3   -131.7166726  0.180234E-04  0.520E-02    1.39       1.0  T
   4   -131.7167099 -0.373878E-04  0.222E-02    1.39       1.0  T
   5   -131.7167273 -0.173945E-04  0.845E-03    1.39       1.3  T
   6   -131.7167274 -0.182496E-07  0.503E-03    1.39       2.2  T
   7   -131.7167299 -0.249495E-05  0.142E-03    1.39       8.0  T
   8   -131.7167299 -0.322860E-07  0.874E-04    1.39      13.0  T
   9   -131.7167299 -0.219127E-07  0.422E-04    1.39      26.9  T
     SCC iter.                  ...        0 min,  0.226 sec
     gradient                   ...        0 min,  0.025 sec
 * total energy  :  -130.2010247 Eh     change       -0.1573304E-01 Eh
   gradient norm :     0.0495889 Eh/α   predicted    -0.1554837E-01 (  -1.17%)
   displ. norm   :     0.7323353 α      lambda       -0.1501951E-01
   maximum displ.:     0.3769011 α      in ANC's #22, #21, #20, ...

........................................................................
.............................. CYCLE   13 ..............................
........................................................................

 iter      E             dE          RMSdq      gap      omega  full diag
   1   -131.7425707 -0.131743E+03  0.211E-01    1.35       0.0  T
   2   -131.7427504 -0.179729E-03  0.118E-01    1.37       1.0  T
   3   -131.7427225  0.279276E-04  0.513E-02    1.36       1.0  T
   4   -131.7427680 -0.455536E-04  0.221E-02    1.37       1.0  T
   5   -131.7427893 -0.212330E-04  0.830E-03    1.36       1.4  T
   6   -131.7427896 -0.347522E-06  0.409E-03    1.37       2.8  T
   7   -131.7427908 -0.124136E-05  0.138E-03    1.36       8.2  T
   8   -131.7427909 -0.337449E-07  0.772E-04    1.37      14.7  T
   9   -131.7427909 -0.860248E-08  0.483E-04    1.36      23.4  T
     SCC iter.                  ...        0 min,  0.229 sec
     gradient                   ...        0 min,  0.026 sec
 * total energy  :  -130.2110607 Eh     change       -0.1003604E-01 Eh
   gradient norm :     0.0468790 Eh/α   predicted    -0.1153736E-01 (  14.96%)
   displ. norm   :     0.6527187 α      lambda       -0.1059442E-01
   maximum displ.:     0.3259895 α      in ANC's #22, #21, #5, ...

........................................................................
.............................. CYCLE   14 ..............................
........................................................................

 iter      E             dE          RMSdq      gap      omega  full diag
   1   -131.7582724 -0.131758E+03  0.191E-01    1.36       0.0  T
   2   -131.7584751 -0.202676E-03  0.107E-01    1.36       1.0  T
   3   -131.7584749  0.248336E-06  0.507E-02    1.36       1.0  T
   4   -131.7584685  0.633527E-05  0.234E-02    1.36       1.0  T
   5   -131.7585047 -0.361363E-04  0.769E-03    1.36       1.5  T
   6   -131.7585061 -0.137805E-05  0.434E-03    1.36       2.6  T
   7   -131.7585077 -0.166101E-05  0.103E-03    1.36      11.0  T
   8   -131.7585077 -0.548420E-08  0.704E-04    1.36      16.1  T
   9   -131.7585077 -0.186840E-07  0.330E-04    1.36      34.3  T
     SCC iter.                  ...        0 min,  0.238 sec
     gradient                   ...        0 min,  0.037 sec
 * total energy  :  -130.2174908 Eh     change       -0.6430063E-02 Eh
   gradient norm :     0.0434481 Eh/α   predicted    -0.7554042E-02 (  17.48%)
   displ. norm   :     0.5462876 α      lambda       -0.5495061E-02
   maximum displ.:     0.2051511 α      in ANC's #22, #5, #9, ...

........................................................................
.............................. CYCLE   15 ..............................
........................................................................

 iter      E             dE          RMSdq      gap      omega  full diag
   1   -131.7690181 -0.131769E+03  0.165E-01    1.35       0.0  T
   2   -131.7691957 -0.177595E-03  0.101E-01    1.34       1.0  T
   3   -131.7691975 -0.181210E-05  0.510E-02    1.35       1.0  T
   4   -131.7691858  0.117131E-04  0.226E-02    1.34       1.0  T
   5   -131.7692275 -0.416829E-04  0.567E-03    1.35       2.0  T
   6   -131.7692272  0.320980E-06  0.335E-03    1.35       3.4  T
   7   -131.7692281 -0.899604E-06  0.126E-03    1.35       9.0  T
   8   -131.7692281 -0.323009E-07  0.796E-04    1.35      14.2  T
   9   -131.7692281 -0.195485E-07  0.359E-04    1.35      31.5  T
     SCC iter.                  ...        0 min,  0.238 sec
     gradient                   ...        0 min,  0.025 sec
 * total energy  :  -130.2197591 Eh     change       -0.2268310E-02 Eh
   gradient norm :     0.0441304 Eh/α   predicted    -0.3567485E-02 (  57.28%)
   displ. norm   :     0.4355506 α      lambda       -0.4563385E-02
   maximum displ.:     0.1829406 α      in ANC's #5, #9, #15, ...

........................................................................
.............................. CYCLE   16 ..............................
........................................................................

 iter      E             dE          RMSdq      gap      omega  full diag
   1   -131.7762910 -0.131776E+03  0.121E-01    1.34       0.0  T
   2   -131.7763430 -0.520052E-04  0.707E-02    1.34       1.0  T
   3   -131.7763229  0.200808E-04  0.348E-02    1.33       1.0  T
   4   -131.7763408 -0.179158E-04  0.153E-02    1.34       1.0  T
   5   -131.7763628 -0.220089E-04  0.349E-03    1.34       3.2  T
   6   -131.7763629 -0.125283E-06  0.220E-03    1.34       5.1  T
   7   -131.7763633 -0.349355E-06  0.877E-04    1.34      12.9  T
   8   -131.7763633 -0.168658E-07  0.502E-04    1.34      22.6  T
     SCC iter.                  ...        0 min,  0.217 sec
     gradient                   ...        0 min,  0.025 sec
 * total energy  :  -130.2225495 Eh     change       -0.2790378E-02 Eh
   gradient norm :     0.0392423 Eh/α   predicted    -0.2714536E-02 (  -2.72%)
   displ. norm   :     0.4553286 α      lambda       -0.3218290E-02
   maximum displ.:     0.2444442 α      in ANC's #5, #15, #3, ...

........................................................................
.............................. CYCLE   17 ..............................
........................................................................

 iter      E             dE          RMSdq      gap      omega  full diag
   1   -131.7774081 -0.131777E+03  0.129E-01    1.34       0.0  T
   2   -131.7775115 -0.103403E-03  0.727E-02    1.34       1.0  T
   3   -131.7775140 -0.254498E-05  0.379E-02    1.34       1.0  T
   4   -131.7775063  0.773053E-05  0.123E-02    1.34       1.0  T
   5   -131.7775195 -0.132340E-04  0.297E-03    1.34       3.8  T
   6   -131.7775195  0.429375E-08  0.150E-03    1.34       7.5  T
   7   -131.7775197 -0.134831E-06  0.682E-04    1.34      16.6  T
   8   -131.7775197 -0.739388E-08  0.374E-04    1.34      30.3  T
     SCC iter.                  ...        0 min,  0.203 sec
     gradient                   ...        0 min,  0.026 sec
 * total energy  :  -130.2242448 Eh     change       -0.1695326E-02 Eh
   gradient norm :     0.0446060 Eh/α   predicted    -0.1942766E-02 (  14.60%)
   displ. norm   :     0.5258310 α      lambda       -0.3958196E-02
   maximum displ.:     0.2432315 α      in ANC's #5, #3, #15, ...

........................................................................
.............................. CYCLE   18 ..............................
........................................................................

 iter      E             dE          RMSdq      gap      omega  full diag
   1   -131.7831634 -0.131783E+03  0.126E-01    1.36       0.0  T
   2   -131.7832891 -0.125647E-03  0.743E-02    1.36       1.0  T
   3   -131.7833006 -0.115084E-04  0.403E-02    1.35       1.0  T
   4   -131.7832902  0.103337E-04  0.184E-02    1.36       1.0  T
   5   -131.7833124 -0.221293E-04  0.406E-03    1.35       2.8  T
   6   -131.7833124 -0.475865E-08  0.214E-03    1.35       5.3  T
   7   -131.7833125 -0.175937E-06  0.965E-04    1.35      11.7  T
   8   -131.7833125 -0.768642E-08  0.537E-04    1.35      21.1  T
     SCC iter.                  ...        0 min,  0.200 sec
     gradient                   ...        0 min,  0.025 sec
 * total energy  :  -130.2271172 Eh     change       -0.2872437E-02 Eh
   gradient norm :     0.0402813 Eh/α   predicted    -0.2526316E-02 ( -12.05%)
   displ. norm   :     0.6116598 α      lambda       -0.4801399E-02
   maximum displ.:     0.2737357 α      in ANC's #5, #15, #12, ...

........................................................................
.............................. CYCLE   19 ..............................
........................................................................

 iter      E             dE          RMSdq      gap      omega  full diag
   1   -131.7846938 -0.131785E+03  0.149E-01    1.36       0.0  T
   2   -131.7847693 -0.754787E-04  0.886E-02    1.36       1.0  T
   3   -131.7847636  0.562139E-05  0.340E-02    1.36       1.0  T
   4   -131.7847708 -0.719426E-05  0.112E-02    1.36       1.0  T
   5   -131.7847788 -0.801317E-05  0.501E-03    1.36       2.3  T
   6   -131.7847793 -0.444901E-06  0.239E-03    1.36       4.7  T
   7   -131.7847797 -0.466334E-06  0.107E-03    1.36      10.6  T
   8   -131.7847797  0.202024E-08  0.637E-04    1.36      17.8  T
   9   -131.7847798 -0.220145E-07  0.217E-04    1.36      52.3  T
     SCC iter.                  ...        0 min,  0.226 sec
     gradient                   ...        0 min,  0.025 sec
 * total energy  :  -130.2300618 Eh     change       -0.2944537E-02 Eh
   gradient norm :     0.0338589 Eh/α   predicted    -0.3298860E-02 (  12.03%)
   displ. norm   :     0.5897749 α      lambda       -0.4314072E-02
   maximum displ.:     0.2829002 α      in ANC's #5, #15, #3, ...

........................................................................
.............................. CYCLE   20 ..............................
........................................................................

 iter      E             dE          RMSdq      gap      omega  full diag
   1   -131.7830997 -0.131783E+03  0.141E-01    1.36       0.0  T
   2   -131.7831820 -0.822728E-04  0.782E-02    1.36       1.0  T
   3   -131.7831775  0.448261E-05  0.365E-02    1.35       1.0  T
   4   -131.7831776 -0.675777E-07  0.151E-02    1.36       1.0  T
   5   -131.7831933 -0.157794E-04  0.378E-03    1.36       3.0  T
   6   -131.7831933 -0.137487E-07  0.181E-03    1.36       6.2  T
   7   -131.7831935 -0.197713E-06  0.888E-04    1.36      12.8  T
   8   -131.7831935 -0.100528E-08  0.514E-04    1.36      22.0  T
     SCC iter.                  ...        0 min,  0.204 sec
     gradient                   ...        0 min,  0.025 sec
 * total energy  :  -130.2328812 Eh     change       -0.2819429E-02 Eh
   gradient norm :     0.0343242 Eh/α   predicted    -0.2907324E-02 (   3.12%)
   displ. norm   :     0.5975320 α      lambda       -0.4194180E-02
   maximum displ.:     0.2947784 α      in ANC's #5, #15, #9, ...
 * RMSD in coord.:     0.9801877 α      energy gain  -0.2413986E+01 Eh

generating ANC from exact Hessian ...
Using Lindh-Hessian (1995)
 Shifting diagonal of input Hessian by    9.8598239935130515E-003
 Lowest  eigenvalues of input Hessian
    0.000000    0.000000    0.000000    0.000000    0.000000    0.000000
    0.010000    0.010007    0.010040    0.010216    0.010279    0.010419
    0.010514    0.010647    0.010929    0.011046    0.011101    0.011429
 Highest eigenvalues
    2.093751    2.170058    2.180427    2.630238    2.670777    2.687183


........................................................................
.............................. CYCLE   21 ..............................
........................................................................

 iter      E             dE          RMSdq      gap      omega  full diag
   1   -131.7890110 -0.131789E+03  0.134E-01    1.35       0.0  T
   2   -131.7890623 -0.512207E-04  0.788E-02    1.35       1.0  T
   3   -131.7890362  0.260546E-04  0.307E-02    1.36       1.0  T
   4   -131.7890633 -0.271259E-04  0.136E-02    1.35       1.0  T
   5   -131.7890759 -0.125506E-04  0.481E-03    1.35       2.4  T
   6   -131.7890761 -0.201005E-06  0.276E-03    1.35       4.1  T
   7   -131.7890766 -0.543510E-06  0.980E-04    1.35      11.6  T
   8   -131.7890766 -0.980896E-08  0.633E-04    1.35      17.9  T
     SCC iter.                  ...        0 min,  0.203 sec
     gradient                   ...        0 min,  0.026 sec
 * total energy  :  -130.2355194 Eh     change       -0.2638196E-02 Eh
   gradient norm :     0.0305595 Eh/α   predicted     0.0000000E+00 (-100.00%)
   displ. norm   :     0.2906355 α      lambda       -0.3619978E-02
   maximum displ.:     0.1021902 α      in ANC's #5, #11, #9, ...

........................................................................
.............................. CYCLE   22 ..............................
........................................................................

 iter      E             dE          RMSdq      gap      omega  full diag
   1   -131.7910780 -0.131791E+03  0.992E-02    1.35       0.0  T
   2   -131.7910951 -0.171452E-04  0.509E-02    1.35       1.0  T
   3   -131.7910849  0.102284E-04  0.200E-02    1.35       1.0  T
   4   -131.7910942 -0.936708E-05  0.105E-02    1.35       1.1  T
   5   -131.7910999 -0.569338E-05  0.410E-03    1.35       2.8  T
   6   -131.7911009 -0.969363E-06  0.172E-03    1.35       6.6  T
   7   -131.7911011 -0.187280E-06  0.753E-04    1.35      15.0  T
   8   -131.7911011  0.118973E-08  0.450E-04    1.35      25.2  T
     SCC iter.                  ...        0 min,  0.202 sec
     gradient                   ...        0 min,  0.025 sec
 * total energy  :  -130.2383062 Eh     change       -0.2786794E-02 Eh
   gradient norm :     0.0155133 Eh/α   predicted    -0.1963330E-02 ( -29.55%)
   displ. norm   :     0.5062107 α      lambda       -0.3250009E-02
   maximum displ.:     0.1939135 α      in ANC's #5, #11, #27, ...

........................................................................
.............................. CYCLE   23 ..............................
........................................................................

 iter      E             dE          RMSdq      gap      omega  full diag
   1   -131.7916093 -0.131792E+03  0.139E-01    1.34       0.0  T
   2   -131.7916411 -0.317815E-04  0.670E-02    1.34       1.0  T
   3   -131.7916168  0.242616E-04  0.272E-02    1.35       1.0  T
   4   -131.7916387 -0.218405E-04  0.147E-02    1.34       1.0  T
   5   -131.7916523 -0.135957E-04  0.517E-03    1.34       2.2  T
   6   -131.7916536 -0.128087E-05  0.208E-03    1.34       5.4  T
   7   -131.7916538 -0.256805E-06  0.901E-04    1.34      12.6  T
   8   -131.7916538  0.247212E-08  0.532E-04    1.34      21.3  T
     SCC iter.                  ...        0 min,  0.199 sec
     gradient                   ...        0 min,  0.025 sec
 * total energy  :  -130.2407224 Eh     change       -0.2416197E-02 Eh
   gradient norm :     0.0107286 Eh/α   predicted    -0.2042010E-02 ( -15.49%)
   displ. norm   :     0.5565563 α      lambda       -0.2144190E-02
   maximum displ.:     0.2265654 α      in ANC's #5, #11, #27, ...

........................................................................
.............................. CYCLE   24 ..............................
........................................................................

 iter      E             dE          RMSdq      gap      omega  full diag
   1   -131.7916777 -0.131792E+03  0.137E-01    1.34       0.0  T
   2   -131.7917063 -0.286171E-04  0.656E-02    1.33       1.0  T
   3   -131.7916842  0.220848E-04  0.251E-02    1.34       1.0  T
   4   -131.7917025 -0.183069E-04  0.144E-02    1.33       1.0  T
   5   -131.7917162 -0.136968E-04  0.445E-03    1.34       2.5  T
   6   -131.7917170 -0.737950E-06  0.198E-03    1.34       5.7  T
   7   -131.7917172 -0.247584E-06  0.925E-04    1.34      12.2  T
   8   -131.7917172 -0.250535E-08  0.558E-04    1.34      20.3  T
     SCC iter.                  ...        0 min,  0.208 sec
     gradient                   ...        0 min,  0.029 sec
 * total energy  :  -130.2424375 Eh     change       -0.1715149E-02 Eh
   gradient norm :     0.0153590 Eh/α   predicted    -0.1404183E-02 ( -18.13%)
   displ. norm   :     0.6085078 α      lambda       -0.1912743E-02
   maximum displ.:     0.2660354 α      in ANC's #5, #11, #9, ...

........................................................................
.............................. CYCLE   25 ..............................
........................................................................

 iter      E             dE          RMSdq      gap      omega  full diag
   1   -131.7932910 -0.131793E+03  0.136E-01    1.34       0.0  T
   2   -131.7933175 -0.265173E-04  0.659E-02    1.33       1.0  T
   3   -131.7933029  0.145388E-04  0.225E-02    1.34       1.0  T
   4   -131.7933141 -0.111184E-04  0.136E-02    1.33       1.0  T
   5   -131.7933252 -0.111756E-04  0.407E-03    1.34       2.8  T
   6   -131.7933259 -0.654330E-06  0.196E-03    1.34       5.8  T
   7   -131.7933261 -0.235353E-06  0.985E-04    1.34      11.5  T
   8   -131.7933261 -0.586414E-08  0.548E-04    1.34      20.7  T
     SCC iter.                  ...        0 min,  0.216 sec
     gradient                   ...        0 min,  0.027 sec
 * total energy  :  -130.2439877 Eh     change       -0.1550138E-02 Eh
   gradient norm :     0.0151268 Eh/α   predicted    -0.1310499E-02 ( -15.46%)
   displ. norm   :     0.6065694 α      lambda       -0.1636280E-02
   maximum displ.:     0.2887958 α      in ANC's #5, #9, #11, ...

........................................................................
.............................. CYCLE   26 ..............................
........................................................................

 iter      E             dE          RMSdq      gap      omega  full diag
   1   -131.7971598 -0.131797E+03  0.120E-01    1.34       0.0  T
   2   -131.7971812 -0.214233E-04  0.590E-02    1.34       1.0  T
   3   -131.7971763  0.490274E-05  0.185E-02    1.34       1.0  T
   4   -131.7971806 -0.434590E-05  0.107E-02    1.34       1.1  T
   5   -131.7971859 -0.526694E-05  0.377E-03    1.34       3.0  T
   6   -131.7971865 -0.544518E-06  0.177E-03    1.34       6.4  T
   7   -131.7971866 -0.172832E-06  0.972E-04    1.34      11.7  T
   8   -131.7971866 -0.406283E-08  0.493E-04    1.34      23.0  T
     SCC iter.                  ...        0 min,  0.210 sec
     gradient                   ...        0 min,  0.025 sec
 * total energy  :  -130.2452942 Eh     change       -0.1306492E-02 Eh
   gradient norm :     0.0101011 Eh/α   predicted    -0.1119165E-02 ( -14.34%)
   displ. norm   :     0.6084951 α      lambda       -0.1236449E-02
   maximum displ.:     0.3059250 α      in ANC's #5, #9, #7, ...

........................................................................
.............................. CYCLE   27 ..............................
........................................................................

 iter      E             dE          RMSdq      gap      omega  full diag
   1   -131.8005439 -0.131801E+03  0.106E-01    1.34       0.0  T
   2   -131.8005606 -0.167855E-04  0.529E-02    1.34       1.0  T
   3   -131.8005589  0.172527E-05  0.159E-02    1.34       1.0  T
   4   -131.8005611 -0.216215E-05  0.875E-03    1.34       1.3  T
   5   -131.8005638 -0.276780E-05  0.348E-03    1.34       3.3  T
   6   -131.8005643 -0.464150E-06  0.146E-03    1.34       7.8  T
   7   -131.8005644 -0.795176E-07  0.890E-04    1.34      12.7  T
   8   -131.8005644  0.207572E-08  0.454E-04    1.34      24.9  T
     SCC iter.                  ...        0 min,  0.199 sec
     gradient                   ...        0 min,  0.025 sec
 * total energy  :  -130.2463088 Eh     change       -0.1014602E-02 Eh
   gradient norm :     0.0085884 Eh/α   predicted    -0.8471580E-03 ( -16.50%)
   displ. norm   :     0.6195217 α      lambda       -0.1072948E-02
   maximum displ.:     0.3211286 α      in ANC's #5, #9, #7, ...

........................................................................
.............................. CYCLE   28 ..............................
........................................................................

 iter      E             dE          RMSdq      gap      omega  full diag
   1   -131.8034054 -0.131803E+03  0.103E-01    1.34       0.0  T
   2   -131.8034210 -0.155454E-04  0.510E-02    1.34       1.0  T
   3   -131.8034194  0.151133E-05  0.151E-02    1.34       1.0  T
   4   -131.8034208 -0.138324E-05  0.833E-03    1.34       1.4  T
   5   -131.8034237 -0.287751E-05  0.347E-03    1.34       3.3  T
   6   -131.8034243 -0.602412E-06  0.129E-03    1.34       8.8  T
   7   -131.8034244 -0.530380E-07  0.801E-04    1.34      14.1  T
   8   -131.8034244 -0.372358E-08  0.289E-04    1.34      39.1  T
     SCC iter.                  ...        0 min,  0.202 sec
     gradient                   ...        0 min,  0.026 sec
 * total energy  :  -130.2472213 Eh     change       -0.9125206E-03 Eh
   gradient norm :     0.0095590 Eh/α   predicted    -0.7424217E-03 ( -18.64%)
   displ. norm   :     0.6524756 α      lambda       -0.1060954E-02
   maximum displ.:     0.3417042 α      in ANC's #5, #7, #9, ...

........................................................................
.............................. CYCLE   29 ..............................
........................................................................

 iter      E             dE          RMSdq      gap      omega  full diag
   1   -131.8053101 -0.131805E+03  0.111E-01    1.34       0.0  T
   2   -131.8053269 -0.168434E-04  0.542E-02    1.34       1.0  T
   3   -131.8053226  0.435750E-05  0.166E-02    1.34       1.0  T
   4   -131.8053258 -0.319428E-05  0.969E-03    1.34       1.2  T
   5   -131.8053310 -0.524092E-05  0.356E-03    1.34       3.2  T
   6   -131.8053315 -0.498101E-06  0.140E-03    1.34       8.1  T
   7   -131.8053316 -0.579650E-07  0.843E-04    1.34      13.4  T
   8   -131.8053316 -0.370491E-08  0.326E-04    1.34      34.8  T
     SCC iter.                  ...        0 min,  0.198 sec
     gradient                   ...        0 min,  0.025 sec
 * total energy  :  -130.2481321 Eh     change       -0.9107936E-03 Eh
   gradient norm :     0.0087600 Eh/α   predicted    -0.7563148E-03 ( -16.96%)
   displ. norm   :     0.6824142 α      lambda       -0.1026228E-02
   maximum displ.:     0.3565581 α      in ANC's #5, #7, #9, ...

........................................................................
.............................. CYCLE   30 ..............................
........................................................................

 iter      E             dE          RMSdq      gap      omega  full diag
   1   -131.8061253 -0.131806E+03  0.118E-01    1.34       0.0  T
   2   -131.8061423 -0.169812E-04  0.583E-02    1.34       1.0  T
   3   -131.8061340  0.826872E-05  0.180E-02    1.34       1.0  T
   4   -131.8061417 -0.769247E-05  0.106E-02    1.34       1.1  T
   5   -131.8061479 -0.616269E-05  0.344E-03    1.34       3.3  T
   6   -131.8061482 -0.365175E-06  0.152E-03    1.34       7.4  T
   7   -131.8061483 -0.737529E-07  0.916E-04    1.34      12.4  T
   8   -131.8061483  0.511540E-08  0.480E-04    1.34      23.6  T
     SCC iter.                  ...        0 min,  0.201 sec
     gradient                   ...        0 min,  0.025 sec
 * total energy  :  -130.2490018 Eh     change       -0.8696848E-03 Eh
   gradient norm :     0.0078330 Eh/α   predicted    -0.7520671E-03 ( -13.52%)
   displ. norm   :     0.6900754 α      lambda       -0.9243914E-03
   maximum displ.:     0.3566882 α      in ANC's #5, #7, #9, ...

........................................................................
.............................. CYCLE   31 ..............................
........................................................................

 iter      E             dE          RMSdq      gap      omega  full diag
   1   -131.8059342 -0.131806E+03  0.117E-01    1.34       0.0  T
   2   -131.8059494 -0.151898E-04  0.592E-02    1.34       1.0  T
   3   -131.8059389  0.105281E-04  0.183E-02    1.34       1.0  T
   4   -131.8059493 -0.104286E-04  0.105E-02    1.34       1.1  T
   5   -131.8059550 -0.568152E-05  0.338E-03    1.34       3.3  T
   6   -131.8059554 -0.415689E-06  0.161E-03    1.34       7.0  T
   7   -131.8059555 -0.105442E-06  0.972E-04    1.34      11.6  T
   8   -131.8059555  0.241590E-08  0.548E-04    1.34      20.7  T
     SCC iter.                  ...        0 min,  0.201 sec
     gradient                   ...        0 min,  0.025 sec
 * total energy  :  -130.2497930 Eh     change       -0.7912478E-03 Eh
   gradient norm :     0.0102421 Eh/α   predicted    -0.6823160E-03 ( -13.77%)
   displ. norm   :     0.6903985 α      lambda       -0.9127741E-03
   maximum displ.:     0.3499638 α      in ANC's #5, #7, #9, ...

........................................................................
.............................. CYCLE   32 ..............................
........................................................................

 iter      E             dE          RMSdq      gap      omega  full diag
   1   -131.8069655 -0.131807E+03  0.111E-01    1.34       0.0  T
   2   -131.8069785 -0.129899E-04  0.587E-02    1.34       1.0  T
   3   -131.8069648  0.137258E-04  0.184E-02    1.35       1.0  T
   4   -131.8069787 -0.139601E-04  0.997E-03    1.34       1.1  T
   5   -131.8069836 -0.490725E-05  0.334E-03    1.34       3.4  T
   6   -131.8069841 -0.434901E-06  0.162E-03    1.34       7.0  T
   7   -131.8069842 -0.139862E-06  0.919E-04    1.34      12.3  T
   8   -131.8069842  0.975177E-09  0.496E-04    1.34      22.8  T
     SCC iter.                  ...        0 min,  0.202 sec
     gradient                   ...        0 min,  0.025 sec
 * total energy  :  -130.2505845 Eh     change       -0.7914727E-03 Eh
   gradient norm :     0.0126335 Eh/α   predicted    -0.6739249E-03 ( -14.85%)
   displ. norm   :     0.7210393 α      lambda       -0.9464120E-03
   maximum displ.:     0.3556225 α      in ANC's #5, #7, #9, ...

........................................................................
.............................. CYCLE   33 ..............................
........................................................................

 iter      E             dE          RMSdq      gap      omega  full diag
   1   -131.8057695 -0.131806E+03  0.114E-01    1.34       0.0  T
   2   -131.8057811 -0.115901E-04  0.613E-02    1.34       1.0  T
   3   -131.8057629  0.182242E-04  0.196E-02    1.35       1.0  T
   4   -131.8057812 -0.183190E-04  0.101E-02    1.34       1.1  T
   5   -131.8057862 -0.498933E-05  0.356E-03    1.34       3.2  T
   6   -131.8057870 -0.842131E-06  0.156E-03    1.34       7.3  T
   7   -131.8057871 -0.837005E-07  0.902E-04    1.34      12.5  T
   8   -131.8057871 -0.586709E-09  0.468E-04    1.34      24.2  T
     SCC iter.                  ...        0 min,  0.202 sec
     gradient                   ...        0 min,  0.025 sec
 * total energy  :  -130.2513885 Eh     change       -0.8039731E-03 Eh
   gradient norm :     0.0127413 Eh/α   predicted    -0.7192315E-03 ( -10.54%)
   displ. norm   :     0.6836790 α      lambda       -0.9996024E-03
   maximum displ.:     0.3072336 α      in ANC's #5, #7, #9, ...

........................................................................
.............................. CYCLE   34 ..............................
........................................................................

 iter      E             dE          RMSdq      gap      omega  full diag
   1   -131.8145836 -0.131815E+03  0.105E-01    1.35       0.0  T
   2   -131.8145964 -0.127468E-04  0.591E-02    1.34       1.0  T
   3   -131.8145784  0.179168E-04  0.178E-02    1.35       1.0  T
   4   -131.8145974 -0.189122E-04  0.819E-03    1.34       1.4  T
   5   -131.8146007 -0.336768E-05  0.315E-03    1.34       3.6  T
   6   -131.8146011 -0.362745E-06  0.161E-03    1.34       7.0  T
   7   -131.8146012 -0.160646E-06  0.703E-04    1.34      16.1  T
   8   -131.8146012 -0.886189E-09  0.413E-04    1.34      27.4  T
     SCC iter.                  ...        0 min,  0.205 sec
     gradient                   ...        0 min,  0.027 sec
 * total energy  :  -130.2519763 Eh     change       -0.5878706E-03 Eh
   gradient norm :     0.0138611 Eh/α   predicted    -0.7334184E-03 (  24.76%)
   displ. norm   :     0.7007097 α      lambda       -0.9179245E-03
   maximum displ.:     0.3426818 α      in ANC's #5, #7, #9, ...

........................................................................
.............................. CYCLE   35 ..............................
........................................................................

 iter      E             dE          RMSdq      gap      omega  full diag
   1   -131.8071244 -0.131807E+03  0.114E-01    1.34       0.0  T
   2   -131.8071417 -0.173513E-04  0.607E-02    1.34       1.0  T
   3   -131.8071292  0.125518E-04  0.197E-02    1.35       1.0  T
   4   -131.8071386 -0.941555E-05  0.113E-02    1.34       1.0  T
   5   -131.8071469 -0.830500E-05  0.398E-03    1.34       2.8  T
   6   -131.8071477 -0.769400E-06  0.184E-03    1.34       6.2  T
   7   -131.8071478 -0.137741E-06  0.997E-04    1.34      11.4  T
   8   -131.8071478  0.522655E-08  0.570E-04    1.34      19.9  T
     SCC iter.                  ...        0 min,  0.212 sec
     gradient                   ...        0 min,  0.027 sec
 * total energy  :  -130.2525916 Eh     change       -0.6152636E-03 Eh
   gradient norm :     0.0119733 Eh/α   predicted    -0.6843135E-03 (  11.22%)
   displ. norm   :     0.5850355 α      lambda       -0.5115253E-03
   maximum displ.:     0.2873709 α      in ANC's #5, #7, #9, ...

........................................................................
.............................. CYCLE   36 ..............................
........................................................................

 iter      E             dE          RMSdq      gap      omega  full diag
   1   -131.8063299 -0.131806E+03  0.922E-02    1.34       0.0  T
   2   -131.8063447 -0.148266E-04  0.483E-02    1.34       1.0  T
   3   -131.8063380  0.668960E-05  0.161E-02    1.34       1.0  T
   4   -131.8063424 -0.435610E-05  0.920E-03    1.34       1.2  T
   5   -131.8063482 -0.581603E-05  0.341E-03    1.34       3.3  T
   6   -131.8063486 -0.387585E-06  0.145E-03    1.34       7.8  T
   7   -131.8063487 -0.117455E-06  0.745E-04    1.34      15.2  T
   8   -131.8063487  0.173904E-08  0.454E-04    1.34      24.9  T
     SCC iter.                  ...        0 min,  0.219 sec
     gradient                   ...        0 min,  0.026 sec
 * total energy  :  -130.2530019 Eh     change       -0.4102852E-03 Eh
   gradient norm :     0.0116014 Eh/α   predicted    -0.3433076E-03 ( -16.32%)
   displ. norm   :     0.5744775 α      lambda       -0.7827801E-03
   maximum displ.:     0.2591079 α      in ANC's #5, #7, #2, ...

........................................................................
.............................. CYCLE   37 ..............................
........................................................................

 iter      E             dE          RMSdq      gap      omega  full diag
   1   -131.8151187 -0.131815E+03  0.933E-02    1.34       0.0  T
   2   -131.8151402 -0.214751E-04  0.480E-02    1.34       1.0  T
   3   -131.8151363  0.389793E-05  0.169E-02    1.34       1.0  T
   4   -131.8151384 -0.212691E-05  0.873E-03    1.34       1.3  T
   5   -131.8151435 -0.507271E-05  0.345E-03    1.34       3.3  T
   6   -131.8151440 -0.482362E-06  0.109E-03    1.34      10.4  T
   7   -131.8151440 -0.710156E-07  0.467E-04    1.34      24.3  T
   8   -131.8151440 -0.303373E-09  0.265E-04    1.34      42.7  T
     SCC iter.                  ...        0 min,  0.213 sec
     gradient                   ...        0 min,  0.028 sec
 * total energy  :  -130.2534865 Eh     change       -0.4846633E-03 Eh
   gradient norm :     0.0085562 Eh/α   predicted    -0.5205605E-03 (   7.41%)
   displ. norm   :     0.6646669 α      lambda       -0.5074257E-03
   maximum displ.:     0.3034056 α      in ANC's #5, #7, #9, ...

........................................................................
.............................. CYCLE   38 ..............................
........................................................................

 iter      E             dE          RMSdq      gap      omega  full diag
   1   -131.8133782 -0.131813E+03  0.108E-01    1.34       0.0  T
   2   -131.8133937 -0.154847E-04  0.561E-02    1.34       1.0  T
   3   -131.8133827  0.109062E-04  0.185E-02    1.34       1.0  T
   4   -131.8133918 -0.907566E-05  0.106E-02    1.34       1.1  T
   5   -131.8133989 -0.706492E-05  0.352E-03    1.34       3.2  T
   6   -131.8133993 -0.381705E-06  0.161E-03    1.34       7.0  T
   7   -131.8133994 -0.933307E-07  0.971E-04    1.34      11.7  T
   8   -131.8133994  0.122259E-08  0.547E-04    1.34      20.7  T
     SCC iter.                  ...        0 min,  0.202 sec
     gradient                   ...        0 min,  0.025 sec
 * total energy  :  -130.2538591 Eh     change       -0.3725310E-03 Eh
   gradient norm :     0.0095475 Eh/α   predicted    -0.3657995E-03 (  -1.81%)
   displ. norm   :     0.5505319 α      lambda       -0.4562189E-03
   maximum displ.:     0.2214273 α      in ANC's #5, #7, #8, ...

........................................................................
.............................. CYCLE   39 ..............................
........................................................................

 iter      E             dE          RMSdq      gap      omega  full diag
   1   -131.8149158 -0.131815E+03  0.916E-02    1.34       0.0  T
   2   -131.8149248 -0.897199E-05  0.466E-02    1.34       1.0  T
   3   -131.8149190  0.577090E-05  0.141E-02    1.34       1.0  T
   4   -131.8149240 -0.501595E-05  0.826E-03    1.34       1.4  T
   5   -131.8149279 -0.381083E-05  0.236E-03    1.34       4.8  T
   6   -131.8149281 -0.263240E-06  0.104E-03    1.34      10.9  T
   7   -131.8149281 -0.213607E-07  0.657E-04    1.34      17.2  T
   8   -131.8149281 -0.369340E-09  0.287E-04    1.34      39.5  T
     SCC iter.                  ...        0 min,  0.207 sec
     gradient                   ...        0 min,  0.025 sec
 * total energy  :  -130.2541660 Eh     change       -0.3069621E-03 Eh
   gradient norm :     0.0102018 Eh/α   predicted    -0.2972485E-03 (  -3.16%)
   displ. norm   :     0.5582720 α      lambda       -0.4277976E-03
   maximum displ.:     0.2155397 α      in ANC's #7, #5, #9, ...

........................................................................
.............................. CYCLE   40 ..............................
........................................................................

 iter      E             dE          RMSdq      gap      omega  full diag
   1   -131.8132611 -0.131813E+03  0.913E-02    1.34       0.0  T
   2   -131.8132703 -0.916023E-05  0.460E-02    1.34       1.0  T
   3   -131.8132650  0.530309E-05  0.138E-02    1.34       1.0  T
   4   -131.8132696 -0.467236E-05  0.830E-03    1.33       1.4  T
   5   -131.8132733 -0.368889E-05  0.249E-03    1.34       4.5  T
   6   -131.8132736 -0.295425E-06  0.121E-03    1.34       9.4  T
   7   -131.8132737 -0.373514E-07  0.757E-04    1.34      15.0  T
   8   -131.8132737  0.187185E-09  0.405E-04    1.34      27.9  T
     SCC iter.                  ...        0 min,  0.209 sec
     gradient                   ...        0 min,  0.026 sec
 * total energy  :  -130.2545075 Eh     change       -0.3414291E-03 Eh
   gradient norm :     0.0086375 Eh/α   predicted    -0.2805652E-03 ( -17.83%)
   displ. norm   :     0.4940734 α      lambda       -0.5144127E-03
   maximum displ.:     0.1921985 α      in ANC's #8, #2, #4, ...

........................................................................
.............................. CYCLE   41 ..............................
........................................................................

 iter      E             dE          RMSdq      gap      omega  full diag
   1   -131.8178419 -0.131818E+03  0.823E-02    1.34       0.0  T
   2   -131.8178528 -0.108937E-04  0.424E-02    1.34       1.0  T
   3   -131.8178515  0.131038E-05  0.111E-02    1.34       1.0  T
   4   -131.8178531 -0.159979E-05  0.655E-03    1.34       1.7  T
   5   -131.8178548 -0.173298E-05  0.257E-03    1.34       4.4  T
   6   -131.8178551 -0.264898E-06  0.121E-03    1.34       9.4  T
   7   -131.8178552 -0.773593E-07  0.687E-04    1.34      16.5  T
   8   -131.8178552  0.393698E-09  0.324E-04    1.34      35.0  T
     SCC iter.                  ...        0 min,  0.200 sec
     gradient                   ...        0 min,  0.025 sec
 * total energy  :  -130.2548614 Eh     change       -0.3539071E-03 Eh
   gradient norm :     0.0082383 Eh/α   predicted    -0.3199942E-03 (  -9.58%)
   displ. norm   :     0.6720049 α      lambda       -0.4488734E-03
   maximum displ.:     0.2546281 α      in ANC's #8, #7, #9, ...

........................................................................
.............................. CYCLE   42 ..............................
........................................................................

 iter      E             dE          RMSdq      gap      omega  full diag
   1   -131.8142229 -0.131814E+03  0.114E-01    1.34       0.0  T
   2   -131.8142389 -0.160831E-04  0.584E-02    1.33       1.0  T
   3   -131.8142320  0.695883E-05  0.175E-02    1.34       1.0  T
   4   -131.8142362 -0.424824E-05  0.111E-02    1.33       1.0  T
   5   -131.8142435 -0.725151E-05  0.416E-03    1.34       2.7  T
   6   -131.8142444 -0.943402E-06  0.187E-03    1.34       6.1  T
   7   -131.8142445 -0.807833E-07  0.113E-03    1.34      10.1  T
   8   -131.8142445  0.910197E-08  0.576E-04    1.34      19.7  T
   9   -131.8142445 -0.274590E-07  0.172E-04    1.34      65.7  T
     SCC iter.                  ...        0 min,  0.226 sec
     gradient                   ...        0 min,  0.025 sec
 * total energy  :  -130.2551921 Eh     change       -0.3307516E-03 Eh
   gradient norm :     0.0090832 Eh/α   predicted    -0.3257912E-03 (  -1.50%)
   displ. norm   :     0.5200761 α      lambda       -0.4661320E-03
   maximum displ.:     0.2162956 α      in ANC's #8, #14, #9, ...
 * RMSD in coord.:     1.3284923 α      energy gain  -0.2231092E-01 Eh

generating ANC from exact Hessian ...
Using Lindh-Hessian (1995)
 Shifting diagonal of input Hessian by    9.8305735392971941E-003
 Lowest  eigenvalues of input Hessian
    0.000000    0.000000    0.000000    0.000000    0.000000    0.000000
    0.010000    0.010041    0.010092    0.010182    0.010211    0.010329
    0.010433    0.010496    0.010817    0.010850    0.011044    0.011290
 Highest eigenvalues
    2.103370    2.180967    2.185849    2.618080    2.627010    2.630621


........................................................................
.............................. CYCLE   43 ..............................
........................................................................

 iter      E             dE          RMSdq      gap      omega  full diag
   1   -131.8146473 -0.131815E+03  0.932E-02    1.34       0.0  T
   2   -131.8146583 -0.109111E-04  0.474E-02    1.34       1.0  T
   3   -131.8146552  0.308114E-05  0.137E-02    1.34       1.0  T
   4   -131.8146568 -0.160184E-05  0.857E-03    1.34       1.3  T
   5   -131.8146609 -0.417660E-05  0.314E-03    1.34       3.6  T
   6   -131.8146615 -0.556056E-06  0.142E-03    1.34       8.0  T
   7   -131.8146616 -0.504488E-07  0.843E-04    1.34      13.4  T
   8   -131.8146616 -0.275767E-08  0.383E-04    1.34      29.6  T
     SCC iter.                  ...        0 min,  0.202 sec
     gradient                   ...        0 min,  0.025 sec
 * total energy  :  -130.2554828 Eh     change       -0.2907054E-03 Eh
   gradient norm :     0.0089919 Eh/α   predicted     0.0000000E+00 (-100.00%)
   displ. norm   :     0.0786491 α      lambda       -0.2196127E-03
   maximum displ.:     0.0307112 α      in ANC's #7, #8, #5, ...

........................................................................
.............................. CYCLE   44 ..............................
........................................................................

 iter      E             dE          RMSdq      gap      omega  full diag
   1   -131.8165128 -0.131817E+03  0.218E-02    1.34       0.0  T
   2   -131.8165136 -0.831720E-06  0.121E-02    1.34       1.0  T
   3   -131.8165134  0.201189E-06  0.366E-03    1.34       3.1  T
   4   -131.8165136 -0.240337E-06  0.168E-03    1.34       6.7  T
   5   -131.8165138 -0.126983E-06  0.730E-04    1.34      15.5  T
   6   -131.8165138 -0.113135E-07  0.321E-04    1.34      35.3  T
     SCC iter.                  ...        0 min,  0.150 sec
     gradient                   ...        0 min,  0.025 sec
 * total energy  :  -130.2556489 Eh     change       -0.1660424E-03 Eh
   gradient norm :     0.0038774 Eh/α   predicted    -0.1115262E-03 ( -32.83%)
   displ. norm   :     0.1588180 α      lambda       -0.1918367E-03
   maximum displ.:     0.0697901 α      in ANC's #7, #8, #5, ...

........................................................................
.............................. CYCLE   45 ..............................
........................................................................

 iter      E             dE          RMSdq      gap      omega  full diag
   1   -131.8181827 -0.131818E+03  0.312E-02    1.34       0.0  T
   2   -131.8181846 -0.187749E-05  0.167E-02    1.34       1.0  T
   3   -131.8181847 -0.408866E-07  0.472E-03    1.34       2.4  T
   4   -131.8181848 -0.106260E-06  0.213E-03    1.34       5.3  T
   5   -131.8181849 -0.114943E-06  0.113E-03    1.34      10.0  T
   6   -131.8181849 -0.374645E-07  0.396E-04    1.34      28.6  T
   7   -131.8181849 -0.267900E-08  0.264E-04    1.34      43.0  T
     SCC iter.                  ...        0 min,  0.174 sec
     gradient                   ...        0 min,  0.025 sec
 * total energy  :  -130.2557801 Eh     change       -0.1312538E-03 Eh
   gradient norm :     0.0029702 Eh/α   predicted    -0.9833886E-04 ( -25.08%)
   displ. norm   :     0.1761863 α      lambda       -0.1153512E-03
   maximum displ.:     0.0810349 α      in ANC's #7, #8, #5, ...

........................................................................
.............................. CYCLE   46 ..............................
........................................................................

 iter      E             dE          RMSdq      gap      omega  full diag
   1   -131.8186816 -0.131819E+03  0.299E-02    1.35       0.0  T
   2   -131.8186830 -0.144151E-05  0.157E-02    1.35       1.0  T
   3   -131.8186831 -0.350340E-07  0.412E-03    1.35       2.7  T
   4   -131.8186831 -0.608779E-07  0.210E-03    1.35       5.4  T
   5   -131.8186833 -0.131272E-06  0.109E-03    1.35      10.4  T
   6   -131.8186833 -0.512587E-07  0.389E-04    1.35      29.1  T
   7   -131.8186833 -0.575511E-09  0.267E-04    1.35      42.4  T
     SCC iter.                  ...        0 min,  0.175 sec
     gradient                   ...        0 min,  0.025 sec
 * total energy  :  -130.2558745 Eh     change       -0.9441314E-04 Eh
   gradient norm :     0.0044138 Eh/α   predicted    -0.5962647E-04 ( -36.85%)
   displ. norm   :     0.3043002 α      lambda       -0.1783329E-03
   maximum displ.:     0.1411680 α      in ANC's #7, #8, #5, ...

........................................................................
.............................. CYCLE   47 ..............................
........................................................................

 iter      E             dE          RMSdq      gap      omega  full diag
   1   -131.8183360 -0.131818E+03  0.501E-02    1.35       0.0  T
   2   -131.8183393 -0.331298E-05  0.260E-02    1.35       1.0  T
   3   -131.8183394 -0.626863E-07  0.658E-03    1.35       1.7  T
   4   -131.8183395 -0.148286E-06  0.359E-03    1.35       3.2  T
   5   -131.8183400 -0.454223E-06  0.158E-03    1.35       7.2  T
   6   -131.8183401 -0.110232E-06  0.639E-04    1.35      17.7  T
   7   -131.8183401 -0.275779E-08  0.425E-04    1.35      26.7  T
     SCC iter.                  ...        0 min,  0.176 sec
     gradient                   ...        0 min,  0.025 sec
 * total energy  :  -130.2560200 Eh     change       -0.1454490E-03 Eh
   gradient norm :     0.0046318 Eh/α   predicted    -0.9742328E-04 ( -33.02%)
   displ. norm   :     0.4019876 α      lambda       -0.2079659E-03
   maximum displ.:     0.1900766 α      in ANC's #7, #5, #8, ...

........................................................................
.............................. CYCLE   48 ..............................
........................................................................

 iter      E             dE          RMSdq      gap      omega  full diag
   1   -131.8171763 -0.131817E+03  0.658E-02    1.35       0.0  T
   2   -131.8171816 -0.524379E-05  0.337E-02    1.35       1.0  T
   3   -131.8171817 -0.155850E-06  0.860E-03    1.35       1.3  T
   4   -131.8171820 -0.272375E-06  0.482E-03    1.35       2.4  T
   5   -131.8171828 -0.798098E-06  0.175E-03    1.35       6.5  T
   6   -131.8171829 -0.109461E-06  0.864E-04    1.35      13.1  T
   7   -131.8171829 -0.123887E-07  0.563E-04    1.35      20.1  T
     SCC iter.                  ...        0 min,  0.177 sec
     gradient                   ...        0 min,  0.025 sec
 * total energy  :  -130.2561880 Eh     change       -0.1679950E-03 Eh
   gradient norm :     0.0041889 Eh/α   predicted    -0.1207868E-03 ( -28.10%)
   displ. norm   :     0.4344441 α      lambda       -0.2126574E-03
   maximum displ.:     0.2095572 α      in ANC's #7, #5, #8, ...

........................................................................
.............................. CYCLE   49 ..............................
........................................................................

 iter      E             dE          RMSdq      gap      omega  full diag
   1   -131.8161926 -0.131816E+03  0.710E-02    1.35       0.0  T
   2   -131.8161990 -0.640721E-05  0.360E-02    1.35       1.0  T
   3   -131.8161989  0.135541E-06  0.975E-03    1.35       1.2  T
   4   -131.8161996 -0.699929E-06  0.558E-03    1.35       2.0  T
   5   -131.8162006 -0.992804E-06  0.196E-03    1.35       5.8  T
   6   -131.8162007 -0.116425E-06  0.103E-03    1.35      11.0  T
   7   -131.8162007 -0.320530E-07  0.625E-04    1.35      18.1  T
   8   -131.8162007 -0.261869E-08  0.270E-04    1.35      41.9  T
     SCC iter.                  ...        0 min,  0.200 sec
     gradient                   ...        0 min,  0.025 sec
 * total energy  :  -130.2563632 Eh     change       -0.1752520E-03 Eh
   gradient norm :     0.0046360 Eh/α   predicted    -0.1264025E-03 ( -27.87%)
   displ. norm   :     0.4646068 α      lambda       -0.2442138E-03
   maximum displ.:     0.2274007 α      in ANC's #7, #5, #8, ...

........................................................................
.............................. CYCLE   50 ..............................
........................................................................

 iter      E             dE          RMSdq      gap      omega  full diag
   1   -131.8161422 -0.131816E+03  0.759E-02    1.35       0.0  T
   2   -131.8161503 -0.812489E-05  0.385E-02    1.35       1.0  T
   3   -131.8161490  0.130277E-05  0.114E-02    1.35       1.0  T
   4   -131.8161508 -0.179849E-05  0.654E-03    1.35       1.7  T
   5   -131.8161523 -0.147275E-05  0.254E-03    1.35       4.5  T
   6   -131.8161525 -0.226150E-06  0.129E-03    1.35       8.8  T
   7   -131.8161526 -0.811221E-07  0.694E-04    1.35      16.3  T
   8   -131.8161526 -0.362093E-09  0.357E-04    1.35      31.8  T
     SCC iter.                  ...        0 min,  0.200 sec
     gradient                   ...        0 min,  0.025 sec
 * total energy  :  -130.2565633 Eh     change       -0.2001024E-03 Eh
   gradient norm :     0.0058948 Eh/α   predicted    -0.1484820E-03 ( -25.80%)
   displ. norm   :     0.4953238 α      lambda       -0.2617764E-03
   maximum displ.:     0.2441796 α      in ANC's #7, #5, #8, ...

........................................................................
.............................. CYCLE   51 ..............................
........................................................................

 iter      E             dE          RMSdq      gap      omega  full diag
[...]
    91   6 C       92   6 C                                       1.4167570
    80   6 C       93   7 N                                       1.4492995
    92   6 C       93   7 N                                       1.3871043
    88   6 C       94   6 C                                       1.4136633
    93   7 N       94   6 C                                       1.3893251
    94   6 C       95   6 C                                       1.3925373
    95   6 C       96   6 C                                       1.3848533
    89   6 C       97   6 C                                       1.3892381
    96   6 C       97   6 C                                       1.3836034
    91   6 C       98   6 C                                       1.4177996
    98   6 C       99   6 C                                       1.3825174
    99   6 C      100   6 C                                       1.3815564
    92   6 C      101   6 C                                       1.3930816
   100   6 C      101   6 C                                       1.3817593
    98   6 C      102   8 O                                       1.3617853
    82   6 C      103   8 O                                       1.3679853
   106  16 S      107   8 O                                       1.4574269
   108   8 O      109   6 C                                       1.4022514
   104  16 S      110   8 O                                       1.4547037
   111   8 O      112   6 C                                       1.4006174
   105  16 S      113   8 O                                       1.4527067
   114   8 O      115   6 C                                       1.4060740
    81   6 C      116   1 H                                       1.0778108
    85   6 C      117   1 H                                       1.0773692
    99   6 C      118   1 H                                       1.0779018
   101   6 C      119   1 H                                       1.0765508
    95   6 C      120   1 H                                       1.0769467
    97   6 C      121   1 H                                       1.0759167 (min)
    80   6 C      122   6 C                                       1.5318516
   122   6 C      123   6 C                                       1.5231670
    79   6 C      124   6 C                                       1.5326412
   124   6 C      125   6 C                                       1.5241407
   102   8 O      126   6 C                                       1.4065599
   103   8 O      127   6 C                                       1.4102467
   112   6 C      128   1 H                                       1.0893054
   112   6 C      129   1 H                                       1.0949552
   112   6 C      130   1 H                                       1.0956866
   115   6 C      131   1 H                                       1.0891635
   115   6 C      132   1 H                                       1.0944809
   115   6 C      133   1 H                                       1.0951827
   109   6 C      134   1 H                                       1.0899968
   109   6 C      135   1 H                                       1.0957453
   109   6 C      136   1 H                                       1.0932874
    80   6 C      137   1 H                                       1.0858307
    80   6 C      138   1 H                                       1.0956590
   122   6 C      139   1 H                                       1.0915097
   122   6 C      140   1 H                                       1.0913126
   123   6 C      141   1 H                                       1.0884212
   123   6 C      142   1 H                                       1.0873047
   123   6 C      143   1 H                                       1.0873487
   126   6 C      144   1 H                                       1.0892906
   126   6 C      145   1 H                                       1.0948005
   126   6 C      146   1 H                                       1.0942529
   127   6 C      147   1 H                                       1.0885488
   127   6 C      148   1 H                                       1.0924607
   127   6 C      149   1 H                                       1.0931880
   125   6 C      150   1 H                                       1.0866196
   125   6 C      151   1 H                                       1.0879304
   125   6 C      152   1 H                                       1.0879818
   124   6 C      153   1 H                                       1.0900147
   124   6 C      154   1 H                                       1.0924792
    79   6 C      155   1 H                                       1.0878822
    79   6 C      156   1 H                                       1.0934636

 * 5 distinct bonds (by element types)

   Z      Z             #   av. dist./Å        max./Å        min./Å
   1 H    6 C          70     1.0888620     1.0964364     1.0759167
   6 C    6 C          50     1.4201685     1.5328116     1.3765036
Note: The following floating-point exceptions are signalling: IEEE_UNDERFLOW_FLAG
normal termination of xtb
   6 C    7 N          12     1.4064932     1.4496176     1.3799695
   6 C    8 O          14     1.3940296     1.4102467     1.3617853
   8 O   16 S           6     1.4550261     1.4577874     1.4521934


optimized geometry written to: xtbopt.mol


           -------------------------------------------------
          | TOTAL ENERGY             -260.584393112644 Eh   |
          | GRADIENT NORM               0.000528708819 Eh/α |
          | HOMO-LUMO GAP               1.128759067981 eV   |
           -------------------------------------------------
########################################################################
[WARNING] Runtime exception occurred
-3- restart_readRestart: Dimension missmatch in restart file.
-2- restart_readRestart: Multiplicity missmatch in restart file.
-1- restart_readRestart: Number of electron missmatch in restart file.
########################################################################

------------------------------------------------------------------------
 * finished run on 2024/11/25 at 11:32:30.610     
------------------------------------------------------------------------
 total:
 * wall-time:     0 d,  0 h,  1 min, 38.509 sec
 *  cpu-time:     0 d,  0 h,  1 min, 52.819 sec
 * ratio c/w:     1.145 speedup
 SCF:
 * wall-time:     0 d,  0 h,  0 min,  3.055 sec
 *  cpu-time:     0 d,  0 h,  0 min,  3.312 sec
 * ratio c/w:     1.084 speedup
 ANC optimizer:
 * wall-time:     0 d,  0 h,  1 min, 35.424 sec
 *  cpu-time:     0 d,  0 h,  1 min, 49.442 sec
 * ratio c/w:     1.147 speedup

Running optimization for loose_opt_dimer.mol
      -----------------------------------------------------------      
     |                   =====================                   |     
     |                           x T B                           |     
     |                   =====================                   |     
     |                         S. Grimme                         |     
     |          Mulliken Center for Theoretical Chemistry        |     
     |                    University of Bonn                     |     
      -----------------------------------------------------------      

   * xtb version 6.7.1 (43a0e4e5b5d943adc66b4aa6563d39c792f6153b) compiled by 'joseph@Linux' on 2024/10/21

   xtb is free software: you can redistribute it and/or modify it under
   the terms of the GNU Lesser General Public License as published by
   the Free Software Foundation, either version 3 of the License, or
   (at your option) any later version.
   
   xtb is distributed in the hope that it will be useful,
   but WITHOUT ANY WARRANTY; without even the implied warranty of
   MERCHANTABILITY or FITNESS FOR A PARTICULAR PURPOSE.  See the
   GNU Lesser General Public License for more details.
   
   Cite this work as:
   * C. Bannwarth, E. Caldeweyher, S. Ehlert, A. Hansen, P. Pracht,
     J. Seibert, S. Spicher, S. Grimme, WIREs Comput. Mol. Sci., 2020, 11,
     e01493. DOI: 10.1002/wcms.1493
   
   for GFN2-xTB:
   * C. Bannwarth, S. Ehlert and S. Grimme., J. Chem. Theory Comput., 2019,
     15, 1652-1671. DOI: 10.1021/acs.jctc.8b01176
   for GFN1-xTB:
   * S. Grimme, C. Bannwarth, P. Shushkov, J. Chem. Theory Comput., 2017,
     13, 1989-2009. DOI: 10.1021/acs.jctc.7b00118
   for GFN0-xTB:
   * P. Pracht, E. Caldeweyher, S. Ehlert, S. Grimme, ChemRxiv, 2019, preprint.
     DOI: 10.26434/chemrxiv.8326202.v1
   for GFN-FF:
   * S. Spicher and S. Grimme, Angew. Chem. Int. Ed., 2020, 59, 15665-15673.
     DOI: 10.1002/anie.202004239
   
   for ALPB and GBSA implicit solvation:
   * S. Ehlert, M. Stahn, S. Spicher, S. Grimme, J. Chem. Theory Comput.,
     2021, 17, 4250-4261. DOI: 10.1021/acs.jctc.1c00471
   
   for ddCOSMO and CPCM-X implicit solvation:
   * M. Stahn, S. Ehlert, S. Grimme, J. Phys. Chem. A,
     2023, XX, XXXX-XXXX. DOI: 10.1021/acs.jpca.3c04382
   
   for DFT-D4:
   * E. Caldeweyher, C. Bannwarth and S. Grimme, J. Chem. Phys., 2017,
     147, 034112. DOI: 10.1063/1.4993215
   * E. Caldeweyher, S. Ehlert, A. Hansen, H. Neugebauer, S. Spicher,
     C. Bannwarth and S. Grimme, J. Chem. Phys., 2019, 150, 154122.
     DOI: 10.1063/1.5090222
   * E. Caldeweyher, J.-M. Mewes, S. Ehlert and S. Grimme, Phys. Chem. Chem. Phys.
     2020, 22, 8499-8512. DOI: 10.1039/D0CP00502A
   
   for sTDA-xTB:
   * S. Grimme and C. Bannwarth, J. Chem. Phys., 2016, 145, 054103.
     DOI: 10.1063/1.4959605
   
   in the mass-spec context:
   * V. Asgeirsson, C. Bauer and S. Grimme, Chem. Sci., 2017, 8, 4879.
     DOI: 10.1039/c7sc00601b
   * J. Koopman and S. Grimme, ACS Omega 2019, 4, 12, 15120-15133.
     DOI: 10.1021/acsomega.9b02011
   
   for metadynamics refer to:
   * S. Grimme, J. Chem. Theory Comput., 2019, 155, 2847-2862
     DOI: 10.1021/acs.jctc.9b00143
   
   for SPH calculations refer to:
   * S. Spicher and S. Grimme, J. Chem. Theory Comput., 2021, 17, 1701-1714
     DOI: 10.1021/acs.jctc.0c01306
   
   for ONIOM refer to:
   * C. Plett, A. Katbashev, S. Ehlert, S. Grimme, M. Bursch,
     Phys. Chem. Chem. Phys., 2023, 25, 17860-17868. DOI: 10.1039/D3CP02178E
   
   for DIPRO refer to:
   * J. Kohn, N. Gildemeister, S. Grimme, D. Fazzi, A. Hansen,
     J. Chem. Phys., 2023, just accepted.
   
   for PTB refer to:
   * S. Grimme, M. Mueller, A. Hansen, J. Chem. Phys., 2023, 158, 124111.
     DOI: 10.1063/5.0137838
   
   with help from (in alphabetical order)
   P. Atkinson, C. Bannwarth, F. Bohle, G. Brandenburg, E. Caldeweyher
   M. Checinski, S. Dohm, S. Ehlert, S. Ehrlich, I. Gerasimov, C. Hölzer
   A. Katbashev, J. Kohn, J. Koopman, C. Lavigne, S. Lehtola, F. März, M. Müller,
   F. Musil, H. Neugebauer, J. Pisarek, C. Plett, P. Pracht, F. Pultar,
   J. Seibert, P. Shushkov, S. Spicher, M. Stahn, M. Steiner, T. Strunk,
   J. Stückrath, T. Rose, and J. Unsleber
   
 * started run on 2024/11/25 at 11:32:30.620     
   ID    Z sym.   atoms
    1    6 C      1-11, 13, 14, 16-23, 31, 34, 37, 44-49, 79-89, 91, 92,
                  94-101, 109, 112, 115, 122-127
    2    7 N      12, 15, 90, 93
    3    8 O      24, 25, 29, 30, 32, 33, 35, 36, 102, 103, 107, 108, 110,
                  111, 113, 114
    4   16 S      26-28, 104-106
    5    1 H      38-43, 50-78, 116-121, 128-156

           -------------------------------------------------
          |                Calculation Setup                |
           -------------------------------------------------

          program call               : xtb opt_dimer.mol --dipro 0.3 --gfn 2 --chrg 0 --uhf 2
          coordinate file            : opt_dimer.mol
          omp threads                :                     4


molecular fragmentation (1/2 indicates fragments):
111111111111111111111111111111111111111111111111111111111111111111111111
111111222222222222222222222222222222222222222222222222222222222222222222
222222222222
# atoms in fragment 1/2:    78    78
 fragment masses (1/2) :      647.80      647.80
CMA distance (Bohr)    :   9.888
constraining FC (au)   :  0.0500

           -------------------------------------------------
          |                 G F N 2 - x T B                 |
           -------------------------------------------------

        Reference                      10.1021/acs.jctc.8b01176
      * Hamiltonian:
        H0-scaling (s, p, d)           1.850000    2.230000    2.230000
        zeta-weighting                 0.500000
      * Dispersion:
        s8                             2.700000
        a1                             0.520000
        a2                             5.000000
        s9                             5.000000
      * Repulsion:
        kExp                           1.500000    1.000000
        rExp                           1.000000
      * Coulomb:
        alpha                          2.000000
        third order                    shell-resolved
        anisotropic                    true
        a3                             3.000000
        a5                             4.000000
        cn-shift                       1.200000
        cn-exp                         4.000000
        max-rad                        5.000000

q/qsh data taken from xtbrestart
CAMM data taken from xtbrestart
           -------------------------------------------------
          |                    D I P R O                    |
           -------------------------------------------------
Calculation for dimer 
--------------------- 
  
charge of dimer :   0.
unpaired e- of dimer :  2
repulsion energy          3.1222664710230E+00 Eh
dispersion energy         2.5176950675980E-02 Eh
number of electrons       4.6200000000000E+02 e
integral cutoff           1.8403572253217E+01 bohr

------------------------------------------------------------
  cycle        total energy    energy error   density error
------------------------------------------------------------
      1     -259.8598902502  -2.6300733E+02   1.9108530E-01
      2     -260.4907224240  -6.3083217E-01   8.9830088E-02
      3     -260.5090637504  -1.8341326E-02   3.7349004E-02
      4     -260.5606229809  -5.1559231E-02   1.9326403E-02
      5     -260.5796651079  -1.9042127E-02   7.2363153E-03
      6     -260.5799425121  -2.7740415E-04   4.7650074E-03
      7     -260.5840587373  -4.1162253E-03   1.7973574E-03
      8     -260.5842299290  -1.7119167E-04   1.0029326E-03
      9     -260.5843281944  -9.8265446E-05   4.6909536E-04
     10     -260.5843542949  -2.6100473E-05   1.4911660E-04
     11     -260.5843546735  -3.7853630E-07   8.5789552E-05
     12     -260.5843548962  -2.2272962E-07   3.8358469E-05
     13     -260.5843549482  -5.2030828E-08   2.0585007E-05
     14     -260.5843549924  -4.4186322E-08   9.1883590E-06
------------------------------------------------------------

electronic energy        -2.6373179841410E+02 Eh
total energy             -2.6058435499240E+02 Eh

 total:                                   3.172 sec
 - repulsion                              0.000 sec (  0%)
 - dispersion                             0.008 sec (  0%)
 - coulomb                                0.005 sec (  0%)
 - hamiltonian                            0.012 sec (  0%)
 - scc                                    3.146 sec ( 99%)

Found 2 fragments!
Fragment 1:  1-78
Fragment 2:  79-156

[Info] Fragment spin read from .UHFfrag
Calculation for fragment 1
 ------------------------------
   
charge of fragment :   0.
unpaired e- of fragment :  1
------------------------------------------------------------
  cycle        total energy    energy error   density error
------------------------------------------------------------
      1     -129.8753065861  -1.3143881E+02   1.9180384E-01
      2     -130.2096958558  -3.3438927E-01   8.9789283E-02
      3     -130.2235448989  -1.3849043E-02   3.6932208E-02
      4     -130.2446809767  -2.1136078E-02   1.9092634E-02
      5     -130.2535409182  -8.8599415E-03   6.5054586E-03
      6     -130.2529083519   6.3256623E-04   4.1805271E-03
      7     -130.2544612749  -1.5529229E-03   1.5890215E-03
      8     -130.2545161000  -5.4825102E-05   7.7783193E-04
      9     -130.2545250872  -8.9872822E-06   3.4989338E-04
     10     -130.2545355212  -1.0433949E-05   1.5310231E-04
     11     -130.2545357503  -2.2910075E-07   7.2354793E-05
     12     -130.2545358302  -7.9879442E-08   3.6846017E-05
     13     -130.2545358725  -4.2320352E-08   1.4555127E-05
------------------------------------------------------------

 total:                                   0.434 sec
Calculation for fragment 2
 ------------------------------
   
charge of fragment :   0.
unpaired e- of fragment :  1
------------------------------------------------------------
  cycle        total energy    energy error   density error
------------------------------------------------------------
      1     -129.8782807664  -1.3144169E+02   1.9064814E-01
      2     -130.2105627181  -3.3228195E-01   8.7617920E-02
      3     -130.2239823794  -1.3419661E-02   3.6299476E-02
      4     -130.2473619494  -2.3379570E-02   1.8594620E-02
      5     -130.2547653306  -7.4033812E-03   6.0636406E-03
      6     -130.2542943596   4.7097106E-04   3.8569784E-03
      7     -130.2555593979  -1.2650383E-03   1.5850513E-03
      8     -130.2556174109  -5.8012991E-05   7.5461405E-04
      9     -130.2556289799  -1.1569035E-05   3.2473388E-04
     10     -130.2556373319  -8.3519712E-06   1.4691849E-04
     11     -130.2556375754  -2.4349842E-07   7.3810426E-05
     12     -130.2556376955  -1.2012779E-07   3.4652041E-05
     13     -130.2556377252  -2.9692728E-08   1.4035802E-05
------------------------------------------------------------

 total:                                   0.431 sec
   
   ::::::::::::::::::::::::::::::::::::::::::::::
   ::     D I P R O      C O U P L I N G S     ::
   ::::::::::::::::::::::::::::::::::::::::::::::
   
energy threshhold for near-degenerate orbitals near HOMO and LUMO considered for DIPRO:  0.300 eV
no. of orbitals within energy window of frag 1         2
no. of orbitals within energy window of frag 2         2
   
  Fragment 1 SOMO   Fragment 2 SOMO 
--------------------------------------
E_mon(orb) frag1 frag2              -9.727    -9.911 eV
J(AB):                0.080 eV
S(AB):            -0.00381979 Eh
|J(AB,eff)|:            0.043 eV
   
  Fragment 1 SOMO   Fragment 2 LUMO 
--------------------------------------
E_mon(orb) frag1 frag2              -9.727    -8.236 eV
J(AB):                0.027 eV
S(AB):            -0.00119314 Eh
|J(AB,eff)|:            0.017 eV
   
  Fragment 1 LUMO   Fragment 2 SOMO 
--------------------------------------
E_mon(orb) frag1 frag2              -8.061    -9.911 eV
J(AB):               -0.040 eV
S(AB):             0.00189137 Eh
|J(AB,eff)|:            0.023 eV
   
  Fragment 1 LUMO   Fragment 2 LUMO 
--------------------------------------
E_mon(orb) frag1 frag2              -8.061    -8.236 eV
J(AB):               -0.005 eV
S(AB):             0.00007645 Eh
|J(AB,eff)|:            0.004 eV
   
..............................................................................
:  total |J(AB,eff)| for hole transport (occ. MOs) :               0.043 eV  :
:  total |J(AB,eff)| for charge transport (unocc. MOs) :           0.004 eV  :
:  total |J(AB,eff)| for charge transfer (CT) :                    0.028 eV  :
..............................................................................
  
 Please remember, DIPRO is not available for restart!
   
normal termination of dipro
----------------------------------------------------------
 * finished run on 2024/11/25 at 11:32:34.711     
----------------------------------------------------------
 dipro:
 * wall-time:     0 d,  0 h,  0 min,  4.081 sec
 *  cpu-time:     0 d,  0 h,  0 min,  6.198 sec
 * ratio c/w:     1.519 speedup
