Optimization of monomers started
Stacking dimer
Calculating transfer integral
Reorganization energy (electron): 0.44840412855345996 eV
Reorganization energy (hole): 0.2962585112984621 eV
Electron Transfer integral J: 0.009 eV
Hole Transfer integral J: 0.044 eV
=                   |     
     |                         S. Grimme                         |     
     |          Mulliken Center for Theoretical Chemistry        |     
     |                    University of Bonn                     |     
      -----------------------------------------------------------      

   * xtb version 6.7.1 (edcfbbe) compiled by 'runner@Mac-1732539442253.local' on 2024-11-25

   xtb is free software: you can redistribute it and/or modify it under
   the terms of the GNU Lesser General Public License as published by
   the Free Software Foundation, either version 3 of the License, or
   (at your option) any later version.
   
   xtb is distributed in the hope that it will be useful,
   but WITHOUT ANY WARRANTY; without even the implied warranty of
   MERCHANTABILITY or FITNESS FOR A PARTICULAR PURPOSE.  See the
   GNU Lesser General Public License for more details.
   
   Cite this work as:
   * C. Bannwarth, E. Caldeweyher, S. Ehlert, A. Hansen, P. Pracht,
     J. Seibert, S. Spicher, S. Grimme, WIREs Comput. Mol. Sci., 2020, 11,
     e01493. DOI: 10.1002/wcms.1493
   
   for GFN2-xTB:
   * C. Bannwarth, S. Ehlert and S. Grimme., J. Chem. Theory Comput., 2019,
     15, 1652-1671. DOI: 10.1021/acs.jctc.8b01176
   for GFN1-xTB:
   * S. Grimme, C. Bannwarth, P. Shushkov, J. Chem. Theory Comput., 2017,
     13, 1989-2009. DOI: 10.1021/acs.jctc.7b00118
   for GFN0-xTB:
   * P. Pracht, E. Caldeweyher, S. Ehlert, S. Grimme, ChemRxiv, 2019, preprint.
     DOI: 10.26434/chemrxiv.8326202.v1
   for GFN-FF:
   * S. Spicher and S. Grimme, Angew. Chem. Int. Ed., 2020, 59, 15665-15673.
     DOI: 10.1002/anie.202004239
   
   for ALPB and GBSA implicit solvation:
   * S. Ehlert, M. Stahn, S. Spicher, S. Grimme, J. Chem. Theory Comput.,
     2021, 17, 4250-4261. DOI: 10.1021/acs.jctc.1c00471
   
   for ddCOSMO and CPCM-X implicit solvation:
   * M. Stahn, S. Ehlert, S. Grimme, J. Phys. Chem. A,
     2023, XX, XXXX-XXXX. DOI: 10.1021/acs.jpca.3c04382
   
   for DFT-D4:
   * E. Caldeweyher, C. Bannwarth and S. Grimme, J. Chem. Phys., 2017,
     147, 034112. DOI: 10.1063/1.4993215
   * E. Caldeweyher, S. Ehlert, A. Hansen, H. Neugebauer, S. Spicher,
     C. Bannwarth and S. Grimme, J. Chem. Phys., 2019, 150, 154122.
     DOI: 10.1063/1.5090222
   * E. Caldeweyher, J.-M. Mewes, S. Ehlert and S. Grimme, Phys. Chem. Chem. Phys.
     2020, 22, 8499-8512. DOI: 10.1039/D0CP00502A
   
   for sTDA-xTB:
   * S. Grimme and C. Bannwarth, J. Chem. Phys., 2016, 145, 054103.
     DOI: 10.1063/1.4959605
   
   in the mass-spec context:
   * V. Asgeirsson, C. Bauer and S. Grimme, Chem. Sci., 2017, 8, 4879.
     DOI: 10.1039/c7sc00601b
   * J. Koopman and S. Grimme, ACS Omega 2019, 4, 12, 15120-15133.
     DOI: 10.1021/acsomega.9b02011
   
   for metadynamics refer to:
   * S. Grimme, J. Chem. Theory Comput., 2019, 155, 2847-2862
     DOI: 10.1021/acs.jctc.9b00143
   
   for SPH calculations refer to:
   * S. Spicher and S. Grimme, J. Chem. Theory Comput., 2021, 17, 1701-1714
     DOI: 10.1021/acs.jctc.0c01306
   
   for ONIOM refer to:
   * C. Plett, A. Katbashev, S. Ehlert, S. Grimme, M. Bursch,
     Phys. Chem. Chem. Phys., 2023, 25, 17860-17868. DOI: 10.1039/D3CP02178E
   
   for DIPRO refer to:
   * J. Kohn, N. Gildemeister, S. Grimme, D. Fazzi, A. Hansen,
     J. Chem. Phys., 2023, just accepted.
   
   for PTB refer to:
   * S. Grimme, M. Mueller, A. Hansen, J. Chem. Phys., 2023, 158, 124111.
     DOI: 10.1063/5.0137838
   
   with help from (in alphabetical order)
   P. Atkinson, C. Bannwarth, F. Bohle, G. Brandenburg, E. Caldeweyher
   M. Checinski, S. Dohm, S. Ehlert, S. Ehrlich, I. Gerasimov, C. Hölzer
   A. Katbashev, J. Kohn, J. Koopman, C. Lavigne, S. Lehtola, F. März, M. Müller,
   F. Musil, H. Neugebauer, J. Pisarek, C. Plett, P. Pracht, F. Pultar,
   J. Seibert, P. Shushkov, S. Spicher, M. Stahn, M. Steiner, T. Strunk,
   J. Stückrath, T. Rose, and J. Unsleber
   
 * started run on 2024/12/02 at 13:04:24.902     
   ID    Z sym.   atoms
    1    6 C      1-11, 13, 14, 16-23, 31, 34, 37, 44-49
    2    7 N      12, 15
    3    8 O      24, 25, 29, 30, 32, 33, 35, 36
    4   16 S      26-28
    5    1 H      38-43, 50-78

           -------------------------------------------------
          |                Calculation Setup                |
           -------------------------------------------------

          program call               : xtb Base4SO2Me.mol --opt --gfn 2 --chrg 0 --uhf 1 --vtight
          coordinate file            : Base4SO2Me.mol
          omp threads                :                     8

########################################################################
[WARNING] Please study the warnings concerning your input carefully
-1- prog_main_parseArguments: Unknown option '--vtight' provided
########################################################################

           -------------------------------------------------
          |                 G F N 2 - x T B                 |
           -------------------------------------------------

        Reference                      10.1021/acs.jctc.8b01176
      * Hamiltonian:
        H0-scaling (s, p, d)           1.850000    2.230000    2.230000
        zeta-weighting                 0.500000
      * Dispersion:
        s8                             2.700000
        a1                             0.520000
        a2                             5.000000
        s9                             5.000000
      * Repulsion:
        kExp                           1.500000    1.000000
        rExp                           1.000000
      * Coulomb:
        alpha                          2.000000
        third order                    shell-resolved
        anisotropic                    true
        a3                             3.000000
        a5                             4.000000
        cn-shift                       1.200000
        cn-exp                         4.000000
        max-rad                        5.000000


          ...................................................
          :                      SETUP                      :
          :.................................................:
          :  # basis functions                 225          :
          :  # atomic orbitals                 222          :
          :  # shells                          124          :
          :  # electrons                       231          :
          :  max. iterations                   250          :
          :  Hamiltonian                  GFN2-xTB          :
          :  restarted?                      false          :
          :  GBSA solvation                  false          :
          :  PC potential                    false          :
          :  electronic temp.          300.0000000     K    :
          :  accuracy                    1.0000000          :
          :  -> integral cutoff          0.2500000E+02      :
          :  -> integral neglect         0.1000000E-07      :
          :  -> SCF convergence          0.1000000E-05 Eh   :
          :  -> wf. convergence          0.1000000E-03 e    :
          :  Broyden damping             0.4000000          :
          :  net charge                          0          :
          :  unpaired electrons                  1          :
          ...................................................

 iter      E             dE          RMSdq      gap      omega  full diag
   1   -128.9706642 -0.128971E+03  0.581E+00    0.14       0.0  T
   2   -127.0125358  0.195813E+01  0.724E+00    0.19       1.0  T
   3   -129.4626684 -0.245013E+01  0.414E+00    0.23       1.0  T
   4   -128.5798288  0.882840E+00  0.455E+00    0.35       1.0  T
   5   -128.7244913 -0.144662E+00  0.412E+00    0.22       1.0  T
   6   -129.6653649 -0.940874E+00  0.164E+00    0.06       1.0  T
   7   -129.8741903 -0.208825E+00  0.917E-01    0.15       1.0  T
   8   -129.9056631 -0.314728E-01  0.546E-01    0.09       1.0  T
   9   -129.9054092  0.253970E-03  0.408E-01    0.08       1.0  T
  10   -129.8819969  0.234123E-01  0.695E-01    0.05       1.0  T
  11   -129.9101920 -0.281951E-01  0.128E-01    0.04       1.0  T
  12   -129.9089335  0.125846E-02  0.230E-01    0.10       1.0  T
  13   -129.9117017 -0.276821E-02  0.685E-02    0.06       1.0  T
  14   -129.9118609 -0.159196E-03  0.284E-02    0.05       1.0  T
  15   -129.9119054 -0.445076E-04  0.220E-02    0.06       1.0  T
  16   -129.9119212 -0.157473E-04  0.122E-02    0.06       1.0  T
  17   -129.9119198  0.143754E-05  0.119E-02    0.06       1.0  T
  18   -129.9119273 -0.752004E-05  0.328E-03    0.06       3.4  T
  19   -129.9119280 -0.678765E-06  0.120E-03    0.06       9.5  T
  20   -129.9119280 -0.237203E-07  0.869E-04    0.06      13.0  T
  21   -129.9119279  0.357182E-07  0.140E-03    0.06       8.1  T
  22   -129.9119280 -0.648939E-07  0.787E-04    0.06      14.4  T

   *** convergence criteria satisfied after 22 iterations ***

         #    Occupation            Energy/Eh            Energy/eV
      -------------------------------------------------------------
         1        2.0000           -0.8984712             -24.4486
       ...           ...                  ...                  ...
       110        2.0000           -0.3409016              -9.2764
       111        2.0000           -0.3332303              -9.0677
       112        2.0000           -0.3242409              -8.8230
       113        2.0000           -0.3066916              -8.3455
       114        2.0000           -0.2912587              -7.9256
       115        2.0000           -0.2899238              -7.8892
       116        0.7509           -0.2587351              -7.0405 (HOMO)
       117        0.2491           -0.2566381              -6.9835 (LUMO)
       118        0.0000           -0.2454845              -6.6800
       119                         -0.2381847              -6.4813
       120                         -0.2327295              -6.3329
       121                         -0.2245067              -6.1091
       ...                                ...                  ...
       222                          5.5135459             150.0312
      -------------------------------------------------------------
                  HL-Gap            0.0020969 Eh            0.0571 eV
             Fermi-level           -0.2659807 Eh           -7.2377 eV

 SCC (total)                   0 d,  0 h,  0 min,  0.555 sec
 SCC setup                      ...        0 min,  0.001 sec (  0.159%)
 Dispersion                     ...        0 min,  0.001 sec (  0.115%)
 classical contributions        ...        0 min,  0.000 sec (  0.048%)
 integral evaluation            ...        0 min,  0.004 sec (  0.635%)
 iterations                     ...        0 min,  0.529 sec ( 95.218%)
 molecular gradient             ...        0 min,  0.016 sec (  2.893%)
 printout                       ...        0 min,  0.005 sec (  0.930%)

         :::::::::::::::::::::::::::::::::::::::::::::::::::::
         ::                     SUMMARY                     ::
         :::::::::::::::::::::::::::::::::::::::::::::::::::::
         :: total energy            -127.818895187579 Eh    ::
         :: gradient norm              3.955089045115 Eh/a0 ::
         :: HOMO-LUMO gap              0.057060861346 eV    ::
         ::.................................................::
         :: SCC energy              -129.911092393292 Eh    ::
         :: -> isotropic ES            0.194037392766 Eh    ::
         :: -> anisotropic ES          0.035357462145 Eh    ::
         :: -> anisotropic XC          0.026537136839 Eh    ::
         :: -> dispersion             -0.097456614935 Eh    ::
         :: repulsion energy           2.092197205714 Eh    ::
         :: add. restraining           0.000000000000 Eh    ::
         :: total charge               0.000000000011 e     ::
         :::::::::::::::::::::::::::::::::::::::::::::::::::::

      ----------------------------------------------------------- 
     |                   =====================                   |
     |                        A N C O P T                        |
     |                   =====================                   |
     |               Approximate Normal Coordinate               |
     |                Rational Function Optimizer                |
      ----------------------------------------------------------- 
      ----------------------------------------------------------- 
     |                   =====================                   |
     |                        A N C O P T                        |
     |                   =====================                   |
     |               Approximate Normal Coordinate               |
     |                Rational Function Optimizer                |
      ----------------------------------------------------------- 

          ...................................................
          :                      SETUP                      :
          :.................................................:
          :   optimization level            normal          :
          :   max. optcycles                   234          :
          :   ANC micro-cycles                  20          :
          :   degrees of freedom               228          :
          :.................................................:
          :   RF solver                   davidson          :
          :   write xtbopt.log                true          :
          :   linear?                        false          :
          :   energy convergence         0.5000000E-05 Eh   :
          :   grad. convergence          0.1000000E-02 Eh/α :
          :   maxmium RF displ.          1.0000000          :
          :   Hlow (freq-cutoff)         0.1000000E-01      :
          :   Hmax (freq-cutoff)         5.0000000          :
          :   S6 in model hess.         20.0000000          :
          ...................................................

generating ANC from exact Hessian ...
Using Lindh-Hessian (1995)
 Shifting diagonal of input Hessian by    1.0055480382489233E-002
 Lowest  eigenvalues of input Hessian
    0.010000    0.010011    0.000000    0.000000    0.000000    0.000000
    0.000000    0.000000    0.010103    0.010128    0.010244    0.010312
    0.010380    0.010451    0.010671    0.010856    0.010947    0.010978
 Highest eigenvalues
    3.188380    3.315410    6.236110    6.293670    7.809258    7.991832


........................................................................
.............................. CYCLE    1 ..............................
........................................................................

 iter      E             dE          RMSdq      gap      omega  full diag
   1   -129.9119280 -0.129912E+03  0.609E-04    0.06       0.0  T
   2   -129.9119258  0.221805E-05  0.600E-03    0.06       1.9  T
   3   -129.9119280 -0.223801E-05  0.195E-04    0.06      58.0  T
   4   -129.9119280  0.159972E-08  0.243E-04    0.06      46.6  T
   5   -129.9119280 -0.290459E-08  0.131E-04    0.06      86.7  T
     SCC iter.                  ...        0 min,  0.160 sec
     gradient                   ...        0 min,  0.019 sec
 * total energy  :  -127.8188952 Eh     change       -0.3024587E-07 Eh
   gradient norm :     3.9550895 Eh/α   predicted     0.0000000E+00 (-100.00%)
   displ. norm   :     0.5992892 α      lambda       -0.2293522E+01
   maximum displ.:     0.3794599 α      in ANC's #225, #228, #212, ...

........................................................................
.............................. CYCLE    2 ..............................
........................................................................

 iter      E             dE          RMSdq      gap      omega  full diag
   1   -130.0399944 -0.130040E+03  0.208E+00    0.15       0.0  T
   2   -129.7093717  0.330623E+00  0.260E+00    0.52       1.0  T
   3   -130.0844444 -0.375073E+00  0.116E+00    0.18       1.0  T
   4   -130.0723376  0.121068E-01  0.120E+00    0.13       1.0  T
   5   -130.0912766 -0.189390E-01  0.980E-01    0.50       1.0  T
   6   -130.1468642 -0.555876E-01  0.554E-01    0.25       1.0  T
   7   -130.1497931 -0.292892E-02  0.360E-01    0.18       1.0  T
   8   -130.1591293 -0.933622E-02  0.181E-01    0.06       1.0  T
   9   -130.1610727 -0.194344E-02  0.656E-02    0.08       1.0  T
  10   -130.1608064  0.266318E-03  0.862E-02    0.10       1.0  T
  11   -130.1612488 -0.442373E-03  0.194E-02    0.08       1.0  T
  12   -130.1612236  0.252225E-04  0.263E-02    0.08       1.0  T
  13   -130.1612551 -0.315480E-04  0.103E-02    0.08       1.1  T
  14   -130.1612613 -0.612246E-05  0.498E-03    0.08       2.3  T
  15   -130.1612628 -0.159771E-05  0.131E-03    0.08       8.6  T
  16   -130.1612629 -0.477449E-07  0.620E-04    0.08      18.3  T
  17   -130.1612629 -0.168349E-07  0.332E-04    0.08      34.1  T
     SCC iter.                  ...        0 min,  0.418 sec
     gradient                   ...        0 min,  0.016 sec
 * total energy  :  -128.8900659 Eh     change       -0.1071171E+01 Eh
   gradient norm :     0.7766129 Eh/α   predicted    -0.1558617E+01 (  45.51%)
   displ. norm   :     0.6806039 α      lambda       -0.3909677E+00
   maximum displ.:     0.2300721 α      in ANC's #92, #93, #97, ...

........................................................................
.............................. CYCLE    3 ..............................
........................................................................

 iter      E             dE          RMSdq      gap      omega  full diag
   1   -130.3619807 -0.130362E+03  0.114E+00    0.18       0.0  T
   2   -130.2774595  0.845212E-01  0.126E+00    0.69       1.0  T
   3   -130.3005843 -0.231248E-01  0.111E+00    0.24       1.0  T
   4   -130.3957552 -0.951708E-01  0.565E-01    0.45       1.0  T
   5   -130.3943231  0.143206E-02  0.414E-01    0.40       1.0  T
   6   -130.4059722 -0.116491E-01  0.233E-01    0.35       1.0  T
   7   -130.4078909 -0.191864E-02  0.147E-01    0.31       1.0  T
   8   -130.4086601 -0.769210E-03  0.704E-02    0.27       1.0  T
   9   -130.4086018  0.582530E-04  0.476E-02    0.26       1.0  T
  10   -130.4087546 -0.152806E-03  0.125E-02    0.28       1.0  T
  11   -130.4087640 -0.937283E-05  0.920E-03    0.28       1.2  T
  12   -130.4087673 -0.327924E-05  0.477E-03    0.28       2.4  T
  13   -130.4087684 -0.113005E-05  0.143E-03    0.28       7.9  T
  14   -130.4087685 -0.123440E-06  0.582E-04    0.28      19.5  T
  15   -130.4087685  0.209695E-08  0.414E-04    0.28      27.4  T
     SCC iter.                  ...        0 min,  0.337 sec
     gradient                   ...        0 min,  0.016 sec
 * total energy  :  -129.2291147 Eh     change       -0.3390488E+00 Eh
   gradient norm :     0.5581929 Eh/α   predicted    -0.2860370E+00 ( -15.64%)
   displ. norm   :     0.8292779 α      lambda       -0.3897684E+00
   maximum displ.:     0.2577209 α      in ANC's #93, #156, #92, ...

........................................................................
.............................. CYCLE    4 ..............................
........................................................................

 iter      E             dE          RMSdq      gap      omega  full diag
   1   -130.6371630 -0.130637E+03  0.110E+00    0.70       0.0  T
   2   -130.6060097  0.311533E-01  0.108E+00    1.01       1.0  T
   3   -130.6764435 -0.704338E-01  0.598E-01    0.81       1.0  T
   4   -130.6889920 -0.125484E-01  0.330E-01    1.03       1.0  T
   5   -130.6918381 -0.284610E-02  0.158E-01    0.92       1.0  T
   6   -130.6933824 -0.154436E-02  0.597E-02    0.97       1.0  T
   7   -130.6933808  0.162080E-05  0.407E-02    0.95       1.0  T
   8   -130.6934248 -0.439882E-04  0.220E-02    0.96       1.0  T
   9   -130.6934515 -0.267398E-04  0.857E-03    0.96       1.3  T
  10   -130.6934540 -0.248895E-05  0.444E-03    0.96       2.5  T
  11   -130.6934549 -0.845140E-06  0.158E-03    0.96       7.2  T
  12   -130.6934549 -0.531664E-07  0.882E-04    0.96      12.8  T
  13   -130.6934550 -0.399637E-07  0.450E-04    0.96      25.1  T
     SCC iter.                  ...        0 min,  0.310 sec
     gradient                   ...        0 min,  0.019 sec
 * total energy  :  -129.5669841 Eh     change       -0.3378694E+00 Eh
   gradient norm :     0.4095603 Eh/α   predicted    -0.3289074E+00 (  -2.65%)
   displ. norm   :     0.8290048 α      lambda       -0.2881255E+00
   maximum displ.:     0.2865559 α      in ANC's #93, #92, #135, ...

........................................................................
.............................. CYCLE    5 ..............................
........................................................................

 iter      E             dE          RMSdq      gap      omega  full diag
   1   -130.9186500 -0.130919E+03  0.684E-01    1.11       0.0  T
   2   -130.9262444 -0.759446E-02  0.539E-01    1.23       1.0  T
   3   -130.9297344 -0.348991E-02  0.348E-01    1.17       1.0  T
   4   -130.9265612  0.317313E-02  0.256E-01    1.25       1.0  T
   5   -130.9331010 -0.653981E-02  0.593E-02    1.19       1.0  T
   6   -130.9332464 -0.145372E-03  0.339E-02    1.21       1.0  T
   7   -130.9332718 -0.254329E-04  0.163E-02    1.20       1.0  T
   8   -130.9332783 -0.648659E-05  0.806E-03    1.20       1.4  T
   9   -130.9332805 -0.216912E-05  0.469E-03    1.20       2.4  T
  10   -130.9332810 -0.488084E-06  0.176E-03    1.20       6.4  T
  11   -130.9332812 -0.174557E-06  0.817E-04    1.20      13.9  T
  12   -130.9332812 -0.282321E-07  0.358E-04    1.20      31.6  T
     SCC iter.                  ...        0 min,  0.338 sec
     gradient                   ...        0 min,  0.016 sec
 * total energy  :  -129.7918532 Eh     change       -0.2248692E+00 Eh
   gradient norm :     0.3103146 Eh/α   predicted    -0.2430698E+00 (   8.09%)
   displ. norm   :     0.7707118 α      lambda       -0.1656898E+00
   maximum displ.:     0.3500157 α      in ANC's #92, #93, #49, ...

........................................................................
.............................. CYCLE    6 ..............................
........................................................................

 iter      E             dE          RMSdq      gap      omega  full diag
   1   -131.1374576 -0.131137E+03  0.470E-01    1.24       0.0  T
   2   -131.1390792 -0.162159E-02  0.325E-01    1.30       1.0  T
   3   -131.1382594  0.819735E-03  0.198E-01    1.26       1.0  T
   4   -131.1393125 -0.105309E-02  0.986E-02    1.30       1.0  T
   5   -131.1401931 -0.880612E-03  0.320E-02    1.28       1.0  T
   6   -131.1402811 -0.879976E-04  0.144E-02    1.29       1.0  T
   7   -131.1402876 -0.643013E-05  0.595E-03    1.29       1.9  T
   8   -131.1402885 -0.924873E-06  0.284E-03    1.29       4.0  T
   9   -131.1402887 -0.214507E-06  0.171E-03    1.29       6.6  T
  10   -131.1402888 -0.103875E-06  0.659E-04    1.29      17.2  T
  11   -131.1402888 -0.552308E-08  0.282E-04    1.29      40.1  T
     SCC iter.                  ...        0 min,  0.283 sec
     gradient                   ...        0 min,  0.016 sec
 * total energy  :  -129.9277890 Eh     change       -0.1359358E+00 Eh
   gradient norm :     0.2419205 Eh/α   predicted    -0.1320545E+00 (  -2.86%)
   displ. norm   :     0.7650970 α      lambda       -0.1152643E+00
   maximum displ.:     0.2819171 α      in ANC's #92, #49, #93, ...

........................................................................
.............................. CYCLE    7 ..............................
........................................................................

 iter      E             dE          RMSdq      gap      omega  full diag
   1   -131.3167422 -0.131317E+03  0.382E-01    1.29       0.0  T
   2   -131.3182546 -0.151240E-02  0.286E-01    1.34       1.0  T
   3   -131.3192550 -0.100041E-02  0.157E-01    1.31       1.0  T
   4   -131.3188952  0.359807E-03  0.988E-02    1.33       1.0  T
   5   -131.3196941 -0.798821E-03  0.241E-02    1.31       1.0  T
   6   -131.3197430 -0.489192E-04  0.119E-02    1.32       1.0  T
   7   -131.3197499 -0.691700E-05  0.426E-03    1.32       2.7  T
   8   -131.3197505 -0.574264E-06  0.165E-03    1.32       6.9  T
   9   -131.3197505 -0.790905E-07  0.975E-04    1.32      11.6  T
  10   -131.3197506 -0.199223E-07  0.340E-04    1.32      33.3  T
     SCC iter.                  ...        0 min,  0.253 sec
     gradient                   ...        0 min,  0.016 sec
 * total energy  :  -130.0232262 Eh     change       -0.9543716E-01 Eh
   gradient norm :     0.1727121 Eh/α   predicted    -0.9136851E-01 (  -4.26%)
   displ. norm   :     0.7665020 α      lambda       -0.8024363E-01
   maximum displ.:     0.2807601 α      in ANC's #49, #44, #39, ...

........................................................................
.............................. CYCLE    8 ..............................
........................................................................

 iter      E             dE          RMSdq      gap      omega  full diag
   1   -131.4612857 -0.131461E+03  0.325E-01    1.30       0.0  T
   2   -131.4625266 -0.124093E-02  0.239E-01    1.34       1.0  T
   3   -131.4632430 -0.716348E-03  0.128E-01    1.31       1.0  T
   4   -131.4629772  0.265746E-03  0.831E-02    1.33       1.0  T
   5   -131.4634940 -0.516743E-03  0.186E-02    1.32       1.0  T
   6   -131.4635223 -0.283605E-04  0.933E-03    1.32       1.2  T
   7   -131.4635266 -0.428102E-05  0.340E-03    1.32       3.3  T
   8   -131.4635270 -0.365234E-06  0.143E-03    1.32       7.9  T
   9   -131.4635270 -0.462734E-07  0.890E-04    1.32      12.7  T
  10   -131.4635270 -0.950808E-08  0.325E-04    1.32      34.8  T
     SCC iter.                  ...        0 min,  0.224 sec
     gradient                   ...        0 min,  0.016 sec
 * total energy  :  -130.0889637 Eh     change       -0.6573753E-01 Eh
   gradient norm :     0.1110775 Eh/α   predicted    -0.6369442E-01 (  -3.11%)
   displ. norm   :     0.7768672 α      lambda       -0.5407279E-01
   maximum displ.:     0.2755988 α      in ANC's #49, #22, #39, ...

........................................................................
.............................. CYCLE    9 ..............................
........................................................................

 iter      E             dE          RMSdq      gap      omega  full diag
   1   -131.5624014 -0.131562E+03  0.274E-01    1.31       0.0  T
   2   -131.5628684 -0.466987E-03  0.168E-01    1.34       1.0  T
   3   -131.5627175  0.150885E-03  0.941E-02    1.32       1.0  T
   4   -131.5629831 -0.265592E-03  0.466E-02    1.34       1.0  T
   5   -131.5631286 -0.145482E-03  0.127E-02    1.33       1.0  T
   6   -131.5631380 -0.940759E-05  0.669E-03    1.33       1.7  T
   7   -131.5631402 -0.214135E-05  0.256E-03    1.33       4.4  T
   8   -131.5631403 -0.172336E-06  0.140E-03    1.33       8.1  T
   9   -131.5631403 -0.230632E-07  0.860E-04    1.33      13.2  T
  10   -131.5631404 -0.200160E-07  0.247E-04    1.33      45.8  T
     SCC iter.                  ...        0 min,  0.246 sec
     gradient                   ...        0 min,  0.015 sec
 * total energy  :  -130.1333489 Eh     change       -0.4438519E-01 Eh
   gradient norm :     0.0738207 Eh/α   predicted    -0.4335350E-01 (  -2.32%)
   displ. norm   :     0.7858758 α      lambda       -0.3866004E-01
   maximum displ.:     0.3008327 α      in ANC's #22, #49, #39, ...

........................................................................
.............................. CYCLE   10 ..............................
........................................................................

 iter      E             dE          RMSdq      gap      omega  full diag
   1   -131.6324352 -0.131632E+03  0.255E-01    1.33       0.0  T
   2   -131.6326698 -0.234675E-03  0.145E-01    1.35       1.0  T
   3   -131.6325355  0.134304E-03  0.678E-02    1.34       1.0  T
   4   -131.6327079 -0.172402E-03  0.264E-02    1.35       1.0  T
   5   -131.6327376 -0.296707E-04  0.104E-02    1.35       1.1  T
   6   -131.6327413 -0.373146E-05  0.592E-03    1.35       1.9  T
   7   -131.6327435 -0.213221E-05  0.200E-03    1.35       5.7  T
   8   -131.6327435 -0.440474E-07  0.127E-03    1.35       8.9  T
   9   -131.6327435 -0.204915E-07  0.762E-04    1.35      14.9  T
  10   -131.6327435 -0.253168E-07  0.193E-04    1.35      58.8  T
     SCC iter.                  ...        0 min,  0.223 sec
     gradient                   ...        0 min,  0.016 sec
 * total energy  :  -130.1636315 Eh     change       -0.3028262E-01 Eh
   gradient norm :     0.0575509 Eh/α   predicted    -0.3126830E-01 (   3.25%)
   displ. norm   :     0.7997322 α      lambda       -0.3060436E-01
   maximum displ.:     0.3487353 α      in ANC's #22, #39, #21, ...

........................................................................
.............................. CYCLE   11 ..............................
........................................................................

 iter      E             dE          RMSdq      gap      omega  full diag
   1   -131.6815015 -0.131682E+03  0.269E-01    1.37       0.0  T
   2   -131.6818258 -0.324328E-03  0.149E-01    1.39       1.0  T
   3   -131.6818142  0.116618E-04  0.674E-02    1.38       1.0  T
   4   -131.6818508 -0.366405E-04  0.268E-02    1.39       1.0  T
   5   -131.6818774 -0.265755E-04  0.942E-03    1.39       1.2  T
   6   -131.6818768  0.542976E-06  0.492E-03    1.38       2.3  T
   7   -131.6818793 -0.245050E-05  0.179E-03    1.39       6.3  T
   8   -131.6818793 -0.468252E-07  0.106E-03    1.39      10.7  T
   9   -131.6818793 -0.242595E-07  0.574E-04    1.39      19.7  T
  10   -131.6818794 -0.137532E-07  0.194E-04    1.39      58.5  T
     SCC iter.                  ...        0 min,  0.201 sec
     gradient                   ...        0 min,  0.017 sec
 * total energy  :  -130.1852915 Eh     change       -0.2165997E-01 Eh
   gradient norm :     0.0542383 Eh/α   predicted    -0.2508904E-01 (  15.83%)
   displ. norm   :     0.7297670 α      lambda       -0.2029078E-01
   maximum displ.:     0.3788291 α      in ANC's #22, #21, #39, ...

........................................................................
.............................. CYCLE   12 ..............................
........................................................................

 iter      E             dE          RMSdq      gap      omega  full diag
   1   -131.7165067 -0.131717E+03  0.211E-01    1.38       0.0  T
   2   -131.7166907 -0.183970E-03  0.120E-01    1.39       1.0  T
   3   -131.7166727  0.180245E-04  0.520E-02    1.39       1.0  T
   4   -131.7167100 -0.373892E-04  0.222E-02    1.39       1.0  T
   5   -131.7167274 -0.173944E-04  0.845E-03    1.39       1.3  T
   6   -131.7167275 -0.183030E-07  0.503E-03    1.39       2.2  T
   7   -131.7167300 -0.249494E-05  0.142E-03    1.39       8.0  T
   8   -131.7167300 -0.322860E-07  0.874E-04    1.39      13.0  T
   9   -131.7167300 -0.219127E-07  0.422E-04    1.39      26.9  T
     SCC iter.                  ...        0 min,  0.246 sec
     gradient                   ...        0 min,  0.015 sec
 * total energy  :  -130.2010246 Eh     change       -0.1573306E-01 Eh
   gradient norm :     0.0495886 Eh/α   predicted    -0.1554841E-01 (  -1.17%)
   displ. norm   :     0.7323355 α      lambda       -0.1501948E-01
   maximum displ.:     0.3769008 α      in ANC's #22, #21, #20, ...

........................................................................
.............................. CYCLE   13 ..............................
........................................................................

 iter      E             dE          RMSdq      gap      omega  full diag
   1   -131.7425707 -0.131743E+03  0.211E-01    1.35       0.0  T
   2   -131.7427504 -0.179728E-03  0.118E-01    1.37       1.0  T
   3   -131.7427225  0.279273E-04  0.513E-02    1.36       1.0  T
   4   -131.7427680 -0.455532E-04  0.221E-02    1.37       1.0  T
   5   -131.7427893 -0.212326E-04  0.830E-03    1.36       1.4  T
   6   -131.7427896 -0.347511E-06  0.409E-03    1.37       2.8  T
   7   -131.7427909 -0.124133E-05  0.138E-03    1.36       8.2  T
   8   -131.7427909 -0.337441E-07  0.772E-04    1.37      14.7  T
   9   -131.7427909 -0.860314E-08  0.483E-04    1.36      23.4  T
     SCC iter.                  ...        0 min,  0.189 sec
     gradient                   ...        0 min,  0.016 sec
 * total energy  :  -130.2110606 Eh     change       -0.1003605E-01 Eh
   gradient norm :     0.0468790 Eh/α   predicted    -0.1153734E-01 (  14.96%)
   displ. norm   :     0.6527186 α      lambda       -0.1059434E-01
   maximum displ.:     0.3259898 α      in ANC's #22, #21, #5, ...

........................................................................
.............................. CYCLE   14 ..............................
........................................................................

 iter      E             dE          RMSdq      gap      omega  full diag
   1   -131.7582723 -0.131758E+03  0.191E-01    1.36       0.0  T
   2   -131.7584750 -0.202676E-03  0.107E-01    1.36       1.0  T
   3   -131.7584747  0.248482E-06  0.507E-02    1.36       1.0  T
   4   -131.7584684  0.633617E-05  0.234E-02    1.36       1.0  T
   5   -131.7585045 -0.361374E-04  0.769E-03    1.36       1.5  T
   6   -131.7585059 -0.137811E-05  0.434E-03    1.36       2.6  T
   7   -131.7585076 -0.166097E-05  0.103E-03    1.36      11.0  T
   8   -131.7585076 -0.548221E-08  0.704E-04    1.36      16.1  T
   9   -131.7585076 -0.186848E-07  0.330E-04    1.36      34.3  T
     SCC iter.                  ...        0 min,  0.203 sec
     gradient                   ...        0 min,  0.016 sec
 * total energy  :  -130.2174907 Eh     change       -0.6430082E-02 Eh
   gradient norm :     0.0434483 Eh/α   predicted    -0.7553989E-02 (  17.48%)
   displ. norm   :     0.5462906 α      lambda       -0.5495062E-02
   maximum displ.:     0.2051526 α      in ANC's #22, #5, #9, ...

........................................................................
.............................. CYCLE   15 ..............................
........................................................................

 iter      E             dE          RMSdq      gap      omega  full diag
   1   -131.7690181 -0.131769E+03  0.165E-01    1.35       0.0  T
   2   -131.7691957 -0.177607E-03  0.101E-01    1.34       1.0  T
   3   -131.7691976 -0.181563E-05  0.510E-02    1.35       1.0  T
   4   -131.7691858  0.117170E-04  0.226E-02    1.34       1.0  T
   5   -131.7692275 -0.416838E-04  0.567E-03    1.35       2.0  T
   6   -131.7692272  0.320974E-06  0.335E-03    1.35       3.4  T
   7   -131.7692281 -0.899545E-06  0.126E-03    1.35       9.0  T
   8   -131.7692281 -0.323056E-07  0.796E-04    1.35      14.2  T
   9   -131.7692282 -0.195488E-07  0.359E-04    1.35      31.5  T
     SCC iter.                  ...        0 min,  0.189 sec
     gradient                   ...        0 min,  0.020 sec
 * total energy  :  -130.2197590 Eh     change       -0.2268338E-02 Eh
   gradient norm :     0.0441307 Eh/α   predicted    -0.3567488E-02 (  57.27%)
   displ. norm   :     0.4355568 α      lambda       -0.4563440E-02
   maximum displ.:     0.1829427 α      in ANC's #5, #9, #15, ...

........................................................................
.............................. CYCLE   16 ..............................
........................................................................

 iter      E             dE          RMSdq      gap      omega  full diag
   1   -131.7762907 -0.131776E+03  0.121E-01    1.34       0.0  T
   2   -131.7763427 -0.520114E-04  0.707E-02    1.34       1.0  T
   3   -131.7763227  0.200762E-04  0.348E-02    1.33       1.0  T
   4   -131.7763406 -0.179101E-04  0.153E-02    1.34       1.0  T
   5   -131.7763626 -0.220105E-04  0.349E-03    1.34       3.2  T
   6   -131.7763627 -0.125278E-06  0.220E-03    1.34       5.1  T
   7   -131.7763631 -0.349371E-06  0.877E-04    1.34      12.9  T
   8   -131.7763631 -0.168675E-07  0.502E-04    1.34      22.6  T
     SCC iter.                  ...        0 min,  0.167 sec
     gradient                   ...        0 min,  0.017 sec
 * total energy  :  -130.2225494 Eh     change       -0.2790399E-02 Eh
   gradient norm :     0.0392425 Eh/α   predicted    -0.2714586E-02 (  -2.72%)
   displ. norm   :     0.4553290 α      lambda       -0.3218310E-02
   maximum displ.:     0.2444441 α      in ANC's #5, #15, #3, ...

........................................................................
.............................. CYCLE   17 ..............................
........................................................................

 iter      E             dE          RMSdq      gap      omega  full diag
   1   -131.7774079 -0.131777E+03  0.129E-01    1.34       0.0  T
   2   -131.7775113 -0.103407E-03  0.727E-02    1.34       1.0  T
   3   -131.7775139 -0.254513E-05  0.379E-02    1.34       1.0  T
   4   -131.7775062  0.773131E-05  0.123E-02    1.34       1.0  T
   5   -131.7775194 -0.132351E-04  0.297E-03    1.34       3.8  T
   6   -131.7775194  0.430180E-08  0.150E-03    1.34       7.5  T
   7   -131.7775195 -0.134841E-06  0.682E-04    1.34      16.6  T
   8   -131.7775195 -0.739311E-08  0.374E-04    1.34      30.3  T
     SCC iter.                  ...        0 min,  0.175 sec
     gradient                   ...        0 min,  0.016 sec
 * total energy  :  -130.2242448 Eh     change       -0.1695333E-02 Eh
   gradient norm :     0.0446062 Eh/α   predicted    -0.1942776E-02 (  14.60%)
   displ. norm   :     0.5258292 α      lambda       -0.3958224E-02
   maximum displ.:     0.2432304 α      in ANC's #5, #3, #15, ...

........................................................................
.............................. CYCLE   18 ..............................
........................................................................

 iter      E             dE          RMSdq      gap      omega  full diag
   1   -131.7831635 -0.131783E+03  0.126E-01    1.36       0.0  T
   2   -131.7832891 -0.125645E-03  0.743E-02    1.36       1.0  T
   3   -131.7833006 -0.115081E-04  0.403E-02    1.35       1.0  T
   4   -131.7832903  0.103334E-04  0.184E-02    1.36       1.0  T
   5   -131.7833124 -0.221290E-04  0.406E-03    1.35       2.8  T
   6   -131.7833124 -0.476325E-08  0.214E-03    1.35       5.3  T
   7   -131.7833126 -0.175932E-06  0.965E-04    1.35      11.7  T
   8   -131.7833126 -0.768583E-08  0.537E-04    1.35      21.1  T
     SCC iter.                  ...        0 min,  0.163 sec
     gradient                   ...        0 min,  0.018 sec
 * total energy  :  -130.2271172 Eh     change       -0.2872458E-02 Eh
   gradient norm :     0.0402814 Eh/α   predicted    -0.2526331E-02 ( -12.05%)
   displ. norm   :     0.6117066 α      lambda       -0.4801425E-02
   maximum displ.:     0.2737623 α      in ANC's #5, #15, #12, ...

........................................................................
.............................. CYCLE   19 ..............................
........................................................................

 iter      E             dE          RMSdq      gap      omega  full diag
   1   -131.7846868 -0.131785E+03  0.149E-01    1.36       0.0  T
   2   -131.7847623 -0.755224E-04  0.886E-02    1.36       1.0  T
   3   -131.7847567  0.559411E-05  0.340E-02    1.36       1.0  T
   4   -131.7847639 -0.717747E-05  0.112E-02    1.36       1.0  T
   5   -131.7847719 -0.799878E-05  0.501E-03    1.36       2.3  T
   6   -131.7847724 -0.443691E-06  0.239E-03    1.36       4.7  T
   7   -131.7847728 -0.465799E-06  0.107E-03    1.36      10.6  T
   8   -131.7847728  0.200257E-08  0.637E-04    1.36      17.8  T
   9   -131.7847728 -0.220016E-07  0.217E-04    1.36      52.3  T
     SCC iter.                  ...        0 min,  0.190 sec
     gradient                   ...        0 min,  0.015 sec
 * total energy  :  -130.2300621 Eh     change       -0.2944873E-02 Eh
   gradient norm :     0.0338631 Eh/α   predicted    -0.3299023E-02 (  12.03%)
   displ. norm   :     0.5897867 α      lambda       -0.4314679E-02
   maximum displ.:     0.2829271 α      in ANC's #5, #15, #3, ...

........................................................................
.............................. CYCLE   20 ..............................
........................................................................

 iter      E             dE          RMSdq      gap      omega  full diag
   1   -131.7830848 -0.131783E+03  0.141E-01    1.36       0.0  T
   2   -131.7831673 -0.824803E-04  0.782E-02    1.36       1.0  T
   3   -131.7831628  0.445778E-05  0.366E-02    1.35       1.0  T
   4   -131.7831628 -0.343106E-07  0.151E-02    1.36       1.0  T
   5   -131.7831787 -0.158121E-04  0.378E-03    1.36       3.0  T
   6   -131.7831787 -0.134781E-07  0.182E-03    1.36       6.2  T
   7   -131.7831789 -0.197991E-06  0.888E-04    1.36      12.8  T
   8   -131.7831789 -0.101690E-08  0.514E-04    1.36      22.0  T
     SCC iter.                  ...        0 min,  0.165 sec
     gradient                   ...        0 min,  0.020 sec
 * total energy  :  -130.2328810 Eh     change       -0.2818895E-02 Eh
   gradient norm :     0.0343362 Eh/α   predicted    -0.2907768E-02 (   3.15%)
   displ. norm   :     0.5975478 α      lambda       -0.4194532E-02
   maximum displ.:     0.2947719 α      in ANC's #5, #15, #9, ...
 * RMSD in coord.:     0.9801968 α      energy gain  -0.2413986E+01 Eh

generating ANC from exact Hessian ...
Using Lindh-Hessian (1995)
 Shifting diagonal of input Hessian by    9.8598318693727139E-003
 Lowest  eigenvalues of input Hessian
    0.000000    0.000000    0.000000    0.000000    0.000000    0.000000
    0.010000    0.010007    0.010040    0.010216    0.010279    0.010419
    0.010514    0.010647    0.010929    0.011046    0.011101    0.011429
 Highest eigenvalues
    2.093754    2.170056    2.180422    2.630278    2.670682    2.687162


........................................................................
.............................. CYCLE   21 ..............................
........................................................................

 iter      E             dE          RMSdq      gap      omega  full diag
   1   -131.7889966 -0.131789E+03  0.134E-01    1.35       0.0  T
   2   -131.7890479 -0.512543E-04  0.788E-02    1.35       1.0  T
   3   -131.7890219  0.259810E-04  0.307E-02    1.36       1.0  T
   4   -131.7890490 -0.270406E-04  0.136E-02    1.35       1.0  T
   5   -131.7890615 -0.125473E-04  0.481E-03    1.35       2.4  T
   6   -131.7890617 -0.201003E-06  0.275E-03    1.35       4.1  T
   7   -131.7890622 -0.542855E-06  0.980E-04    1.35      11.5  T
   8   -131.7890623 -0.980521E-08  0.633E-04    1.35      17.9  T
     SCC iter.                  ...        0 min,  0.333 sec
     gradient                   ...        0 min,  0.021 sec
 * total energy  :  -130.2355196 Eh     change       -0.2638640E-02 Eh
   gradient norm :     0.0305520 Eh/α   predicted     0.0000000E+00 (-100.00%)
   displ. norm   :     0.2906307 α      lambda       -0.3620256E-02
   maximum displ.:     0.1021899 α      in ANC's #5, #11, #9, ...

........................................................................
.............................. CYCLE   22 ..............................
........................................................................

 iter      E             dE          RMSdq      gap      omega  full diag
   1   -131.7910761 -0.131791E+03  0.992E-02    1.35       0.0  T
   2   -131.7910932 -0.171426E-04  0.509E-02    1.35       1.0  T
   3   -131.7910830  0.102444E-04  0.200E-02    1.35       1.0  T
   4   -131.7910923 -0.938370E-05  0.105E-02    1.35       1.1  T
   5   -131.7910980 -0.569572E-05  0.410E-03    1.35       2.8  T
   6   -131.7910990 -0.969571E-06  0.172E-03    1.35       6.6  T
   7   -131.7910992 -0.187139E-06  0.753E-04    1.35      15.0  T
   8   -131.7910992  0.118553E-08  0.450E-04    1.35      25.2  T
     SCC iter.                  ...        0 min,  0.274 sec
     gradient                   ...        0 min,  0.017 sec
 * total energy  :  -130.2383065 Eh     change       -0.2786884E-02 Eh
   gradient norm :     0.0155050 Eh/α   predicted    -0.1963472E-02 ( -29.55%)
   displ. norm   :     0.5061687 α      lambda       -0.3249532E-02
   maximum displ.:     0.1939027 α      in ANC's #5, #11, #27, ...

........................................................................
.............................. CYCLE   23 ..............................
........................................................................

 iter      E             dE          RMSdq      gap      omega  full diag
   1   -131.7916156 -0.131792E+03  0.139E-01    1.34       0.0  T
   2   -131.7916473 -0.317691E-04  0.670E-02    1.34       1.0  T
   3   -131.7916230  0.242826E-04  0.272E-02    1.35       1.0  T
   4   -131.7916449 -0.218698E-04  0.147E-02    1.34       1.0  T
   5   -131.7916585 -0.135909E-04  0.517E-03    1.34       2.2  T
   6   -131.7916598 -0.128027E-05  0.208E-03    1.34       5.4  T
   7   -131.7916600 -0.256665E-06  0.901E-04    1.34      12.6  T
   8   -131.7916600  0.246507E-08  0.532E-04    1.34      21.3  T
     SCC iter.                  ...        0 min,  0.174 sec
     gradient                   ...        0 min,  0.016 sec
 * total energy  :  -130.2407224 Eh     change       -0.2415919E-02 Eh
   gradient norm :     0.0107279 Eh/α   predicted    -0.2041641E-02 ( -15.49%)
   displ. norm   :     0.5565946 α      lambda       -0.2144370E-02
   maximum displ.:     0.2265729 α      in ANC's #5, #11, #27, ...

........................................................................
.............................. CYCLE   24 ..............................
........................................................................

 iter      E             dE          RMSdq      gap      omega  full diag
   1   -131.7916847 -0.131792E+03  0.137E-01    1.34       0.0  T
   2   -131.7917133 -0.286247E-04  0.656E-02    1.33       1.0  T
   3   -131.7916912  0.220977E-04  0.251E-02    1.34       1.0  T
   4   -131.7917095 -0.183199E-04  0.144E-02    1.33       1.0  T
   5   -131.7917232 -0.137011E-04  0.445E-03    1.34       2.5  T
   6   -131.7917240 -0.737425E-06  0.198E-03    1.34       5.7  T
   7   -131.7917242 -0.247794E-06  0.925E-04    1.34      12.2  T
   8   -131.7917242 -0.250864E-08  0.558E-04    1.34      20.3  T
     SCC iter.                  ...        0 min,  0.199 sec
     gradient                   ...        0 min,  0.019 sec
 * total energy  :  -130.2424377 Eh     change       -0.1715307E-02 Eh
   gradient norm :     0.0153538 Eh/α   predicted    -0.1404345E-02 ( -18.13%)
   displ. norm   :     0.6085305 α      lambda       -0.1912733E-02
   maximum displ.:     0.2660322 α      in ANC's #5, #11, #9, ...

........................................................................
.............................. CYCLE   25 ..............................
........................................................................

 iter      E             dE          RMSdq      gap      omega  full diag
   1   -131.7932941 -0.131793E+03  0.136E-01    1.34       0.0  T
   2   -131.7933206 -0.265242E-04  0.659E-02    1.33       1.0  T
   3   -131.7933061  0.145369E-04  0.225E-02    1.34       1.0  T
   4   -131.7933172 -0.111131E-04  0.136E-02    1.33       1.0  T
   5   -131.7933284 -0.111795E-04  0.407E-03    1.34       2.8  T
   6   -131.7933291 -0.653928E-06  0.196E-03    1.34       5.8  T
   7   -131.7933293 -0.235510E-06  0.985E-04    1.34      11.5  T
   8   -131.7933293 -0.586195E-08  0.548E-04    1.34      20.7  T
     SCC iter.                  ...        0 min,  0.227 sec
     gradient                   ...        0 min,  0.015 sec
 * total energy  :  -130.2439878 Eh     change       -0.1550074E-02 Eh
   gradient norm :     0.0151206 Eh/α   predicted    -0.1310519E-02 ( -15.45%)
   displ. norm   :     0.6065359 α      lambda       -0.1636094E-02
   maximum displ.:     0.2887714 α      in ANC's #5, #9, #11, ...

........................................................................
.............................. CYCLE   26 ..............................
........................................................................

 iter      E             dE          RMSdq      gap      omega  full diag
   1   -131.7971590 -0.131797E+03  0.120E-01    1.34       0.0  T
   2   -131.7971804 -0.214195E-04  0.590E-02    1.34       1.0  T
   3   -131.7971755  0.489602E-05  0.185E-02    1.34       1.0  T
   4   -131.7971798 -0.433941E-05  0.107E-02    1.34       1.1  T
   5   -131.7971851 -0.526457E-05  0.376E-03    1.34       3.0  T
   6   -131.7971856 -0.544473E-06  0.177E-03    1.34       6.4  T
   7   -131.7971858 -0.172703E-06  0.972E-04    1.34      11.7  T
   8   -131.7971858 -0.406339E-08  0.493E-04    1.34      23.0  T
     SCC iter.                  ...        0 min,  0.223 sec
     gradient                   ...        0 min,  0.015 sec
 * total energy  :  -130.2452942 Eh     change       -0.1306342E-02 Eh
   gradient norm :     0.0100988 Eh/α   predicted    -0.1119004E-02 ( -14.34%)
   displ. norm   :     0.6084601 α      lambda       -0.1236430E-02
   maximum displ.:     0.3059022 α      in ANC's #5, #9, #7, ...

........................................................................
.............................. CYCLE   27 ..............................
........................................................................

 iter      E             dE          RMSdq      gap      omega  full diag
   1   -131.8005423 -0.131801E+03  0.106E-01    1.34       0.0  T
   2   -131.8005590 -0.167776E-04  0.529E-02    1.34       1.0  T
   3   -131.8005573  0.172135E-05  0.159E-02    1.34       1.0  T
   4   -131.8005595 -0.215882E-05  0.874E-03    1.34       1.3  T
   5   -131.8005622 -0.276538E-05  0.348E-03    1.34       3.3  T
   6   -131.8005627 -0.464114E-06  0.146E-03    1.34       7.8  T
   7   -131.8005628 -0.794253E-07  0.890E-04    1.34      12.7  T
   8   -131.8005628  0.207436E-08  0.454E-04    1.34      25.0  T
     SCC iter.                  ...        0 min,  0.216 sec
     gradient                   ...        0 min,  0.016 sec
 * total energy  :  -130.2463087 Eh     change       -0.1014588E-02 Eh
   gradient norm :     0.0085902 Eh/α   predicted    -0.8471185E-03 ( -16.51%)
   displ. norm   :     0.6195250 α      lambda       -0.1073007E-02
   maximum displ.:     0.3211236 α      in ANC's #5, #9, #7, ...

........................................................................
.............................. CYCLE   28 ..............................
........................................................................

 iter      E             dE          RMSdq      gap      omega  full diag
   1   -131.8034035 -0.131803E+03  0.103E-01    1.34       0.0  T
   2   -131.8034190 -0.155364E-04  0.510E-02    1.34       1.0  T
   3   -131.8034175  0.151055E-05  0.151E-02    1.34       1.0  T
   4   -131.8034189 -0.138164E-05  0.833E-03    1.34       1.4  T
   5   -131.8034217 -0.287753E-05  0.347E-03    1.34       3.3  T
   6   -131.8034223 -0.602317E-06  0.129E-03    1.34       8.8  T
   7   -131.8034224 -0.529810E-07  0.801E-04    1.34      14.1  T
   8   -131.8034224 -0.372640E-08  0.289E-04    1.34      39.1  T
     SCC iter.                  ...        0 min,  0.181 sec
     gradient                   ...        0 min,  0.015 sec
 * total energy  :  -130.2472213 Eh     change       -0.9125763E-03 Eh
   gradient norm :     0.0095602 Eh/α   predicted    -0.7424652E-03 ( -18.64%)
   displ. norm   :     0.6524839 α      lambda       -0.1061044E-02
   maximum displ.:     0.3417070 α      in ANC's #5, #7, #9, ...

........................................................................
.............................. CYCLE   29 ..............................
........................................................................

 iter      E             dE          RMSdq      gap      omega  full diag
   1   -131.8053093 -0.131805E+03  0.111E-01    1.34       0.0  T
   2   -131.8053262 -0.168346E-04  0.542E-02    1.34       1.0  T
   3   -131.8053218  0.436012E-05  0.166E-02    1.34       1.0  T
   4   -131.8053250 -0.319601E-05  0.969E-03    1.34       1.2  T
   5   -131.8053302 -0.524183E-05  0.356E-03    1.34       3.2  T
   6   -131.8053307 -0.497721E-06  0.140E-03    1.34       8.1  T
   7   -131.8053308 -0.579108E-07  0.843E-04    1.34      13.4  T
   8   -131.8053308 -0.370338E-08  0.326E-04    1.34      34.8  T
     SCC iter.                  ...        0 min,  0.165 sec
     gradient                   ...        0 min,  0.016 sec
 * total energy  :  -130.2481322 Eh     change       -0.9108643E-03 Eh
   gradient norm :     0.0087593 Eh/α   predicted    -0.7563848E-03 ( -16.96%)
   displ. norm   :     0.6824206 α      lambda       -0.1026255E-02
   maximum displ.:     0.3565640 α      in ANC's #5, #7, #9, ...

........................................................................
.............................. CYCLE   30 ..............................
........................................................................

 iter      E             dE          RMSdq      gap      omega  full diag
   1   -131.8061246 -0.131806E+03  0.118E-01    1.34       0.0  T
   2   -131.8061415 -0.169781E-04  0.583E-02    1.34       1.0  T
   3   -131.8061333  0.827039E-05  0.180E-02    1.34       1.0  T
   4   -131.8061410 -0.769379E-05  0.106E-02    1.34       1.1  T
   5   -131.8061471 -0.616289E-05  0.344E-03    1.34       3.3  T
   6   -131.8061475 -0.365089E-06  0.152E-03    1.34       7.4  T
   7   -131.8061476 -0.737492E-07  0.916E-04    1.34      12.4  T
   8   -131.8061476  0.512387E-08  0.480E-04    1.34      23.6  T
     SCC iter.                  ...        0 min,  0.170 sec
     gradient                   ...        0 min,  0.016 sec
 * total energy  :  -130.2490019 Eh     change       -0.8697002E-03 Eh
   gradient norm :     0.0078318 Eh/α   predicted    -0.7520908E-03 ( -13.52%)
   displ. norm   :     0.6900574 α      lambda       -0.9243659E-03
   maximum displ.:     0.3566900 α      in ANC's #5, #7, #9, ...

........................................................................
.............................. CYCLE   31 ..............................
........................................................................

 iter      E             dE          RMSdq      gap      omega  full diag
   1   -131.8059358 -0.131806E+03  0.117E-01    1.34       0.0  T
   2   -131.8059510 -0.151880E-04  0.592E-02    1.34       1.0  T
   3   -131.8059404  0.105287E-04  0.183E-02    1.34       1.0  T
   4   -131.8059509 -0.104292E-04  0.105E-02    1.34       1.1  T
   5   -131.8059566 -0.568111E-05  0.338E-03    1.34       3.3  T
   6   -131.8059570 -0.415611E-06  0.161E-03    1.34       7.0  T
   7   -131.8059571 -0.105446E-06  0.972E-04    1.34      11.6  T
   8   -131.8059571  0.241306E-08  0.548E-04    1.34      20.7  T
     SCC iter.                  ...        0 min,  0.164 sec
     gradient                   ...        0 min,  0.017 sec
 * total energy  :  -130.2497931 Eh     change       -0.7912135E-03 Eh
   gradient norm :     0.0102426 Eh/α   predicted    -0.6822855E-03 ( -13.77%)
   displ. norm   :     0.6904089 α      lambda       -0.9126631E-03
   maximum displ.:     0.3499866 α      in ANC's #5, #7, #9, ...

........................................................................
.............................. CYCLE   32 ..............................
........................................................................

 iter      E             dE          RMSdq      gap      omega  full diag
   1   -131.8069629 -0.131807E+03  0.111E-01    1.34       0.0  T
   2   -131.8069759 -0.129879E-04  0.587E-02    1.34       1.0  T
   3   -131.8069622  0.137236E-04  0.184E-02    1.35       1.0  T
   4   -131.8069761 -0.139567E-04  0.997E-03    1.34       1.1  T
   5   -131.8069811 -0.490773E-05  0.334E-03    1.34       3.4  T
   6   -131.8069815 -0.435516E-06  0.162E-03    1.34       7.0  T
   7   -131.8069816 -0.139754E-06  0.919E-04    1.34      12.3  T
   8   -131.8069816  0.974211E-09  0.496E-04    1.34      22.8  T
     SCC iter.                  ...        0 min,  0.201 sec
     gradient                   ...        0 min,  0.019 sec
 * total energy  :  -130.2505845 Eh     change       -0.7914292E-03 Eh
   gradient norm :     0.0126341 Eh/α   predicted    -0.6738497E-03 ( -14.86%)
   displ. norm   :     0.7209238 α      lambda       -0.9463745E-03
   maximum displ.:     0.3555713 α      in ANC's #5, #7, #9, ...

........................................................................
.............................. CYCLE   33 ..............................
........................................................................

 iter      E             dE          RMSdq      gap      omega  full diag
   1   -131.8057825 -0.131806E+03  0.114E-01    1.34       0.0  T
   2   -131.8057941 -0.115845E-04  0.613E-02    1.34       1.0  T
   3   -131.8057759  0.182180E-04  0.196E-02    1.35       1.0  T
   4   -131.8057942 -0.183152E-04  0.101E-02    1.34       1.1  T
   5   -131.8057992 -0.498438E-05  0.356E-03    1.34       3.2  T
   6   -131.8058000 -0.841625E-06  0.156E-03    1.34       7.3  T
   7   -131.8058001 -0.836652E-07  0.902E-04    1.34      12.6  T
   8   -131.8058001 -0.587534E-09  0.468E-04    1.34      24.2  T
     SCC iter.                  ...        0 min,  0.164 sec
     gradient                   ...        0 min,  0.017 sec
 * total energy  :  -130.2513887 Eh     change       -0.8041282E-03 Eh
   gradient norm :     0.0127357 Eh/α   predicted    -0.7191244E-03 ( -10.57%)
   displ. norm   :     0.6838014 α      lambda       -0.9984813E-03
   maximum displ.:     0.3074418 α      in ANC's #5, #7, #9, ...

........................................................................
.............................. CYCLE   34 ..............................
........................................................................

 iter      E             dE          RMSdq      gap      omega  full diag
   1   -131.8145751 -0.131815E+03  0.105E-01    1.35       0.0  T
   2   -131.8145878 -0.127094E-04  0.590E-02    1.34       1.0  T
   3   -131.8145699  0.179033E-04  0.178E-02    1.35       1.0  T
   4   -131.8145888 -0.189006E-04  0.818E-03    1.34       1.4  T
   5   -131.8145922 -0.336070E-05  0.315E-03    1.34       3.6  T
   6   -131.8145925 -0.364855E-06  0.161E-03    1.34       7.0  T
   7   -131.8145927 -0.159808E-06  0.703E-04    1.34      16.1  T
   8   -131.8145927 -0.885422E-09  0.413E-04    1.34      27.4  T
     SCC iter.                  ...        0 min,  0.231 sec
     gradient                   ...        0 min,  0.017 sec
 * total energy  :  -130.2519773 Eh     change       -0.5886091E-03 Eh
   gradient norm :     0.0138439 Eh/α   predicted    -0.7326801E-03 (  24.48%)
   displ. norm   :     0.7015283 α      lambda       -0.9185827E-03
   maximum displ.:     0.3430119 α      in ANC's #5, #7, #9, ...

........................................................................
.............................. CYCLE   35 ..............................
........................................................................

 iter      E             dE          RMSdq      gap      omega  full diag
   1   -131.8071068 -0.131807E+03  0.114E-01    1.34       0.0  T
   2   -131.8071242 -0.173815E-04  0.608E-02    1.34       1.0  T
   3   -131.8071116  0.125938E-04  0.198E-02    1.35       1.0  T
   4   -131.8071211 -0.945003E-05  0.113E-02    1.34       1.0  T
   5   -131.8071294 -0.832303E-05  0.398E-03    1.34       2.8  T
   6   -131.8071302 -0.771585E-06  0.184E-03    1.34       6.2  T
   7   -131.8071303 -0.137979E-06  0.998E-04    1.34      11.3  T
   8   -131.8071303  0.524457E-08  0.570E-04    1.34      19.9  T
     SCC iter.                  ...        0 min,  0.167 sec
     gradient                   ...        0 min,  0.015 sec
 * total energy  :  -130.2525920 Eh     change       -0.6147826E-03 Eh
   gradient norm :     0.0119815 Eh/α   predicted    -0.6853305E-03 (  11.48%)
   displ. norm   :     0.5846088 α      lambda       -0.5113753E-03
   maximum displ.:     0.2871586 α      in ANC's #5, #7, #9, ...

........................................................................
.............................. CYCLE   36 ..............................
........................................................................

 iter      E             dE          RMSdq      gap      omega  full diag
   1   -131.8063298 -0.131806E+03  0.921E-02    1.34       0.0  T
   2   -131.8063446 -0.147813E-04  0.483E-02    1.34       1.0  T
   3   -131.8063379  0.669449E-05  0.161E-02    1.34       1.0  T
   4   -131.8063423 -0.436818E-05  0.919E-03    1.34       1.2  T
   5   -131.8063481 -0.580520E-05  0.340E-03    1.34       3.3  T
   6   -131.8063484 -0.386470E-06  0.145E-03    1.34       7.8  T
   7   -131.8063486 -0.117126E-06  0.745E-04    1.34      15.2  T
   8   -131.8063486  0.173441E-08  0.454E-04    1.34      24.9  T
     SCC iter.                  ...        0 min,  0.177 sec
     gradient                   ...        0 min,  0.016 sec
 * total energy  :  -130.2530022 Eh     change       -0.4101809E-03 Eh
   gradient norm :     0.0116081 Eh/α   predicted    -0.3430777E-03 ( -16.36%)
   displ. norm   :     0.5741981 α      lambda       -0.7842082E-03
   maximum displ.:     0.2589262 α      in ANC's #5, #7, #2, ...

........................................................................
.............................. CYCLE   37 ..............................
........................................................................

 iter      E             dE          RMSdq      gap      omega  full diag
   1   -131.8151686 -0.131815E+03  0.932E-02    1.34       0.0  T
   2   -131.8151900 -0.214466E-04  0.479E-02    1.34       1.0  T
   3   -131.8151861  0.391404E-05  0.169E-02    1.34       1.0  T
   4   -131.8151883 -0.214110E-05  0.873E-03    1.34       1.3  T
   5   -131.8151933 -0.507853E-05  0.345E-03    1.34       3.3  T
   6   -131.8151938 -0.481355E-06  0.109E-03    1.34      10.4  T
   7   -131.8151939 -0.712094E-07  0.466E-04    1.34      24.3  T
   8   -131.8151939 -0.287685E-09  0.266E-04    1.34      42.6  T
     SCC iter.                  ...        0 min,  0.169 sec
     gradient                   ...        0 min,  0.016 sec
 * total energy  :  -130.2534874 Eh     change       -0.4851207E-03 Eh
   gradient norm :     0.0085387 Eh/α   predicted    -0.5213848E-03 (   7.48%)
   displ. norm   :     0.6660304 α      lambda       -0.5065957E-03
   maximum displ.:     0.3041679 α      in ANC's #5, #7, #9, ...

........................................................................
.............................. CYCLE   38 ..............................
........................................................................

 iter      E             dE          RMSdq      gap      omega  full diag
   1   -131.8133692 -0.131813E+03  0.108E-01    1.34       0.0  T
   2   -131.8133847 -0.155082E-04  0.563E-02    1.34       1.0  T
   3   -131.8133738  0.109671E-04  0.186E-02    1.34       1.0  T
   4   -131.8133829 -0.913111E-05  0.106E-02    1.34       1.1  T
   5   -131.8133900 -0.709129E-05  0.353E-03    1.34       3.2  T
   6   -131.8133904 -0.383432E-06  0.161E-03    1.34       7.0  T
   7   -131.8133905 -0.939377E-07  0.974E-04    1.34      11.6  T
   8   -131.8133905  0.122944E-08  0.549E-04    1.34      20.6  T
     SCC iter.                  ...        0 min,  0.164 sec
     gradient                   ...        0 min,  0.016 sec
 * total energy  :  -130.2538596 Eh     change       -0.3722385E-03 Eh
   gradient norm :     0.0095506 Eh/α   predicted    -0.3656605E-03 (  -1.77%)
   displ. norm   :     0.5507122 α      lambda       -0.4571501E-03
   maximum displ.:     0.2213366 α      in ANC's #5, #7, #8, ...

........................................................................
.............................. CYCLE   39 ..............................
........................................................................

 iter      E             dE          RMSdq      gap      omega  full diag
   1   -131.8148769 -0.131815E+03  0.917E-02    1.34       0.0  T
   2   -131.8148859 -0.902821E-05  0.466E-02    1.34       1.0  T
   3   -131.8148802  0.573801E-05  0.142E-02    1.34       1.0  T
   4   -131.8148852 -0.496898E-05  0.827E-03    1.34       1.4  T
   5   -131.8148890 -0.382767E-05  0.237E-03    1.34       4.8  T
   6   -131.8148892 -0.265860E-06  0.104E-03    1.34      10.9  T
   7   -131.8148893 -0.215730E-07  0.658E-04    1.34      17.2  T
   8   -131.8148893 -0.380993E-09  0.287E-04    1.34      39.5  T
     SCC iter.                  ...        0 min,  0.177 sec
     gradient                   ...        0 min,  0.016 sec
 * total energy  :  -130.2541665 Eh     change       -0.3068792E-03 Eh
   gradient norm :     0.0102261 Eh/α   predicted    -0.2979010E-03 (  -2.93%)
   displ. norm   :     0.5557125 α      lambda       -0.4263486E-03
   maximum displ.:     0.2144032 α      in ANC's #7, #5, #9, ...

........................................................................
.............................. CYCLE   40 ..............................
........................................................................

 iter      E             dE          RMSdq      gap      omega  full diag
   1   -131.8132540 -0.131813E+03  0.908E-02    1.34       0.0  T
   2   -131.8132631 -0.907455E-05  0.458E-02    1.34       1.0  T
   3   -131.8132579  0.523664E-05  0.137E-02    1.34       1.0  T
   4   -131.8132625 -0.461307E-05  0.825E-03    1.33       1.4  T
   5   -131.8132661 -0.364982E-05  0.248E-03    1.34       4.6  T
   6   -131.8132664 -0.291934E-06  0.120E-03    1.34       9.4  T
   7   -131.8132664 -0.369874E-07  0.753E-04    1.34      15.0  T
   8   -131.8132664  0.255682E-09  0.403E-04    1.34      28.1  T
     SCC iter.                  ...        0 min,  0.167 sec
     gradient                   ...        0 min,  0.016 sec
 * total energy  :  -130.2545072 Eh     change       -0.3406896E-03 Eh
   gradient norm :     0.0086464 Eh/α   predicted    -0.2790074E-03 ( -18.11%)
   displ. norm   :     0.4945921 α      lambda       -0.5150988E-03
   maximum displ.:     0.1925311 α      in ANC's #8, #2, #4, ...

........................................................................
.............................. CYCLE   41 ..............................
........................................................................

 iter      E             dE          RMSdq      gap      omega  full diag
   1   -131.8178341 -0.131818E+03  0.822E-02    1.34       0.0  T
   2   -131.8178450 -0.108970E-04  0.424E-02    1.34       1.0  T
   3   -131.8178436  0.132626E-05  0.111E-02    1.34       1.0  T
   4   -131.8178452 -0.160992E-05  0.655E-03    1.34       1.7  T
   5   -131.8178470 -0.174105E-05  0.258E-03    1.34       4.4  T
   6   -131.8178472 -0.265191E-06  0.121E-03    1.34       9.3  T
   7   -131.8178473 -0.776741E-07  0.690E-04    1.34      16.4  T
   8   -131.8178473  0.374115E-09  0.325E-04    1.34      34.8  T
     SCC iter.                  ...        0 min,  0.172 sec
     gradient                   ...        0 min,  0.016 sec
 * total energy  :  -130.2548620 Eh     change       -0.3548264E-03 Eh
   gradient norm :     0.0082158 Eh/α   predicted    -0.3205531E-03 (  -9.66%)
   displ. norm   :     0.6712947 α      lambda       -0.4473322E-03
   maximum displ.:     0.2542511 α      in ANC's #8, #7, #9, ...

........................................................................
.............................. CYCLE   42 ..............................
........................................................................

 iter      E             dE          RMSdq      gap      omega  full diag
   1   -131.8142491 -0.131814E+03  0.114E-01    1.34       0.0  T
   2   -131.8142653 -0.161506E-04  0.583E-02    1.33       1.0  T
   3   -131.8142584  0.685432E-05  0.175E-02    1.34       1.0  T
   4   -131.8142626 -0.414737E-05  0.110E-02    1.33       1.0  T
   5   -131.8142698 -0.722251E-05  0.416E-03    1.34       2.7  T
   6   -131.8142707 -0.946991E-06  0.186E-03    1.34       6.1  T
   7   -131.8142708 -0.811376E-07  0.112E-03    1.34      10.1  T
   8   -131.8142708  0.905402E-08  0.573E-04    1.34      19.7  T
   9   -131.8142708 -0.271209E-07  0.173E-04    1.34      65.6  T
     SCC iter.                  ...        0 min,  0.185 sec
     gradient                   ...        0 min,  0.016 sec
 * total energy  :  -130.2551940 Eh     change       -0.3319753E-03 Eh
   gradient norm :     0.0089976 Eh/α   predicted    -0.3244589E-03 (  -2.26%)
   displ. norm   :     0.5225874 α      lambda       -0.4647012E-03
   maximum displ.:     0.2177375 α      in ANC's #8, #14, #9, ...
 * RMSD in coord.:     1.3285699 α      energy gain  -0.2231297E-01 Eh

generating ANC from exact Hessian ...
Using Lindh-Hessian (1995)
 Shifting diagonal of input Hessian by    9.8305699974350538E-003
 Lowest  eigenvalues of input Hessian
    0.000000    0.000000    0.000000    0.000000    0.000000    0.000000
    0.010000    0.010041    0.010092    0.010182    0.010211    0.010329
    0.010433    0.010496    0.010817    0.010851    0.011044    0.011290
 Highest eigenvalues
    2.103394    2.180993    2.185859    2.618167    2.627275    2.630849


........................................................................
.............................. CYCLE   43 ..............................
........................................................................

 iter      E             dE          RMSdq      gap      omega  full diag
   1   -131.8147263 -0.131815E+03  0.933E-02    1.34       0.0  T
   2   -131.8147372 -0.108628E-04  0.475E-02    1.34       1.0  T
   3   -131.8147341  0.308988E-05  0.137E-02    1.34       1.0  T
   4   -131.8147357 -0.162766E-05  0.856E-03    1.34       1.3  T
   5   -131.8147399 -0.416520E-05  0.313E-03    1.34       3.6  T
   6   -131.8147405 -0.554721E-06  0.142E-03    1.34       8.0  T
   7   -131.8147405 -0.490783E-07  0.844E-04    1.34      13.4  T
   8   -131.8147405 -0.286596E-08  0.381E-04    1.34      29.7  T
     SCC iter.                  ...        0 min,  0.168 sec
     gradient                   ...        0 min,  0.016 sec
 * total energy  :  -130.2554855 Eh     change       -0.2914977E-03 Eh
   gradient norm :     0.0089605 Eh/α   predicted     0.0000000E+00 (-100.00%)
   displ. norm   :     0.0785530 α      lambda       -0.2182631E-03
   maximum displ.:     0.0307124 α      in ANC's #7, #8, #5, ...

........................................................................
.............................. CYCLE   44 ..............................
........................................................................

 iter      E             dE          RMSdq      gap      omega  full diag
   1   -131.8165364 -0.131817E+03  0.217E-02    1.34       0.0  T
   2   -131.8165372 -0.826120E-06  0.120E-02    1.34       1.0  T
   3   -131.8165370  0.195878E-06  0.364E-03    1.34       3.1  T
   4   -131.8165372 -0.234267E-06  0.167E-03    1.34       6.8  T
   5   -131.8165373 -0.126761E-06  0.726E-04    1.34      15.6  T
   6   -131.8165374 -0.108562E-07  0.316E-04    1.34      35.8  T
     SCC iter.                  ...        0 min,  0.123 sec
     gradient                   ...        0 min,  0.015 sec
 * total energy  :  -130.2556505 Eh     change       -0.1650830E-03 Eh
   gradient norm :     0.0038589 Eh/α   predicted    -0.1107702E-03 ( -32.90%)
   displ. norm   :     0.1591824 α      lambda       -0.1918151E-03
   maximum displ.:     0.0699685 α      in ANC's #7, #8, #5, ...

........................................................................
.............................. CYCLE   45 ..............................
........................................................................

 iter      E             dE          RMSdq      gap      omega  full diag
   1   -131.8181634 -0.131818E+03  0.313E-02    1.34       0.0  T
   2   -131.8181653 -0.189753E-05  0.167E-02    1.34       1.0  T
   3   -131.8181653 -0.417883E-07  0.475E-03    1.34       2.4  T
   4   -131.8181654 -0.104269E-06  0.214E-03    1.34       5.3  T
   5   -131.8181656 -0.116991E-06  0.114E-03    1.34      10.0  T
   6   -131.8181656 -0.382317E-07  0.398E-04    1.34      28.4  T
   7   -131.8181656 -0.270157E-08  0.265E-04    1.34      42.7  T
     SCC iter.                  ...        0 min,  0.148 sec
     gradient                   ...        0 min,  0.016 sec
 * total energy  :  -130.2557817 Eh     change       -0.1311921E-03 Eh
   gradient norm :     0.0029819 Eh/α   predicted    -0.9833897E-04 ( -25.04%)
   displ. norm   :     0.1761164 α      lambda       -0.1150592E-03
   maximum displ.:     0.0810357 α      in ANC's #7, #8, #5, ...

........................................................................
.............................. CYCLE   46 ..............................
........................................................................

 iter      E             dE          RMSdq      gap      omega  full diag
   1   -131.8186490 -0.131819E+03  0.299E-02    1.35       0.0  T
   2   -131.8186504 -0.145326E-05  0.156E-02    1.35       1.0  T
   3   -131.8186505 -0.368573E-07  0.413E-03    1.35       2.7  T
   4   -131.8186505 -0.602575E-07  0.210E-03    1.35       5.4  T
   5   -131.8186506 -0.129991E-06  0.110E-03    1.35      10.3  T
   6   -131.8186507 -0.515419E-07  0.388E-04    1.35      29.2  T
   7   -131.8186507 -0.549534E-09  0.265E-04    1.35      42.7  T
     SCC iter.                  ...        0 min,  0.149 sec
     gradient                   ...        0 min,  0.015 sec
 * total energy  :  -130.2558759 Eh     change       -0.9419701E-04 Eh
   gradient norm :     0.0044224 Eh/α   predicted    -0.5947446E-04 ( -36.86%)
   displ. norm   :     0.3041707 α      lambda       -0.1781063E-03
   maximum displ.:     0.1411651 α      in ANC's #7, #8, #5, ...

........................................................................
.............................. CYCLE   47 ..............................
........................................................................

 iter      E             dE          RMSdq      gap      omega  full diag
   1   -131.8183097 -0.131818E+03  0.501E-02    1.35       0.0  T
   2   -131.8183130 -0.333462E-05  0.260E-02    1.35       1.0  T
   3   -131.8183131 -0.654982E-07  0.659E-03    1.35       1.7  T
   4   -131.8183132 -0.148199E-06  0.359E-03    1.35       3.2  T
   5   -131.8183137 -0.449161E-06  0.159E-03    1.35       7.1  T
   6   -131.8183138 -0.111851E-06  0.638E-04    1.35      17.7  T
   7   -131.8183138 -0.281645E-08  0.424E-04    1.35      26.7  T
     SCC iter.                  ...        0 min,  0.152 sec
     gradient                   ...        0 min,  0.021 sec
 * total energy  :  -130.2560212 Eh     change       -0.1452931E-03 Eh
   gradient norm :     0.0046294 Eh/α   predicted    -0.9729252E-04 ( -33.04%)
   displ. norm   :     0.4020082 α      lambda       -0.2079638E-03
   maximum displ.:     0.1901467 α      in ANC's #7, #5, #8, ...

........................................................................
.............................. CYCLE   48 ..............................
........................................................................

 iter      E             dE          RMSdq      gap      omega  full diag
   1   -131.8171721 -0.131817E+03  0.658E-02    1.35       0.0  T
   2   -131.8171773 -0.525985E-05  0.337E-02    1.35       1.0  T
   3   -131.8171775 -0.153084E-06  0.860E-03    1.35       1.3  T
   4   -131.8171778 -0.275095E-06  0.482E-03    1.35       2.3  T
   5   -131.8171786 -0.795331E-06  0.176E-03    1.35       6.4  T
   6   -131.8171787 -0.111137E-06  0.864E-04    1.35      13.1  T
   7   -131.8171787 -0.125296E-07  0.563E-04    1.35      20.1  T
     SCC iter.                  ...        0 min,  0.163 sec
     gradient                   ...        0 min,  0.015 sec
 * total energy  :  -130.2561893 Eh     change       -0.1680772E-03 Eh
   gradient norm :     0.0041813 Eh/α   predicted    -0.1207873E-03 ( -28.14%)
   displ. norm   :     0.4353448 α      lambda       -0.2131283E-03
   maximum displ.:     0.2100185 α      in ANC's #7, #5, #8, ...

........................................................................
.............................. CYCLE   49 ..............................
........................................................................

 iter      E             dE          RMSdq      gap      omega  full diag
   1   -131.8162074 -0.131816E+03  0.711E-02    1.35       0.0  T
   2   -131.8162138 -0.642293E-05  0.361E-02    1.35       1.0  T
   3   -131.8162136  0.141967E-06  0.976E-03    1.35       1.2  T
   4   -131.8162143 -0.703863E-06  0.559E-03    1.35       2.0  T
   5   -131.8162153 -0.997928E-06  0.197E-03    1.35       5.8  T
   6   -131.8162155 -0.117544E-06  0.103E-03    1.35      11.0  T
   7   -131.8162155 -0.322472E-07  0.625E-04    1.35      18.1  T
   8   -131.8162155 -0.260704E-08  0.271E-04    1.35      41.7  T
     SCC iter.                  ...        0 min,  0.183 sec
     gradient                   ...        0 min,  0.016 sec
 * total energy  :  -130.2563650 Eh     change       -0.1757278E-03 Eh
   gradient norm :     0.0046287 Eh/α   predicted    -0.1267658E-03 ( -27.86%)
   displ. norm   :     0.4660764 α      lambda       -0.2447679E-03
   maximum displ.:     0.2281162 α      in ANC's #7, #5, #8, ...

........................................................................
.............................. CYCLE   50 ..............................
........................................................................

 iter      E             dE          RMSdq      gap      omega  full diag
   1   -131.8161648 -0.131816E+03  0.761E-02    1.35       0.0  T
   2   -131.8161729 -0.813649E-05  0.386E-02    1.35       1.0  T
   3   -131.8161716  0.131105E-05  0.114E-02    1.35       1.0  T
   4   -131.8161734 -0.180758E-05  0.655E-03    1.35       1.7  T
   5   -131.8161749 -0.147896E-05  0.254E-03    1.35       4.5  T
   6   -131.8161751 -0.227466E-06  0.129E-03    1.35       8.8  T
   7   -131.8161752 -0.810547E-07  0.695E-04    1.35      16.3  T
   8   -131.8161752 -0.381647E-09  0.357E-04    1.35      31.7  T
     SCC iter.                  ...        0 min,  0.224 sec
     gradient                   ...        0 min,  0.016 sec
 * total energy  :  -130.2565657 Eh     change       -0.2006640E-03 Eh
   gradient norm :     0.0058804 Eh/α   predicted    -0.1489862E-03 ( -25.75%)
   displ. norm   :     0.4969127 α      lambda       -0.2622633E-03
   maximum displ.:     0.2449521 α      in ANC's #7, #5, #8, ...

........................................................................
.............................. CYCLE   51 ..............................
........................................................................

 iter      E             dE          RMSdq      gap      omega  full diag
[...]
    87   6 C       91   6 C                                       1.4282283
    91   6 C       92   6 C                                       1.4165791
    80   6 C       93   7 N                                       1.4493154
    92   6 C       93   7 N                                       1.3867140
    88   6 C       94   6 C                                       1.4141683
    93   7 N       94   6 C                                       1.3892329
    94   6 C       95   6 C                                       1.3914439
    95   6 C       96   6 C                                       1.3850136
    89   6 C       97   6 C                                       1.3898683
    96   6 C       97   6 C                                       1.3836242
    91   6 C       98   6 C                                       1.4178718
    98   6 C       99   6 C                                       1.3826986
    99   6 C      100   6 C                                       1.3815519
    92   6 C      101   6 C                                       1.3929621
   100   6 C      101   6 C                                       1.3816939
    98   6 C      102   8 O                                       1.3616901
    82   6 C      103   8 O                                       1.3676808
   106  16 S      107   8 O                                       1.4573186
   108   8 O      109   6 C                                       1.4020357
   104  16 S      110   8 O                                       1.4541290
   111   8 O      112   6 C                                       1.4007906
   105  16 S      113   8 O                                       1.4525741
   114   8 O      115   6 C                                       1.4058834
    81   6 C      116   1 H                                       1.0778737
    85   6 C      117   1 H                                       1.0777253
    99   6 C      118   1 H                                       1.0778842
   101   6 C      119   1 H                                       1.0766475
    95   6 C      120   1 H                                       1.0769249
    97   6 C      121   1 H                                       1.0757068
    80   6 C      122   6 C                                       1.5318159
   122   6 C      123   6 C                                       1.5232322
    79   6 C      124   6 C                                       1.5330134
   124   6 C      125   6 C                                       1.5237764
   102   8 O      126   6 C                                       1.4066018
   103   8 O      127   6 C                                       1.4104766
   112   6 C      128   1 H                                       1.0894630
   112   6 C      129   1 H                                       1.0950417
   112   6 C      130   1 H                                       1.0956221
   115   6 C      131   1 H                                       1.0891738
   115   6 C      132   1 H                                       1.0949114
   115   6 C      133   1 H                                       1.0952080
   109   6 C      134   1 H                                       1.0904476
   109   6 C      135   1 H                                       1.0959803
   109   6 C      136   1 H                                       1.0932826
    80   6 C      137   1 H                                       1.0859730
    80   6 C      138   1 H                                       1.0958170
   122   6 C      139   1 H                                       1.0913291
   122   6 C      140   1 H                                       1.0914132
   123   6 C      141   1 H                                       1.0883474
   123   6 C      142   1 H                                       1.0872407
   123   6 C      143   1 H                                       1.0873466
   126   6 C      144   1 H                                       1.0892787
   126   6 C      145   1 H                                       1.0948127
   126   6 C      146   1 H                                       1.0942711
   127   6 C      147   1 H                                       1.0886319
   127   6 C      148   1 H                                       1.0924417
   127   6 C      149   1 H                                       1.0931110
   125   6 C      150   1 H                                       1.0865869
   125   6 C      151   1 H                                       1.0878067
   125   6 C      152   1 H                                       1.0878811
   124   6 C      153   1 H                                       1.0902473
   124   6 C      154   1 H                                       1.0923193
    79   6 C      155   1 H                                       1.0875251
    79   6 C      156   1 H                                       1.0929041

 * 5 distinct bonds (by element types)

   Z      Z             #   av. dist./Å        max./Å        min./Å
   1 H    6 C          70     1.0888791     1.0968484     1.0754566
   6 C    6 C          50     1.4203088     1.5336235     1.3761409
Note: The following floating-point exceptions are signalling: IEEE_UNDERFLOW_FLAG
normal termination of xtb
   6 C    7 N          12     1.4065396     1.4498892     1.3813657
   6 C    8 O          14     1.3942777     1.4104766     1.3616901
   8 O   16 S           6     1.4547054     1.4573186     1.4525741


optimized geometry written to: xtbopt.mol


           -------------------------------------------------
          | TOTAL ENERGY             -260.584160343124 Eh   |
          | GRADIENT NORM               0.000329703059 Eh/α |
          | HOMO-LUMO GAP               1.122099201950 eV   |
           -------------------------------------------------
########################################################################
[WARNING] Runtime exception occurred
-3- restart_readRestart: Dimension missmatch in restart file.
-2- restart_readRestart: Multiplicity missmatch in restart file.
-1- restart_readRestart: Number of electron missmatch in restart file.
########################################################################

------------------------------------------------------------------------
 * finished run on 2024/12/02 at 13:06:13.876     
------------------------------------------------------------------------
 total:
 * wall-time:     0 d,  0 h,  0 min, 44.754 sec
 *  cpu-time:     0 d,  0 h,  2 min, 13.718 sec
 * ratio c/w:     2.988 speedup
 SCF:
 * wall-time:     0 d,  0 h,  0 min,  1.551 sec
 *  cpu-time:     0 d,  0 h,  0 min,  5.452 sec
 * ratio c/w:     3.514 speedup
 ANC optimizer:
 * wall-time:     0 d,  0 h,  0 min, 43.177 sec
 *  cpu-time:     0 d,  0 h,  2 min,  8.210 sec
 * ratio c/w:     2.969 speedup

Running optimization for loose_opt_dimer.mol
      -----------------------------------------------------------      
     |                   =====================                   |     
     |                           x T B                           |     
     |                   =====================                   |     
     |                         S. Grimme                         |     
     |          Mulliken Center for Theoretical Chemistry        |     
     |                    University of Bonn                     |     
      -----------------------------------------------------------      

   * xtb version 6.7.1 (edcfbbe) compiled by 'runner@Mac-1732539442253.local' on 2024-11-25

   xtb is free software: you can redistribute it and/or modify it under
   the terms of the GNU Lesser General Public License as published by
   the Free Software Foundation, either version 3 of the License, or
   (at your option) any later version.
   
   xtb is distributed in the hope that it will be useful,
   but WITHOUT ANY WARRANTY; without even the implied warranty of
   MERCHANTABILITY or FITNESS FOR A PARTICULAR PURPOSE.  See the
   GNU Lesser General Public License for more details.
   
   Cite this work as:
   * C. Bannwarth, E. Caldeweyher, S. Ehlert, A. Hansen, P. Pracht,
     J. Seibert, S. Spicher, S. Grimme, WIREs Comput. Mol. Sci., 2020, 11,
     e01493. DOI: 10.1002/wcms.1493
   
   for GFN2-xTB:
   * C. Bannwarth, S. Ehlert and S. Grimme., J. Chem. Theory Comput., 2019,
     15, 1652-1671. DOI: 10.1021/acs.jctc.8b01176
   for GFN1-xTB:
   * S. Grimme, C. Bannwarth, P. Shushkov, J. Chem. Theory Comput., 2017,
     13, 1989-2009. DOI: 10.1021/acs.jctc.7b00118
   for GFN0-xTB:
   * P. Pracht, E. Caldeweyher, S. Ehlert, S. Grimme, ChemRxiv, 2019, preprint.
     DOI: 10.26434/chemrxiv.8326202.v1
   for GFN-FF:
   * S. Spicher and S. Grimme, Angew. Chem. Int. Ed., 2020, 59, 15665-15673.
     DOI: 10.1002/anie.202004239
   
   for ALPB and GBSA implicit solvation:
   * S. Ehlert, M. Stahn, S. Spicher, S. Grimme, J. Chem. Theory Comput.,
     2021, 17, 4250-4261. DOI: 10.1021/acs.jctc.1c00471
   
   for ddCOSMO and CPCM-X implicit solvation:
   * M. Stahn, S. Ehlert, S. Grimme, J. Phys. Chem. A,
     2023, XX, XXXX-XXXX. DOI: 10.1021/acs.jpca.3c04382
   
   for DFT-D4:
   * E. Caldeweyher, C. Bannwarth and S. Grimme, J. Chem. Phys., 2017,
     147, 034112. DOI: 10.1063/1.4993215
   * E. Caldeweyher, S. Ehlert, A. Hansen, H. Neugebauer, S. Spicher,
     C. Bannwarth and S. Grimme, J. Chem. Phys., 2019, 150, 154122.
     DOI: 10.1063/1.5090222
   * E. Caldeweyher, J.-M. Mewes, S. Ehlert and S. Grimme, Phys. Chem. Chem. Phys.
     2020, 22, 8499-8512. DOI: 10.1039/D0CP00502A
   
   for sTDA-xTB:
   * S. Grimme and C. Bannwarth, J. Chem. Phys., 2016, 145, 054103.
     DOI: 10.1063/1.4959605
   
   in the mass-spec context:
   * V. Asgeirsson, C. Bauer and S. Grimme, Chem. Sci., 2017, 8, 4879.
     DOI: 10.1039/c7sc00601b
   * J. Koopman and S. Grimme, ACS Omega 2019, 4, 12, 15120-15133.
     DOI: 10.1021/acsomega.9b02011
   
   for metadynamics refer to:
   * S. Grimme, J. Chem. Theory Comput., 2019, 155, 2847-2862
     DOI: 10.1021/acs.jctc.9b00143
   
   for SPH calculations refer to:
   * S. Spicher and S. Grimme, J. Chem. Theory Comput., 2021, 17, 1701-1714
     DOI: 10.1021/acs.jctc.0c01306
   
   for ONIOM refer to:
   * C. Plett, A. Katbashev, S. Ehlert, S. Grimme, M. Bursch,
     Phys. Chem. Chem. Phys., 2023, 25, 17860-17868. DOI: 10.1039/D3CP02178E
   
   for DIPRO refer to:
   * J. Kohn, N. Gildemeister, S. Grimme, D. Fazzi, A. Hansen,
     J. Chem. Phys., 2023, just accepted.
   
   for PTB refer to:
   * S. Grimme, M. Mueller, A. Hansen, J. Chem. Phys., 2023, 158, 124111.
     DOI: 10.1063/5.0137838
   
   with help from (in alphabetical order)
   P. Atkinson, C. Bannwarth, F. Bohle, G. Brandenburg, E. Caldeweyher
   M. Checinski, S. Dohm, S. Ehlert, S. Ehrlich, I. Gerasimov, C. Hölzer
   A. Katbashev, J. Kohn, J. Koopman, C. Lavigne, S. Lehtola, F. März, M. Müller,
   F. Musil, H. Neugebauer, J. Pisarek, C. Plett, P. Pracht, F. Pultar,
   J. Seibert, P. Shushkov, S. Spicher, M. Stahn, M. Steiner, T. Strunk,
   J. Stückrath, T. Rose, and J. Unsleber
   
 * started run on 2024/12/02 at 13:06:13.910     
   ID    Z sym.   atoms
    1    6 C      1-11, 13, 14, 16-23, 31, 34, 37, 44-49, 79-89, 91, 92,
                  94-101, 109, 112, 115, 122-127
    2    7 N      12, 15, 90, 93
    3    8 O      24, 25, 29, 30, 32, 33, 35, 36, 102, 103, 107, 108, 110,
                  111, 113, 114
    4   16 S      26-28, 104-106
    5    1 H      38-43, 50-78, 116-121, 128-156

           -------------------------------------------------
          |                Calculation Setup                |
           -------------------------------------------------

          program call               : xtb opt_dimer.mol --dipro 0.3 --gfn 2 --chrg 0 --uhf 2
          coordinate file            : opt_dimer.mol
          omp threads                :                     8


molecular fragmentation (1/2 indicates fragments):
111111111111111111111111111111111111111111111111111111111111111111111111
111111222222222222222222222222222222222222222222222222222222222222222222
222222222222
# atoms in fragment 1/2:    78    78
 fragment masses (1/2) :      647.80      647.80
CMA distance (Bohr)    :   9.913
constraining FC (au)   :  0.0500

           -------------------------------------------------
          |                 G F N 2 - x T B                 |
           -------------------------------------------------

        Reference                      10.1021/acs.jctc.8b01176
      * Hamiltonian:
        H0-scaling (s, p, d)           1.850000    2.230000    2.230000
        zeta-weighting                 0.500000
      * Dispersion:
        s8                             2.700000
        a1                             0.520000
        a2                             5.000000
        s9                             5.000000
      * Repulsion:
        kExp                           1.500000    1.000000
        rExp                           1.000000
      * Coulomb:
        alpha                          2.000000
        third order                    shell-resolved
        anisotropic                    true
        a3                             3.000000
        a5                             4.000000
        cn-shift                       1.200000
        cn-exp                         4.000000
        max-rad                        5.000000

q/qsh data taken from xtbrestart
CAMM data taken from xtbrestart
           -------------------------------------------------
          |                    D I P R O                    |
           -------------------------------------------------
Calculation for dimer 
--------------------- 
  
charge of dimer :   0.
unpaired e- of dimer :  2
repulsion energy          3.1211786490639E+00 Eh
dispersion energy         2.4984445611838E-02 Eh
number of electrons       4.6200000000000E+02 e
integral cutoff           1.8403572253217E+01 bohr

------------------------------------------------------------
  cycle        total energy    energy error   density error
------------------------------------------------------------
      1     -259.8598514895  -2.6300601E+02   1.9176491E-01
      2     -260.4905669888  -6.3071550E-01   9.0165044E-02
      3     -260.5112412198  -2.0674231E-02   3.7689523E-02
      4     -260.5590130416  -4.7771822E-02   1.9635587E-02
      5     -260.5797043899  -2.0691348E-02   7.2173525E-03
      6     -260.5798612346  -1.5684463E-04   4.7781018E-03
      7     -260.5838353713  -3.9741368E-03   1.7959045E-03
      8     -260.5840021151  -1.6674373E-04   9.9394137E-04
      9     -260.5840953615  -9.3246403E-05   4.6373877E-04
     10     -260.5841203962  -2.5034773E-05   1.4895351E-04
     11     -260.5841207769  -3.8062836E-07   8.5501810E-05
     12     -260.5841210014  -2.2453725E-07   3.7410405E-05
     13     -260.5841210504  -4.8980723E-08   1.9054526E-05
------------------------------------------------------------

electronic energy        -2.6373028414506E+02 Eh
total energy             -2.6058412105039E+02 Eh

 total:                                   1.344 sec
 - repulsion                              0.000 sec (  0%)
 - dispersion                             0.008 sec (  0%)
 - coulomb                                0.003 sec (  0%)
 - hamiltonian                            0.010 sec (  0%)
 - scc                                    1.323 sec ( 98%)

Found 2 fragments!
Fragment 1:  1-78
Fragment 2:  79-156

[Info] Fragment spin read from .UHFfrag
Calculation for fragment 1
 ------------------------------
   
charge of fragment :   0.
unpaired e- of fragment :  1
------------------------------------------------------------
  cycle        total energy    energy error   density error
------------------------------------------------------------
      1     -129.8757685101  -1.3143817E+02   1.9186914E-01
      2     -130.2102173738  -3.3444886E-01   8.8996526E-02
      3     -130.2249820375  -1.4764664E-02   3.6990677E-02
      4     -130.2450072227  -2.0025185E-02   1.9353527E-02
      5     -130.2541597698  -9.1525471E-03   6.3236847E-03
      6     -130.2536008687   5.5890107E-04   4.0864765E-03
      7     -130.2550437664  -1.4428977E-03   1.6027525E-03
      8     -130.2551041761  -6.0409686E-05   7.5843557E-04
      9     -130.2551127448  -8.5686706E-06   3.4517017E-04
     10     -130.2551229625  -1.0217677E-05   1.4986849E-04
     11     -130.2551231943  -2.3184802E-07   7.1973957E-05
     12     -130.2551232755  -8.1169844E-08   3.6979970E-05
     13     -130.2551233185  -4.2970527E-08   1.4671803E-05
------------------------------------------------------------

 total:                                   0.450 sec
Calculation for fragment 2
 ------------------------------
   
charge of fragment :   0.
unpaired e- of fragment :  1
------------------------------------------------------------
  cycle        total energy    energy error   density error
------------------------------------------------------------
      1     -129.8784944720  -1.3144186E+02   1.9180238E-01
      2     -130.2108399074  -3.3234544E-01   8.8836594E-02
      3     -130.2251763700  -1.4336463E-02   3.6602706E-02
      4     -130.2468817041  -2.1705334E-02   1.9077131E-02
      5     -130.2550894457  -8.2077416E-03   6.1870121E-03
      6     -130.2545807252   5.0872047E-04   3.9001082E-03
      7     -130.2558108946  -1.2301694E-03   1.6023993E-03
      8     -130.2558782561  -6.7361503E-05   7.6132082E-04
      9     -130.2558887468  -1.0490744E-05   3.3335698E-04
     10     -130.2558970853  -8.3384870E-06   1.4901439E-04
     11     -130.2558973203  -2.3501025E-07   7.5342518E-05
     12     -130.2558974365  -1.1619980E-07   3.5306116E-05
     13     -130.2558974690  -3.2489481E-08   1.4761538E-05
------------------------------------------------------------

 total:                                   0.407 sec
   
   ::::::::::::::::::::::::::::::::::::::::::::::
   ::     D I P R O      C O U P L I N G S     ::
   ::::::::::::::::::::::::::::::::::::::::::::::
   
energy threshhold for near-degenerate orbitals near HOMO and LUMO considered for DIPRO:  0.300 eV
no. of orbitals within energy window of frag 1         2
no. of orbitals within energy window of frag 2         2
   
  Fragment 1 SOMO   Fragment 2 SOMO 
--------------------------------------
E_mon(orb) frag1 frag2              -9.735    -9.924 eV
J(AB):                0.081 eV
S(AB):            -0.00381495 Eh
|J(AB,eff)|:            0.044 eV
   
  Fragment 1 SOMO   Fragment 2 LUMO 
--------------------------------------
E_mon(orb) frag1 frag2              -9.735    -8.246 eV
J(AB):                0.030 eV
S(AB):            -0.00130502 Eh
|J(AB,eff)|:            0.018 eV
   
  Fragment 1 LUMO   Fragment 2 SOMO 
--------------------------------------
E_mon(orb) frag1 frag2              -8.076    -9.924 eV
J(AB):               -0.026 eV
S(AB):             0.00122467 Eh
|J(AB,eff)|:            0.015 eV
   
  Fragment 1 LUMO   Fragment 2 LUMO 
--------------------------------------
E_mon(orb) frag1 frag2              -8.076    -8.246 eV
J(AB):               -0.012 eV
S(AB):             0.00039335 Eh
|J(AB,eff)|:            0.009 eV
   
..............................................................................
:  total |J(AB,eff)| for hole transport (occ. MOs) :               0.044 eV  :
:  total |J(AB,eff)| for charge transport (unocc. MOs) :           0.009 eV  :
:  total |J(AB,eff)| for charge transfer (CT) :                    0.024 eV  :
..............................................................................
  
 Please remember, DIPRO is not available for restart!
   
normal termination of dipro
----------------------------------------------------------
 * finished run on 2024/12/02 at 13:06:16.134     
----------------------------------------------------------
 dipro:
 * wall-time:     0 d,  0 h,  0 min,  2.217 sec
 *  cpu-time:     0 d,  0 h,  0 min,  7.882 sec
 * ratio c/w:     3.556 speedup
