156
 energy: -260.468712198828 gnorm: 0.292630590283 xtb: 6.7.1 (edcfbbe)
C           -0.66540000000000        2.52440000000000       -2.30890000000000
C            2.34260000000000       -2.73180000000000        2.04810000000000
C           -4.48130000000000       -0.56490000000000       -0.95760000000000
C           -3.36880000000000       -1.08920000000000       -0.30810000000000
C           -2.14610000000000       -0.33120000000000       -0.33440000000000
C           -2.01640000000000        0.73330000000000       -1.26520000000000
C           -3.16350000000000        1.19450000000000       -1.90740000000000
C           -4.37900000000000        0.58630000000000       -1.71720000000000
C           -1.01050000000000       -0.66250000000000        0.48570000000000
C            0.27600000000000       -0.34480000000000       -0.02710000000000
C            0.40310000000000        0.61030000000000       -1.07610000000000
N           -0.74860000000000        1.25800000000000       -1.55050000000000
C           -1.09590000000000       -1.21080000000000        1.81170000000000
C            0.07680000000000       -1.77680000000000        2.37830000000000
N            1.27540000000000       -1.79090000000000        1.64710000000000
C            1.43240000000000       -0.95780000000000        0.53110000000000
C            2.67750000000000       -0.64930000000000       -0.00920000000000
C            2.79300000000000        0.28010000000000       -1.02120000000000
C            1.67960000000000        0.90280000000000       -1.54280000000000
C           -2.27190000000000       -1.08160000000000        2.62950000000000
C           -2.25680000000000       -1.63280000000000        3.90640000000000
C           -1.10160000000000       -2.16320000000000        4.44170000000000
C            0.04150000000000       -2.24790000000000        3.68950000000000
O           -3.35040000000000       -0.31370000000000        2.18820000000000
O           -3.35700000000000       -2.33200000000000        0.31740000000000
S           -5.84410000000000        1.31800000000000       -2.47980000000000
S           -1.03520000000000       -2.65720000000000        6.17520000000000
S            4.44070000000000        0.72760000000000       -1.61630000000000
O            4.05570000000000        2.02340000000000       -2.38270000000000
O            4.54450000000000       -0.38740000000000       -2.87280000000000
C            3.69080000000000       -0.10130000000000       -3.93030000000000
O           -5.17090000000000        2.55430000000000       -3.14280000000000
O           -6.47350000000000        1.99980000000000       -1.07450000000000
C           -5.73510000000000        3.09530000000000       -0.64210000000000
O           -2.47910000000000       -3.20300000000000        6.35020000000000
O           -0.15490000000000       -4.06920000000000        5.95150000000000
C           -0.90520000000000       -5.04590000000000        5.30820000000000
H           -5.43670000000000       -1.05010000000000       -0.88450000000000
H           -3.12810000000000        2.04480000000000       -2.56260000000000
H           -3.12010000000000       -1.56810000000000        4.54050000000000
H            0.92930000000000       -2.63000000000000        4.15670000000000
H            3.58160000000000       -1.04200000000000        0.41910000000000
H            1.83640000000000        1.62720000000000       -2.31820000000000
C            1.89490000000000       -4.18070000000000        1.91060000000000
C            2.96100000000000       -5.17830000000000        2.32830000000000
C           -1.16380000000000        3.70810000000000       -1.48900000000000
C           -1.22810000000000        4.99840000000000       -2.28690000000000
C           -4.58380000000000       -0.60060000000000        2.80860000000000
C           -4.53950000000000       -3.08100000000000        0.17620000000000
H           -6.22980000000000        3.54100000000000        0.22520000000000
H           -5.68110000000000        3.82600000000000       -1.45490000000000
H           -4.72620000000000        2.77800000000000       -0.36670000000000
H           -0.31780000000000       -5.96560000000000        5.24040000000000
H           -1.17580000000000       -4.70670000000000        4.30470000000000
H           -1.81410000000000       -5.22880000000000        5.88960000000000
H            3.93930000000000       -0.75510000000000       -4.77050000000000
H            3.82700000000000        0.94380000000000       -4.22400000000000
H            2.65550000000000       -0.27690000000000       -3.62890000000000
H            2.64510000000000       -2.50400000000000        3.07220000000000
H            3.23410000000000       -2.57230000000000        1.44080000000000
H            1.59290000000000       -4.35780000000000        0.87040000000000
H            0.98090000000000       -4.33760000000000        2.49600000000000
H            3.86680000000000       -5.05860000000000        1.73230000000000
H            2.62410000000000       -6.20980000000000        2.20940000000000
H            3.23870000000000       -5.04470000000000        3.37470000000000
H           -5.38190000000000       -0.16370000000000        2.20730000000000
H           -4.61600000000000       -0.16630000000000        3.80640000000000
H           -4.72640000000000       -1.68040000000000        2.86100000000000
H           -4.39550000000000       -4.04630000000000        0.66260000000000
H           -4.75030000000000       -3.24330000000000       -0.88150000000000
H           -5.36980000000000       -2.56340000000000        0.65700000000000
H           -1.58480000000000        5.83400000000000       -1.68180000000000
H           -1.90250000000000        4.89960000000000       -3.13900000000000
H           -0.24700000000000        5.26890000000000       -2.67990000000000
H           -0.52250000000000        3.83290000000000       -0.60820000000000
H           -2.15030000000000        3.47570000000000       -1.06860000000000
H           -1.24080000000000        2.41570000000000       -3.23180000000000
H            0.35670000000000        2.71160000000000       -2.63760000000000
C            1.69310000000000        2.21840000000000        1.56750000000000
C            3.40590000000000       -2.40400000000000        7.10340000000000
C           -2.53850000000000        1.74490000000000        4.35640000000000
C           -1.55860000000000        1.14200000000000        5.13570000000000
C           -0.18390000000000        1.24500000000000        4.72000000000000
C            0.11130000000000        1.79050000000000        3.44060000000000
C           -0.92720000000000        2.35080000000000        2.69610000000000
C           -2.22490000000000        2.30640000000000        3.13570000000000
C            0.88460000000000        0.66040000000000        5.48270000000000
C            2.07460000000000        0.29650000000000        4.80630000000000
C            2.35930000000000        0.85110000000000        3.52790000000000
N            1.39690000000000        1.65000000000000        2.89830000000000
C            0.78900000000000        0.32360000000000        6.87910000000000
C            1.53600000000000       -0.78690000000000        7.36370000000000
N            2.62360000000000       -1.25250000000000        6.61290000000000
C            2.97330000000000       -0.63370000000000        5.40470000000000
C            4.14970000000000       -0.93880000000000        4.72940000000000
C            4.45100000000000       -0.35080000000000        3.52120000000000
C            3.57990000000000        0.54130000000000        2.93430000000000
C           -0.00840000000000        1.08320000000000        7.80490000000000
C           -0.30410000000000        0.50360000000000        9.03240000000000
C            0.23790000000000       -0.71550000000000        9.39130000000000
C            1.17760000000000       -1.33330000000000        8.59870000000000
O           -0.41340000000000        2.36110000000000        7.43590000000000
O           -1.88370000000000        0.33270000000000        6.22250000000000
S           -3.54780000000000        2.88310000000000        2.05120000000000
S           -0.29980000000000       -1.52290000000000       10.91280000000000
S            5.97890000000000       -0.75650000000000        2.64510000000000
O            5.32730000000000       -1.49830000000000        1.43720000000000
O            6.44210000000000       -2.02880000000000        3.65230000000000
C            6.00320000000000       -3.26250000000000        3.19070000000000
O           -2.71260000000000        3.74640000000000        1.06750000000000
O           -4.17420000000000        4.05580000000000        3.07400000000000
C           -3.27360000000000        5.09010000000000        3.29590000000000
O           -1.69570000000000       -0.85180000000000       11.05240000000000
O           -0.70000000000000       -2.99620000000000       10.20530000000000
C           -1.86330000000000       -2.91680000000000        9.44870000000000
H           -3.57010000000000        1.70810000000000        4.65150000000000
H           -0.75230000000000        2.80000000000000        1.73780000000000
H           -0.99510000000000        0.96930000000000        9.71030000000000
H            1.58290000000000       -2.27220000000000        8.92780000000000
H            4.85240000000000       -1.64260000000000        5.13040000000000
H            3.87140000000000        0.98040000000000        1.99910000000000
C            2.90770000000000       -3.70940000000000        6.50330000000000
C            3.69460000000000       -4.92000000000000        6.97330000000000
C            2.25960000000000        3.62520000000000        1.63310000000000
C            2.67630000000000        4.14600000000000        0.26570000000000
C           -1.13950000000000        3.05860000000000        8.41800000000000
C           -3.19660000000000        0.46090000000000        6.71700000000000
H           -3.76430000000000        5.86860000000000        3.88640000000000
H           -2.96220000000000        5.49950000000000        2.32990000000000
H           -2.40160000000000        4.71420000000000        3.83790000000000
H           -2.05810000000000       -3.88830000000000        8.98480000000000
H           -1.74930000000000       -2.15790000000000        8.67030000000000
H           -2.69140000000000       -2.64000000000000       10.10850000000000
H            6.40510000000000       -4.05330000000000        3.82960000000000
H            6.35220000000000       -3.39860000000000        2.16290000000000
H            4.91250000000000       -3.28770000000000        3.21120000000000
H            3.36710000000000       -2.43720000000000        8.19400000000000
H            4.46420000000000       -2.25190000000000        6.88370000000000
H            2.94150000000000       -3.63400000000000        5.40970000000000
H            1.84360000000000       -3.82960000000000        6.74280000000000
H            4.74950000000000       -4.83090000000000        6.70960000000000
H            3.32120000000000       -5.84620000000000        6.53220000000000
H            3.64030000000000       -5.02760000000000        8.05760000000000
H           -1.38420000000000        4.04710000000000        8.02810000000000
H           -0.53240000000000        3.17020000000000        9.31730000000000
H           -2.06480000000000        2.52790000000000        8.64370000000000
H           -3.25490000000000       -0.06950000000000        7.66840000000000
H           -3.90640000000000        0.01350000000000        6.02270000000000
H           -3.43080000000000        1.51310000000000        6.88050000000000
H            3.09290000000000        5.15320000000000        0.31970000000000
H            1.82950000000000        4.17710000000000       -0.42050000000000
H            3.42980000000000        3.50240000000000       -0.19180000000000
H            3.11500000000000        3.63270000000000        2.32040000000000
H            1.51950000000000        4.29220000000000        2.09280000000000
H            0.80060000000000        2.18590000000000        0.94120000000000
H            2.38980000000000        1.56290000000000        1.04810000000000
156
 energy: -260.521558001154 gnorm: 0.188640181544 xtb: 6.7.1 (edcfbbe)
C           -0.66896467172073        2.51360821387869       -2.30341086979205
C            2.33072051330530       -2.72676527934983        2.04491848790805
C           -4.47704327471474       -0.57086797583442       -0.95999715617078
C           -3.36420476312235       -1.08020640894642       -0.30865801389935
C           -2.14156872786440       -0.34033959984821       -0.34004379530286
C           -2.00563930615710        0.72361260204154       -1.26867850120806
C           -3.14768220880200        1.19305426540940       -1.91278201337459
C           -4.36498414827961        0.58509932535027       -1.71518100648417
C           -1.01666572721270       -0.66402626923959        0.48696303227374
C            0.27015736699706       -0.34404707930224       -0.02248754650856
C            0.39399862970607        0.61203953459013       -1.07023907298716
N           -0.74844986353296        1.25846370998771       -1.54098812496792
C           -1.09526570709103       -1.20088106027814        1.81101529685691
C            0.08237823439089       -1.76386124069089        2.37424710709528
N            1.26945329091191       -1.79643347760546        1.63883553820474
C            1.42543828523696       -0.95759482570562        0.53669220378736
C            2.67385369272291       -0.65009438000666        0.00312140681871
C            2.77797433661724        0.27457096441885       -1.02071429152839
C            1.66655490838679        0.90220438575790       -1.54722915223791
C           -2.26043270257071       -1.07921807441178        2.62996118325164
C           -2.25316365002135       -1.61886631098321        3.90588196895206
C           -1.09949473909277       -2.16081803228501        4.43211697861395
C            0.05673177648471       -2.23132740062477        3.68614084598968
O           -3.33710382947787       -0.33369498587309        2.18056142258611
O           -3.35666928663765       -2.31023596774734        0.31603997321881
S           -5.82137754481182        1.33923587184625       -2.47661345215496
S           -1.06475534241934       -2.66156146651417        6.16381510816532
S            4.41596459288171        0.73926782141016       -1.63302533431957
O            4.09553004848304        2.03563256048911       -2.35151846295964
O            4.54097893333295       -0.38992393911804       -2.86948519726512
C            3.69067701941816       -0.10949297600800       -3.93944328966961
O           -5.20503790576381        2.52779658549131       -3.18649286374552
O           -6.46996207491921        1.99496777355110       -1.07055199510502
C           -5.73679540841214        3.10182087393233       -0.63329207100737
O           -2.47786582434166       -3.16349472511994        6.37241075022540
O           -0.16389200759676       -4.06285855737597        5.94909609870984
C           -0.90506035024897       -5.05599386544568        5.30564365382588
H           -5.43819401697407       -1.05237780397641       -0.88898846678835
H           -3.12445788527042        2.04548609524507       -2.56781094664002
H           -3.12104776118613       -1.57749170987779        4.54002825598263
H            0.93890583210688       -2.63027660434752        4.15447650425730
H            3.58325005408968       -1.05199579642682        0.41497337475325
H            1.83451922252132        1.63318552174872       -2.31812780835907
C            1.88344080128260       -4.18198090482102        1.90717252718117
C            2.96080139009066       -5.17280688537573        2.32753133459107
C           -1.16603362332089        3.70383920949223       -1.48281930442842
C           -1.22392228673051        4.99130365004292       -2.29185724478015
C           -4.57569219683064       -0.60332871358104        2.80388827186074
C           -4.53353191727842       -3.07347260820099        0.17693376388286
H           -6.24130423216210        3.53605767276410        0.22790786279926
H           -5.67620967998030        3.83602178763620       -1.44198359827761
H           -4.72447090243559        2.79553778691599       -0.35438876946568
H           -0.30614674277782       -5.96422711769953        5.24804878452678
H           -1.17804545342651       -4.72377718390247        4.29928086116987
H           -1.81839157897388       -5.24294998371574        5.87721818282777
H            3.95204223620986       -0.76265102771236       -4.77042499181014
H            3.81691802210775        0.93746629358560       -4.23423825701620
H            2.65035731834934       -0.28317456353108       -3.64725325312789
H            2.63088482867252       -2.50419030769643        3.07396251283651
H            3.21717910918413       -2.56868970940656        1.43165206503189
H            1.60002823097255       -4.35989151016043        0.86513837079074
H            0.98069981305908       -4.34303046758314        2.50331578880952
H            3.86291102158108       -5.05217016843803        1.72897993323721
H            2.61666814279709       -6.19916923223422        2.20593882160453
H            3.23243442547980       -5.04057420324468        3.37457668548215
H           -5.36283683468328       -0.15723600217234        2.19429096859995
H           -4.62159740955047       -0.16618922760931        3.80402202695296
H           -4.73674527353204       -1.68160118167845        2.86967401635264
H           -4.37231368712981       -4.03431974640184        0.66660479834418
H           -4.75539484182175       -3.24749523807409       -0.88005020586227
H           -5.37913483387021       -2.57281695970262        0.65557948589256
H           -1.58144477828044        5.81699585288525       -1.67791467058266
H           -1.90373163672374        4.89092924228206       -3.13714739827912
H           -0.24210619712305        5.26265366299811       -2.67981645149591
H           -0.51437453318134        3.83874702750472       -0.61437855901435
H           -2.15372915780098        3.48332824809797       -1.07249345333044
H           -1.25049847301880        2.40996579641359       -3.22476118820840
H            0.35715691405767        2.69983795771507       -2.61991102563775
C            1.69298780282274        2.21628569837539        1.58079143664098
C            3.39984450305893       -2.39323310078647        7.09861557038497
C           -2.53813701167677        1.73093488444456        4.35508418487733
C           -1.55353391027963        1.13913093698673        5.12954536708118
C           -0.18574752924695        1.22911251595183        4.71848784280080
C            0.11294351564857        1.76865184112067        3.43640827113676
C           -0.91678155175331        2.33973748524604        2.69103781968075
C           -2.21388280596776        2.30949690636303        3.14294999947243
C            0.87859920581558        0.65668734825686        5.48580906114730
C            2.06610933725145        0.29118718964895        4.80506620323679
C            2.34931600823414        0.84744885830209        3.52640057634210
N            1.39739013190343        1.64890301083018        2.90265648158090
C            0.79397623381277        0.33032807775267        6.87945616415004
C            1.54353670054923       -0.77702333516434        7.36169394830797
N            2.61704975246667       -1.25229405765013        6.61016186945631
C            2.96265350540879       -0.63586040380538        5.40732760053788
C            4.14399860644349       -0.93899490016126        4.74157237895095
C            4.44459682233517       -0.33779916423651        3.53572381343893
C            3.57607520736277        0.55410546972861        2.93650911068371
C           -0.00751538871681        1.07290186781638        7.79922542463217
C           -0.29874235300222        0.51075133829147        9.03087043006439
C            0.24032984487087       -0.71147167910824        9.38062319534251
C            1.18846681150707       -1.33235153428797        8.59173553354457
O           -0.41391354749186        2.33643108791688        7.43336674517935
O           -1.87003629312540        0.35160206735632        6.21950917891943
S           -3.52682151801984        2.89726290627624        2.05250012637845
S           -0.32685331981325       -1.51261817088049       10.89849402470655
S            5.95550327248197       -0.76862380967501        2.63977711186497
O            5.35458236006969       -1.46172860564800        1.42605864165829
O            6.45999642866086       -2.02708082337355        3.63808499530551
C            6.00908854502274       -3.27148191319969        3.19015943108680
O           -2.74057560131732        3.71000059516177        1.04593161579202
O           -4.17194691454580        4.05041485832960        3.08292427036646
C           -3.27602252909031        5.09899482706720        3.30320494530392
O           -1.66955380497816       -0.83925257339912       11.09588784784324
O           -0.69693981835467       -2.99507628007584       10.20502119201021
C           -1.86862812469719       -2.92323273092345        9.44658956013799
H           -3.57254896158866        1.70964672207506        4.65289514750289
H           -0.75045995623589        2.80293070126937        1.73577354174920
H           -0.99075206474868        0.96948269215784        9.71609857242928
H            1.59129721970404       -2.27208116650923        8.92735584300559
H            4.85147172564678       -1.64126428226073        5.14263038603492
H            3.87334283853863        0.98618302810298        1.99816876595795
C            2.90283823413588       -3.70692377906512        6.49960652008811
C            3.69834825457369       -4.91393985353314        6.97535649654812
C            2.26018116202720        3.63015882416179        1.64427484022101
C            2.67371833212697        4.13971062092330        0.26798253368590
C           -1.13621933273148        3.05064086078976        8.41222415375021
C           -3.18706673119016        0.46332132323402        6.71590019048865
H           -3.77701837442147        5.86880217118053        3.88796045148970
H           -2.95738948783858        5.50813966182317        2.33939848589876
H           -2.39808837887436        4.73142414730109        3.84445142129912
H           -2.05103508285691       -3.89361555091395        8.98972626396196
H           -1.76372844303711       -2.16804945764915        8.66234997565032
H           -2.70346428174391       -2.64700524660057       10.09660160481312
H            6.41820255394722       -4.04618174519939        3.83719574087646
H            6.34397976765696       -3.42652372739793        2.16192822820898
H            4.91758838456106       -3.30463914325004        3.21442705884102
H            3.35224395190453       -2.42834860758270        8.18870760817729
H            4.45759188962081       -2.24266030697715        6.86961019351065
H            2.95223146456802       -3.63687277013683        5.40808759666435
H            1.84627238321860       -3.83460825659658        6.74937512960012
H            4.75097069267581       -4.82459674123281        6.70759128431299
H            3.31764398889473       -5.83276960122390        6.53082085503057
H            3.63712432679207       -5.02093794298383        8.05754170182467
H           -1.37057474338335        4.03579724064691        8.00752119381493
H           -0.53742742883157        3.17379083509782        9.31912636087716
H           -2.06959729080150        2.53610279370309        8.65316394951951
H           -3.23184811979454       -0.07402814661033        7.66329956158686
H           -3.90843384570304        0.01150901742698        6.03041093529033
H           -3.44273931822261        1.51237402403031        6.88405913172141
H            3.08731455479201        5.14522842216710        0.33050356598517
H            1.82404427938953        4.17453722008371       -0.41145680757409
H            3.42694567189611        3.49754386195554       -0.18763738944256
H            3.12293691225372        3.63336472770781        2.31810233691261
H            1.51487721448538        4.29778591646811        2.08774463927855
H            0.79627817386348        2.19280321249817        0.96068479021580
H            2.39506129851858        1.56548007447372        1.06361671968894
156
 energy: -260.550010850667 gnorm: 0.032897727985 xtb: 6.7.1 (edcfbbe)
C           -0.67166698525536        2.50009264753942       -2.29622534472807
C            2.31621769320074       -2.71865839035608        2.03942094692314
C           -4.47798317557228       -0.57286791395916       -0.96616516411244
C           -3.36190330536802       -1.07194977441984       -0.31617122515740
C           -2.13912000957634       -0.34895085203836       -0.34731083850677
C           -1.99639807552000        0.71616256459502       -1.27244586208752
C           -3.13543288303791        1.19615589317275       -1.91563908935398
C           -4.35660516103736        0.59015696519336       -1.71196747515040
C           -1.02377829726682       -0.66433225132092        0.48831908711449
C            0.26615453071214       -0.34125741014694       -0.01875694354338
C            0.38558438275530        0.61486547783637       -1.06522912320314
N           -0.74887406665241        1.26021255816444       -1.52911707262731
C           -1.09508284677911       -1.18777970768264        1.81229010136329
C            0.08896174626624       -1.74747079059568        2.37353303530519
N            1.26195611374420       -1.80268933504405        1.62748834052220
C            1.42035921859879       -0.95449187426948        0.54084259350308
C            2.67310012357981       -0.64937576707757        0.01070449798957
C            2.76620162375178        0.26726147570390       -1.02498455433343
C            1.65632550235351        0.90099156799220       -1.55295494565912
C           -2.25067069175406       -1.07591837079916        2.63163288778489
C           -2.25051138005214       -1.61110018960841        3.90548888560370
C           -1.09756296853780       -2.16465512113354        4.42306866243499
C            0.07207081270731       -2.21383240884087        3.68508671234376
O           -3.32453388056569       -0.35661096516023        2.17296907917812
O           -3.35921682163548       -2.28676154318481        0.31031522407812
S           -5.80290238947110        1.36723292258849       -2.49034117726343
S           -1.10354374794659       -2.66483899313651        6.15914615821365
S            4.40081908071466        0.76355773590702       -1.64875248739170
O            4.10966368686553        2.02047986540134       -2.31518083604730
O            4.53399894453455       -0.38809607531222       -2.85686557219280
C            3.68871221121209       -0.11785809508233       -3.94528511138153
O           -5.22315346198785        2.48647884828408       -3.19831350568894
O           -6.46087546343328        1.98388037984647       -1.07365413742547
C           -5.73593247984439        3.10544971700986       -0.62522559035635
O           -2.46262321256539       -3.11957800502259        6.37654960836485
O           -0.17528782700189       -4.05277158064422        5.94707579378516
C           -0.90627137071927       -5.06464652339959        5.30204873854110
H           -5.44339775463139       -1.04800842670957       -0.89801804981062
H           -3.12770601231610        2.04651393368799       -2.57433723190355
H           -3.11903925339416       -1.59054838306951        4.54218069039498
H            0.94468187902343       -2.62874065156811        4.15817395146196
H            3.58888431053958       -1.05441632116656        0.40397726484789
H            1.84000217900373        1.63505437827497       -2.31978434662513
C            1.87132499262042       -4.18261208798704        1.90343726541589
C            2.95958806391041       -5.16834644833346        2.32676824892898
C           -1.16701863710777        3.69955543741943       -1.47716682290798
C           -1.22046768530632        4.98541723202911       -2.29723789741289
C           -4.56784888758098       -0.60456606843320        2.79740769334832
C           -4.52693180584190       -3.06730932304777        0.17866992091934
H           -6.25365338873373        3.52810714358113        0.22926605941730
H           -5.67211258451181        3.84425341654746       -1.42982366288232
H           -4.72167396086187        2.81115462970843       -0.33864248145597
H           -0.29429248090262       -5.96067625328898        5.25756514413061
H           -1.17848128531658       -4.74149548815478        4.29109043105650
H           -1.82354128996678       -5.25789406295706        5.86473188564010
H            3.96615150794640       -0.77058150292602       -4.76675143134843
H            3.80615121120040        0.93009817154362       -4.24494652684807
H            2.64324431555531       -0.29312012790479       -3.66619874303176
H            2.61632832139787       -2.50326990768314        3.07221463155352
H            3.19817816041283       -2.56821067800984        1.42117952306485
H            1.60511924421945       -4.36220453615248        0.86140948575035
H            0.98029242425415       -4.34790946932525        2.50849656538189
H            3.85710348285341       -5.04453770647006        1.72570430249285
H            2.60913455653425       -6.19013452510485        2.20234986388451
H            3.22478512907226       -5.03534331744257        3.37378946621805
H           -5.33939845521344       -0.14732638279821        2.17681297311314
H           -4.62441992167540       -0.16353209971699        3.79897657073635
H           -4.74874939060228       -1.68107297104514        2.87701593992824
H           -4.34200028770443       -4.02134195566733        0.67271979459562