156
 energy: -260.471138369067 gnorm: 0.290196240132 xtb: 6.7.1 (43a0e4e5b5d943adc66b4aa6563d39c792f6153b)
C            0.52180000000000        4.16220000000000       -1.97460000000000
C            1.47070000000000       -2.96860000000000        0.00630000000000
C           -4.13650000000000        2.16480000000000       -1.64210000000000
C           -3.28760000000000        1.10770000000000       -1.33300000000000
C           -1.90650000000000        1.40440000000000       -1.05820000000000
C           -1.38630000000000        2.67000000000000       -1.44470000000000
C           -2.29060000000000        3.68740000000000       -1.74890000000000
C           -3.64100000000000        3.44620000000000       -1.80490000000000
C           -1.00690000000000        0.43630000000000       -0.48860000000000
C            0.36750000000000        0.54780000000000       -0.83420000000000
C            0.87180000000000        1.76540000000000       -1.37380000000000
N           -0.00180000000000        2.84160000000000       -1.57280000000000
C           -1.38090000000000       -0.55070000000000        0.49080000000000
C           -0.46660000000000       -1.60520000000000        0.75540000000000
N            0.74210000000000       -1.68300000000000        0.04560000000000
C            1.24260000000000       -0.54990000000000       -0.60870000000000
C            2.58050000000000       -0.42280000000000       -0.96600000000000
C            3.07270000000000        0.77510000000000       -1.43750000000000
C            2.23640000000000        1.85400000000000       -1.63070000000000
C           -2.55070000000000       -0.42580000000000        1.31950000000000
C           -2.78580000000000       -1.39240000000000        2.29220000000000
C           -1.86640000000000       -2.38720000000000        2.54950000000000
C           -0.73680000000000       -2.50640000000000        1.78330000000000
O           -3.36170000000000        0.70610000000000        1.22940000000000
O           -3.68300000000000       -0.22650000000000       -1.32870000000000
S           -4.76950000000000        4.82340000000000       -2.11000000000000
S           -2.07240000000000       -3.49720000000000        3.95520000000000
S            4.85790000000000        0.92680000000000       -1.68710000000000
O            4.97130000000000        2.46600000000000       -1.50680000000000
O            4.88010000000000        0.77430000000000       -3.36430000000000
C            4.40560000000000        1.89550000000000       -4.03330000000000
O           -3.70660000000000        5.94430000000000       -2.30910000000000
O           -5.20920000000000        5.05360000000000       -0.49810000000000
C           -4.29590000000000        5.83990000000000        0.19450000000000
O           -3.62330000000000       -3.59730000000000        3.98180000000000
O           -1.64500000000000       -4.91310000000000        3.15740000000000
C           -2.61120000000000       -5.29770000000000        2.23570000000000
H           -5.19130000000000        2.00090000000000       -1.76170000000000
H           -1.95870000000000        4.69450000000000       -1.91910000000000
H           -3.64680000000000       -1.32850000000000        2.92980000000000
H           -0.03070000000000       -3.27540000000000        2.03330000000000
H            3.28410000000000       -1.20830000000000       -0.76120000000000
H            2.68670000000000        2.78520000000000       -1.91570000000000
C            0.64600000000000       -4.07020000000000       -0.64690000000000
C            1.36650000000000       -5.40670000000000       -0.69350000000000
C            0.76310000000000        5.05620000000000       -0.76820000000000
C            1.18600000000000        6.46460000000000       -1.14530000000000
C           -4.68410000000000        0.53360000000000        1.68850000000000
C           -4.99800000000000       -0.45830000000000       -1.77170000000000
H           -4.60210000000000        5.90990000000000        1.24200000000000
H           -4.27540000000000        6.83450000000000       -0.26010000000000
H           -3.30010000000000        5.39380000000000        0.12740000000000
H           -2.31920000000000       -6.24870000000000        1.78230000000000
H           -2.70950000000000       -4.53450000000000        1.45900000000000
H           -3.56640000000000       -5.41370000000000        2.75700000000000
H            4.68240000000000        1.81800000000000       -5.08790000000000
H            4.86110000000000        2.79040000000000       -3.59960000000000
H            3.31790000000000        1.94450000000000       -3.94960000000000
H            1.75980000000000       -3.23740000000000        1.02430000000000
H            2.40540000000000       -2.85210000000000       -0.54330000000000
H            0.37080000000000       -3.74970000000000       -1.65990000000000
H           -0.30970000000000       -4.17520000000000       -0.11950000000000
H            2.30450000000000       -5.32930000000000       -1.24510000000000
H            0.76470000000000       -6.17860000000000       -1.17690000000000
H            1.60730000000000       -5.76090000000000        0.30980000000000
H           -5.29120000000000        1.35490000000000        1.30600000000000
H           -4.71220000000000        0.55230000000000        2.77670000000000
H           -5.08320000000000       -0.41000000000000        1.31460000000000
H           -5.17090000000000       -1.53500000000000       -1.78670000000000
H           -5.12390000000000       -0.06430000000000       -2.78090000000000
H           -5.71000000000000        0.00500000000000       -1.08860000000000
H            1.35780000000000        7.08830000000000       -0.26600000000000
H            0.42250000000000        6.95500000000000       -1.75110000000000
H            2.10730000000000        6.45630000000000       -1.72950000000000
H            1.51800000000000        4.59080000000000       -0.12300000000000
H           -0.14910000000000        5.08460000000000       -0.15900000000000
H           -0.17780000000000        4.62890000000000       -2.67150000000000
H            1.43360000000000        4.04360000000000       -2.56230000000000
C            2.61180000000000        2.11650000000000        1.71660000000000
C            2.20740000000000       -4.62030000000000        4.82140000000000
C           -2.08580000000000        1.69890000000000        3.75090000000000
C           -1.36840000000000        0.64420000000000        4.30240000000000
C            0.01910000000000        0.49850000000000        3.95260000000000
C            0.57340000000000        1.33720000000000        2.94760000000000
C           -0.23110000000000        2.32040000000000        2.37090000000000
C           -1.53430000000000        2.48950000000000        2.76370000000000
C            0.81890000000000       -0.58520000000000        4.45550000000000
C            1.91560000000000       -1.02770000000000        3.67540000000000
C            2.47070000000000       -0.16250000000000        2.69530000000000
N            1.87340000000000        1.08530000000000        2.47470000000000
C            0.51040000000000       -1.33460000000000        5.64350000000000
C            0.87330000000000       -2.70990000000000        5.69290000000000
N            1.83840000000000       -3.19170000000000        4.79620000000000
C            2.45360000000000       -2.32990000000000        3.87670000000000
C            3.54830000000000       -2.71110000000000        3.10770000000000
C            4.10780000000000       -1.85390000000000        2.18440000000000
C            3.58260000000000       -0.59520000000000        1.98210000000000
C           -0.11820000000000       -0.73280000000000        6.78830000000000
C           -0.66000000000000       -1.57850000000000        7.74700000000000
C           -0.51080000000000       -2.94850000000000        7.65040000000000
C            0.27820000000000       -3.50950000000000        6.67200000000000
O           -0.12360000000000        0.65430000000000        6.88680000000000
O           -1.99220000000000       -0.33980000000000        5.06790000000000
S           -2.58380000000000        3.67510000000000        1.90000000000000
S           -1.37870000000000       -4.02450000000000        8.81010000000000
S            5.53550000000000       -2.36220000000000        1.19880000000000
O            4.83330000000000       -2.37100000000000       -0.19360000000000
O            5.50080000000000       -3.99100000000000        1.63780000000000
C            4.76510000000000       -4.76780000000000        0.75240000000000
O           -1.49090000000000        4.63260000000000        1.35650000000000
O           -3.12010000000000        4.52140000000000        3.24520000000000
C           -2.08760000000000        5.19900000000000        3.88260000000000
O           -2.49130000000000       -3.03560000000000        9.26040000000000
O           -2.18580000000000       -4.93250000000000        7.64590000000000
C           -3.19530000000000       -4.20890000000000        7.02200000000000
H           -3.11950000000000        1.84540000000000        4.00130000000000
H            0.10750000000000        2.89570000000000        1.53040000000000
H           -1.24600000000000       -1.18810000000000        8.55820000000000
H            0.37890000000000       -4.57870000000000        6.65030000000000
H            3.98420000000000       -3.68550000000000        3.21090000000000
H            4.02530000000000        0.03230000000000        1.23120000000000
C            1.39810000000000       -5.42030000000000        3.81280000000000
C            1.74440000000000       -6.89840000000000        3.80750000000000
C            3.87620000000000        2.59190000000000        2.41660000000000
C            4.66560000000000        3.57900000000000        1.57040000000000
C           -0.68600000000000        1.16240000000000        8.07170000000000
C           -3.23650000000000        0.01620000000000        5.62470000000000
H           -2.50540000000000        5.81000000000000        4.68740000000000
H           -1.58470000000000        5.84260000000000        3.15440000000000
H           -1.37420000000000        4.48270000000000        4.29880000000000
H           -3.66620000000000       -4.83360000000000        6.25690000000000
H           -2.77580000000000       -3.31470000000000        6.55370000000000
H           -3.93230000000000       -3.91470000000000        7.77550000000000
H            4.85730000000000       -5.82120000000000        1.02910000000000
H            5.15290000000000       -4.61160000000000       -0.25850000000000
H            3.71740000000000       -4.46580000000000        0.79140000000000
H            2.07420000000000       -5.01660000000000        5.82980000000000
H            3.27760000000000       -4.72810000000000        4.63610000000000
H            1.54840000000000       -4.99160000000000        2.81470000000000
H            0.32980000000000       -5.28090000000000        4.02080000000000
H            2.79620000000000       -7.05580000000000        3.56420000000000
H            1.14990000000000       -7.45360000000000        3.07950000000000
H            1.56790000000000       -7.34700000000000        4.78610000000000
H           -0.60470000000000        2.24970000000000        8.05290000000000
H           -0.13990000000000        0.77910000000000        8.93450000000000
H           -1.73930000000000        0.88710000000000        8.13100000000000
H           -3.49860000000000       -0.72680000000000        6.37890000000000
H           -4.00590000000000        0.02050000000000        4.85420000000000
H           -3.16360000000000        0.99530000000000        6.09910000000000
H            5.57870000000000        3.90920000000000        2.06880000000000
H            4.07350000000000        4.46720000000000        1.34600000000000
H            4.95300000000000        3.13900000000000        0.61370000000000
H            4.50200000000000        1.72920000000000        2.67460000000000
H            3.60560000000000        3.03960000000000        3.38130000000000
H            1.96970000000000        2.97700000000000        1.53080000000000
H            2.84990000000000        1.71250000000000        0.73350000000000
156
 energy: -260.523602694732 gnorm: 0.186747977238 xtb: 6.7.1 (43a0e4e5b5d943adc66b4aa6563d39c792f6153b)
C            0.51572215770423        4.15219578459918       -1.97085912356521
C            1.46079498180050       -2.95851854876151        0.00602034128768
C           -4.13439245367821        2.15752418892882       -1.64651242171250
C           -3.28134169294298        1.11352235304190       -1.32674159547199
C           -1.90447342241127        1.39706248945887       -1.06817390833947
C           -1.37966950550277        2.65892468592538       -1.45523946874815
C           -2.27662713814682        3.68332551855085       -1.75010449000878
C           -3.62822768129939        3.43768503155428       -1.80111307771581
C           -1.01307605783977        0.43675001211118       -0.48880234490607
C            0.36231808403693        0.54911097989005       -0.82963647155239
C            0.86231030079190        1.76678023464960       -1.37119975704851
N           -0.00387781714438        2.83814178136899       -1.57012419673747
C           -1.37683805449383       -0.54086498397117        0.49397125287871
C           -0.45664719087058       -1.59259714146708        0.75762475422947
N            0.73544520511361       -1.68190502177405        0.03613681316341
C            1.23642940765504       -0.54799142155199       -0.60002202609854
C            2.57479054495654       -0.42869848896555       -0.95657700459838
C            3.05662526403073        0.77308998555324       -1.44010290936181
C            2.22605283246960        1.86138320667377       -1.62890673856424
C           -2.53889891624730       -0.42697281911774        1.31981277479143
C           -2.77889656438946       -1.38120457135026        2.29591085518622
C           -1.86312308374820       -2.38217488427078        2.54152957235798
C           -0.71735354259130       -2.49494177196128        1.78552051803175
O           -3.35280053254051        0.68819289708649        1.21313169442283
O           -3.67658386613336       -0.20823634260306       -1.32004597340194
S           -4.73870057824694        4.83024310090910       -2.10040247754743
S           -2.10245499522318       -3.49123555178804        3.94223018126629
S            4.83883320618514        0.95069692872391       -1.69156079064138
O            5.00370876507319        2.44386214344367       -1.47700060150216
O            4.87942630429573        0.77434580634179       -3.36183174923542
C            4.40719810802159        1.89549424103116       -4.04474694602723
O           -3.74951253570263        5.95061646505383       -2.35610623581313
O           -5.21155155805998        5.05331534451620       -0.49956577967686
C           -4.29747612358957        5.84612861064868        0.20185283581792
O           -3.61274519594412       -3.57518574544461        4.01660440054030
O           -1.65117533562237       -4.90679129442283        3.15669522228102
C           -2.61441518368657       -5.30636007051521        2.22854249211106
H           -5.19305399181938        1.99985380127313       -1.76905127890920
H           -1.95422526028859        4.69443692982932       -1.92486444061748
H           -3.64988673815945       -1.33554028046499        2.92599337881587
H           -0.02078254165647       -3.27655360858653        2.03107221000994
H            3.28325141336528       -1.21665766753992       -0.77260201515642
H            2.68631445524307        2.79098672798620       -1.91141657376529
C            0.63505473845662       -4.06600819645608       -0.64978584532753
C            1.36822427438242       -5.40069894755091       -0.69168120247130
C            0.76054180785529        5.05179820381733       -0.76131845896611
C            1.18525917633486        6.46000496272198       -1.15174763644243
C           -4.67599530369582        0.53127509913309        1.68323047052285
C           -4.99041008419136       -0.45395770940519       -1.76752883269675
H           -4.61513120034337        5.90434954572986        1.24167682449897
H           -4.26843166178473        6.84420709784968       -0.24261606212879
H           -3.29796772581524        5.40842248997852        0.14408798995273
H           -2.30876405367122       -6.25462459314866        1.78845591935109
H           -2.71637008811432       -4.54674873508183        1.44722244632143
H           -3.57418855052532       -5.42037954279096        2.74006868751318
H            4.69523389375045        1.81045447632324       -5.09133911973291
H            4.85260976393820        2.79602690172669       -3.60866723971906
H            3.31733122275240        1.95050836413486       -3.96785000379110
H            1.74694704076031       -3.23450345354888        1.02669834586732
H            2.39041239497931       -2.83921984434948       -0.55007279936191
H            0.37742604505812       -3.75079307297098       -1.66567235011933
H           -0.31165477096251       -4.18230049498786       -0.11497612453435
H            2.30304178199856       -5.32091823060366       -1.24530700765679
H            0.76079694960539       -6.16489599636282       -1.17531353935936
H            1.60268304020790       -5.75480271918616        0.31190314020587
H           -5.26979129023033        1.36120157381706        1.29738062088968
H           -4.71740552993885        0.55466357744495        2.77492051095553
H           -5.09422004466691       -0.41115460244820        1.32252664871289
H           -5.14641409843124       -1.53314820091826       -1.77808950584885
H           -5.12982027061567       -0.06657236481645       -2.78108270636206
H           -5.72113679564257        0.00025847632886       -1.09347269494236
H            1.35344842936665        7.07428714599527       -0.26799147916930
H            0.41762769189192        6.94776622832604       -1.75114741615599
H            2.10839214678867        6.44936600518264       -1.73125733807825
H            1.52933198435021        4.59415839018960       -0.13009818805356
H           -0.15176131349592        5.09108660372602       -0.15977022386432
H           -0.18998261364962        4.62148111655052       -2.66049359255205
H            1.43350411811007        4.02924781378805       -2.55000564470742
C            2.61015923114268        2.10514736247183        1.72468065332822
C            2.20481503564951       -4.60760783454378        4.82102754503233
C           -2.08798754973885        1.68659328376767        3.74465853711458
C           -1.36349099587615        0.64183437378200        4.29420953343113
C            0.01529279316293        0.48729917097639        3.94876040991650
C            0.57238193789410        1.32015416839096        2.94001877683921
C           -0.22587048162542        2.30251802014021        2.35687285163050
C           -1.52468426390376        2.48505228606478        2.76757548848024
C            0.81323867086078       -0.58619469209686        4.45978092344710
C            1.90667227433326       -1.02758475199176        3.67493543560432
C            2.46150081306737       -0.15825236135848        2.69757517340778
N            1.87359575439145        1.08526947957963        2.48523900343185
C            0.51810279362051       -1.33013396529205        5.64701639583194
C            0.88367801494004       -2.70289570733147        5.69459415921078
N            1.83194038348287       -3.18902659726667        4.79351319274304
C            2.44133195361076       -2.32925752471059        3.87820501534143
C            3.54115862579832       -2.71244615884261        3.11964045465978
C            4.10001160105335       -1.84565493653389        2.19955472469622
C            3.57899156851036       -0.58281859782384        1.98552641345766
C           -0.11877848798139       -0.74046771936551        6.78023865801054
C           -0.65286401177722       -1.57326593485494        7.74813828108273
C           -0.50611181706654       -2.94216940419806        7.64243390569814
C            0.28933982181075       -3.50984313935515        6.66592779551411
O           -0.12917586674927        0.63301360153861        6.87678803914160
O           -1.97269363357808       -0.32309863761569        5.07250939510476
S           -2.55991521731857        3.68224099686247        1.90320432244415
S           -1.39997750527026       -4.00205578125182        8.80213526419409
S            5.50831173361670       -2.36379206598118        1.18903813752854
O            4.87091389314904       -2.34463715230621       -0.19192754374382
O            5.51817608124005       -3.99027123021311        1.62493535231085
C            4.76752836786684       -4.77825928988724        0.74834437864662
O           -1.51255294851660        4.60961766185292        1.32251497975751
O           -3.11718617706971        4.51057333038558        3.24915590905075
C           -2.08829790511607        5.20377463226341        3.89172870872129
O           -2.46551346987321       -3.04911829058662        9.30438858071831
O           -2.18206630481556       -4.93220618597285        7.64499910474551
C           -3.20244756851982       -4.21192353181422        7.01819656711261
H           -3.12000899538879        1.84921722882415        4.00489836847560
H            0.11438589537520        2.90318040950775        1.53229082668598
H           -1.24222977109028       -1.19161421912619        8.56422391949366
H            0.38594868034477       -4.58150090258242        6.64983865072442
H            3.98310304356901       -3.68689082616180        3.22345299702191
H            4.02924812390691        0.03915412518007        1.23248780647250
C            1.39405590247024       -5.41555081393853        3.81049093154552
C            1.74916395077711       -6.89518642965672        3.81141466503379
C            3.87780258694429        2.58678096814399        2.42820994820337
C            4.65790286633900        3.57513034793980        1.56789977949633
C           -0.68439276715685        1.15582756234645        8.06353763311595
C           -3.22693039872789        0.01691368068448        5.62413258355978
H           -2.51803119106740        5.81059486951188        4.68758813503372
H           -1.57927792691929        5.84568575922715        3.16626951406645
H           -1.36726508030442        4.49494157581617        4.31097353870238
H           -3.66204036171092       -4.84130646886727        6.25908747191990
H           -2.79227797727063       -3.31541280815783        6.54374722657542
H           -3.94442504439134       -3.91258171451384        7.76372940018717
H            4.87109636287024       -5.82273811605741        1.03867718212815
H            5.13638311844122       -4.63374222739731       -0.26980489283875
H            3.71628501652637       -4.48442276333614        0.78782357844660
H            2.06290847905802       -5.00333732315120        5.82843567606620
H            3.27476159152787       -4.71340366238931        4.62640929949253
H            1.55782824316862       -4.99711580130103        2.81206374640051
H            0.32960021224025       -5.28950238877076        4.02546046784551
H            2.79920879146812       -7.05022209000204        3.56439524462879
H            1.15001448327660       -7.44025909480984        3.08304956709189
H            1.56646553899231       -7.34047342243756        4.78839768952290
H           -0.59317528326485        2.24206540870948        8.02922029754071
H           -0.14379295099975        0.78286506020219        8.93799411806213
H           -1.74194086603901        0.89232919535461        8.14270505664400
H           -3.47793398915386       -0.73578134830734        6.37195129496126
H           -4.00880986797946        0.01717479527714        4.86055903802908
H           -3.17654097623096        0.99783338287076        6.10285285894640
H            5.56727021747794        3.89963239558291        2.07212515157460
H            4.06526551178599        4.46299251565726        1.35188083855605
H            4.94457048271251        3.13415225531900        0.61355821464201
H            4.51052515340043        1.72883688366693        2.67163992024126
H            3.60280193426016        3.04836197363517        3.38211705224968
H            1.96756166962129        2.96682699151346        1.55122339783084
H            2.85785386916001        1.70626175638091        0.74023178876282
156
 energy: -260.551794246520 gnorm: 0.031495202751 xtb: 6.7.1 (43a0e4e5b5d943adc66b4aa6563d39c792f6153b)
C            0.50944727470102        4.13926679841219       -1.96799981242812
C            1.44898017009095       -2.94408341421899        0.00496301390117
C           -4.13662197427656        2.15700226362892       -1.65240988739173
C           -3.27667678734097        1.12255173261645       -1.32827441741760
C           -1.90407477234121        1.39171257161293       -1.07927467377317
C           -1.37378845793687        2.65086588252528       -1.46485119182661
C           -2.26613006748751        3.68302308058862       -1.74793803128999
C           -3.62082817125758        3.43647755566823       -1.79221279574619
C           -1.01996464047041        0.43840729256211       -0.48855503163698
C            0.35941691933259        0.55196433592189       -0.82471718104129
C            0.85392686312789        1.76959263682396       -1.36718459690761
N           -0.00635224020109        2.83531301962444       -1.56575418320214
C           -1.37273561113856       -0.52902723634021        0.50004062276029
C           -0.44515662576203       -1.57847937145446        0.76460111089022
N            0.72691074330233       -1.68001905733392        0.02301934262132
C            1.23273128786914       -0.54387043981378       -0.59206619747720
C            2.57295987437502       -0.43166137501521       -0.95008382631286
C            3.04423692112094        0.77193059858563       -1.44601687228138
C            2.21844005270896        1.86886037293595       -1.62630662958131
C           -2.52845041344761       -0.42746312362405        1.32183667083058
C           -2.77459218986846       -1.37574391169450        2.29714659414833
C           -1.86186076645961       -2.38324467158134        2.53176198021998
C           -0.69761815172040       -2.48354362664984        1.79058861021783
O           -3.34539292265794        0.66775781142105        1.19593137753485
O           -3.67179874713054       -0.18587759819484       -1.31473703266989
S           -4.71065272130244        4.85121745688928       -2.10454587530042
S           -2.14178840989526       -3.48437307097720        3.93679191295112
S            4.83212236024956        0.97969403088899       -1.68789521028577
O            5.00845226437403        2.40667856476651       -1.45909180724558
O            4.87598917129191        0.77404538280592       -3.34907196214535
C            4.40764142208252        1.89498969057669       -4.05256360997363
O           -3.78054595263235        5.92238055235754       -2.38200135203735
O           -5.21257379831035        5.05294605052643       -0.51218799615545
C           -4.29880495283045        5.85009139267402        0.20763958165832
O           -3.58646655849069       -3.54731569573141        4.03334926549867
O           -1.65871351050396       -4.89595533402097        3.15767839667889
C           -2.61827829325633       -5.31323199041580        2.22052852195290
H           -5.19670886891612        2.00762133793431       -1.77778741573646
H           -1.95845373292087        4.69815820091142       -1.92846841336249
H           -3.65141804683796       -1.34797925106542        2.92272599614772
H           -0.01403717745291       -3.27707980529992        2.03529201225337
H            3.28898125330198       -1.21696437352227       -0.78789186561092
H            2.69209208394229        2.79375118100530       -1.90550624292624
C            0.62340654928975       -4.06076972612696       -0.65256293287196
C            1.36874462490675       -5.39493089854219       -0.69005444665652
C            0.76005831270269        5.04613829899804       -0.75547719503064
C            1.18402973366737        6.45611369658907       -1.15817279488934
C           -4.66751767430438        0.53106762928461        1.67702286444007
C           -4.98263327497477       -0.45185690542713       -1.76299806124284
H           -4.63121035816254        5.89581920891591        1.24012211139237
H           -4.26489259148306        6.85269204519271       -0.22588515363271
H           -3.29666545351379        5.42032455822710        0.15981181732735
H           -2.29759405627765       -6.25986082639866        1.79656435912662
H           -2.72164815792648       -4.55961093020114        1.43182329024864
H           -3.58300827444520       -5.42783114110984        2.72201771071140
H            4.70995368846390        1.80110606617662       -5.09072089797837
H            4.84413063604904        2.80274183029100       -3.61808925523450
H            3.31548864109103        1.95547047876757       -3.98819928315602
H            1.73421228765231       -3.22881054844087        1.02631232503453
H            2.37187815740932       -2.82843136355438       -0.55944037733078
H            0.38199238180411       -3.75198476681686       -1.67006578098493
H           -0.31385502998234       -4.18797260988949       -0.11213597917362
H            2.30022117914608       -5.31048643091755       -1.24463980487252
H            0.75651783696035       -6.15219848535261       -1.17431752796934
H            1.59722288108326       -5.74662836972997        0.31402356579700
H           -5.24262754968200        1.37135474286335        1.28608854311073
H           -4.71864688585098        0.55953899343587        2.77182038405497
H           -5.10632501870965       -0.40977230559052        1.33004195725083