116
 energy: -22.928061455056 gnorm: 0.329736929581 xtb: 6.6.1 (8d0f1dd)
C           -3.31122850772930        0.79849766164622       -0.92477639677520
C           -2.44380812530352       -0.12270372891954       -0.27661132624697
C           -1.41337090092821        0.39579727573559        0.56335275196199
C           -0.89266158675590        1.65801491088749        0.27377586709581
C           -1.72665675402493        2.51431363229076       -0.49448366572522
C           -2.95444148494349        2.13954154133227       -1.01494489940871
C           -0.74098268209890       -0.43411532818871        1.49825021926784
C            0.56872586496315        0.03782116815119        1.86248088067890
C            1.03782416582094        1.29402317993033        1.50887470833621
N            0.31238977034758        2.07067427098208        0.65193736800696
C           -1.29695700510141       -1.39996043042223        2.41574187746061
C           -0.38243517664656       -2.18060797534842        3.13232615520648
N            0.91308504082021       -1.90366887689689        3.30325166013478
C            1.37712470144904       -0.74872102533751        2.81811050966982
C            2.52149331701875       -0.17739833758153        3.39379298866852
C            2.95849061756259        1.02681208890480        2.95105897606587
C            2.24288949469137        1.78498308775960        2.03503020483770
C           -2.74860936222260       -1.74497937691422        2.38401158947411
C           -3.09416315450955       -2.91614440870436        3.00571134491758
C           -2.16786021984049       -3.77788778654213        3.63251872101904
C           -0.85708937311598       -3.40495313382985        3.68547234358092
O           -3.71994433332149       -0.94984598373544        1.67726658385724
O           -2.55702603277562       -1.47241711578389       -0.57241635275616
C           -3.84297843593025        3.13357444054366       -1.60938954875544
C           -2.68769581069131       -5.03867041417370        4.30484659386931
H           -1.39666850744143        3.51251503834900       -0.76806311868865
H           -4.27662633836220        0.55105838579656       -1.33106614114542
H            2.66329581305412        2.73912661909249        1.72562431984580
H            3.05775395548473       -0.69369546277216        4.16536137542516
H           -0.24710966264510       -4.12034095424229        4.22946223699121
H           -4.11477991332403       -3.04712728052358        3.03244694615357
O           -4.21824883374556        4.03433712717988       -0.87713382485991
O           -4.44510595673734        2.90643496899600       -2.81853501752979
C           -5.44216520282800        3.83300025693726       -3.02488532025093
C            4.23586651889298        1.50004220933226        3.59165660008449
O            5.05927614697201        0.66079890002952        3.91714215179376
O            4.47001334453535        2.86385149488593        3.72605651435371
C            5.79457498613219        3.08584475587818        4.15829123132174
O           -3.82227255313510       -5.27347675879771        4.16636005494405
O           -1.85023202017753       -5.79767454267276        5.06656077253571
C           -2.55119635829503       -6.86252441382958        5.62930343183426
C           -5.07197156564436       -1.42399175670916        1.58830531863830
C           -1.33089900128490       -2.23622472573986       -0.99264499351172
H           -2.54510546830388       -7.76426885143998        4.99136022291012
H           -3.57194749219491       -6.44405511486021        5.74196173723541
H           -2.09133598235598       -7.02043774843818        6.64022264233588
H            5.72707967266424        3.46798026205549        5.10135971236643
H            6.34060091246885        3.78468702308830        3.50069950143490
H            6.17933064298187        2.03010500085905        4.19342358084693
H           -0.91862729772622       -2.57650129080332       -0.01361370304871
H           -0.49769766914251       -1.60651221708571       -1.34094446550576
H           -1.52632419730509       -2.94569707152159       -1.75361447637286
H           -5.11788846557077       -2.41810833635233        1.17520213188926
H           -5.67929807973498       -0.69619639428435        1.04301666067831
H           -5.57598832326623       -1.42383358739762        2.57928294206544
H           -6.13050215934830        3.76035386975488       -2.23272855695873
H           -5.86615610071888        3.45938329385866       -4.02668959924245
H           -5.13479557532099        4.87790991548477       -2.98314551356402
C           -1.38192942069774        3.73616555005018        2.91232598411686
C           -1.84821468128685        2.59982427735607        3.49755545445181
C           -1.05946531454833        2.05730632010638        4.60922730982276
C            0.19893954712228        2.69376791964407        4.86302140881997
C            0.50425395911860        3.94630308659851        4.28768785650746
C           -0.26031777722226        4.46998310053134        3.25072669343212
C           -1.20488993561782        0.74454293276906        5.14851520323437
C           -0.06287609782692        0.02744069315890        5.60930570802864
C            1.19208754369866        0.71421540266195        5.78882868583885
N            1.19428660993148        2.06344359410476        5.62744624321596
C           -2.41361422770794        0.07928500213936        5.25249410304426
C           -2.45851584031083       -1.32662100968547        5.60237876023992
N           -1.29466212405906       -1.98318595734370        5.89916817085159
C           -0.14475655767527       -1.32117560077092        5.98824682881008
C            0.97209270935794       -1.98958449505532        6.53157704134458
C            2.21982707914082       -1.36973967291181        6.68703967237737
C            2.30561929262884       -0.09745313075593        6.26436900324455
C           -3.73018485967715        0.71367583494582        5.25810242262992
C           -4.89964478833448       -0.06184623426677        5.21204641615509
C           -4.82617965800088       -1.39228978090841        5.46901303780036
C           -3.67144193418464       -1.98914944386360        5.67265433266067
O           -3.75568638935321        2.07705011038914        5.52067969627343
O           -2.94192434743730        1.91263938797883        3.01658762327703
C            0.21273512614467        5.50086066357994        2.34765104514621
C           -6.06660304520411       -2.17604633098929        5.80641622556876
H            1.41756699010566        4.38133362238595        4.66974005703471
H           -1.82880610647429        4.11982501512100        2.06992133318584
H            3.26888037378556        0.32655662585251        6.31721410015598
H            0.87146188387207       -3.08471526305024        6.57830423410869
H           -3.67716811065157       -3.05999292755990        5.83019634570050
H           -5.77379677507622        0.43595144608221        4.71017130754348
O            1.34459852619901        5.82615848916894        2.44941456579099
O           -0.74718748219123        6.07961784856304        1.59848183464284
C           -0.21473095568964        7.24015934882472        1.05753806029483
C            3.53228080814219       -2.00967610361154        7.02506769044485
O            3.64093082622715       -3.14437803815732        7.50071391725347
O            4.56565258381079       -1.22937033368332        6.69086985080897
C            5.72579357310716       -1.80692399125161        7.22246151275881
O           -7.04801223588612       -1.95726935745904        5.14194115322235
O           -6.01514389321278       -2.93743591896022        6.94765316328794
C           -7.21292732384718       -3.62681918543340        7.15115816329978
C           -4.95459780685163        2.65960679932188        5.86868674392943
C           -3.68284113682406        2.59129188358641        2.05479246020704
H           -7.43119628931628       -4.22607794725959        6.20622607140901
H           -8.06548455146707       -2.91765848248592        7.29781126410398
H           -7.07314693247270       -4.33087306029711        7.91223421050944
H            6.57332189837178       -1.29353136199234        6.78341268688262
H            5.74663761932316       -2.84282155125561        6.88089468184451
H            5.69426191474290       -1.72781984964892        8.29460302186842
H           -4.10481209541493        3.44288266176275        2.60483747673152
H           -4.49244774344916        1.87419893016926        1.82433103764650
H           -3.18901540870812        2.85154642679373        1.06781919454921
H           -5.55414326821421        2.76698137191684        4.93950725322359
H           -4.78658370641210        3.62090640967288        6.25983200635257
H           -5.43485580473958        1.97242995129449        6.65265772412460
H            0.89164886030839        7.38838561720231        1.13776105146914
H           -0.62894889903848        8.04195665205089        1.64837664327952
H           -0.59282546386754        7.45699159724320        0.03719083132488
116
 energy: -22.516720367194 gnorm: 0.553642866026 xtb: 6.6.1 (8d0f1dd)
C           -2.71874947972270        0.82833426270918       -1.31117771849217
C           -2.12309190867386        0.11672446242992       -0.43244637456326
C           -1.12886436360966        0.71162331028361        0.42519620795336
C           -0.62438210031456        1.99797406625428        0.27860424201248
C           -1.07959895749713        2.70695560173313       -0.88798197670064
C           -2.07327835579224        2.10879496406452       -1.61370152540624
C           -0.51014210656279       -0.11679634001746        1.38660598869732
C            0.59754758800087        0.32864539077468        2.04280734627034
C            1.08247236002085        1.63296650980239        1.85440978656377
N            0.48609086363107        2.47157701615729        0.90115658871320
C           -0.99341238982379       -1.43335535265313        1.95343440246705
C            0.01936173805671       -2.29164713166783        2.42761027200306
N            1.32829329128705       -1.93534065626329        2.75184405941293
C            1.44701458984124       -0.59634167309432        2.73070224601470
C            2.67445056855793       -0.23542321838904        3.30402667283418
C            3.17739282579245        0.98262338574840        3.02465994239060
C            2.43573503636792        1.88758090720130        2.35293517612453
C           -2.30361360835610       -1.85912653862587        2.05083622247363
C           -2.64655353385713       -3.25002189852816        2.16152442725110
C           -1.50533144399067       -4.07627141194488        2.41356632442666
C           -0.18854505058289       -3.71162652430687        2.19294745635199
O           -3.28122163670541       -0.90664856140501        2.29930388966833
O           -2.36800082956955       -1.21626503473938       -0.41090495779385
C           -2.59312508117105        2.78382187559790       -2.81714029789378
C           -1.78740804737407       -5.54014564473884        2.84917064889827
H           -0.68963401755730        3.75260147693076       -1.12433396153536
H           -3.44577389279597        0.44835950517758       -2.00926534126876
H            2.96695324332766        2.78829035996031        2.06457209467919
H            3.22401449601009       -0.92637669173330        3.83925990875176
H            0.83677865077076       -4.15208086697031        2.25406749134491
H           -3.71833717826897       -3.32800396349539        1.82360990749857
O           -3.75868160022678        2.70268539230362       -3.13239368630789
O           -1.58191803361231        3.49213878867713       -3.55276917055581
C           -1.67700115168808        3.35060161257315       -5.04868808610852
C            4.64638210064373        1.06169563381492        3.26306360967105
O            5.07529004927888        0.02673696065471        3.72540328570039
O            5.38502959813006        2.14436741584599        2.80985947966601
C            6.73376522506206        2.27721271437623        2.86264331201563
O           -1.60828792084144       -6.59471333728987        2.22830918824432
O           -1.90085184027104       -5.43635710990482        4.19140290552997
C           -2.23230116257029       -6.66011437223623        4.98688899633345
C           -4.04093436888252       -0.83473400961455        3.50193897291896
C           -2.85422728004882       -1.69632910464861       -1.61480947359778
H           -1.80168040753199       -7.61966302644242        4.85486015559288
H           -3.12291579055146       -7.03622678779173        4.44069855946789
H           -2.42687444776688       -6.21101822903259        6.04569041808840
H            7.28267164819700        2.31224011778386        3.89508557001307
H            7.10237317314418        3.19149499635377        2.25386057267672
H            6.91660828411659        1.19471512647804        2.51052102949599
H           -4.00036479924055       -1.81011758128292       -1.35351852645235
H           -2.70146193852289       -2.72181874279061       -1.74996408442731
H           -2.49919985406450       -1.22788263233774       -2.50152333741506
H           -3.47630902043427       -0.03243516976418        4.08303520476295
H           -3.92727039268337       -1.97769985001734        3.70394517475785
H           -5.06450065951527       -0.65800404936847        3.22731146046851
H           -1.67318175701839        2.34232054619283       -5.19844171221143
H           -0.85271267133572        3.62780958568922       -5.69912692854889
H           -2.18516440156949        4.12397272520511       -5.55234036757735
C           -2.34003694423573        3.71149388189455        3.47085174767941
C           -2.65573139672460        2.62758712833067        4.23211197974022
C           -1.62250240223239        2.02980458838649        5.00578028430070
C           -0.34062780804150        2.63892744331423        4.86987231716400
C           -0.17364271419955        3.72414949710991        4.08444233990199
C           -1.21722713626075        4.45732491090713        3.61210462637054
C           -1.71858211657436        0.63425202157902        5.67398554995236
C           -0.52167044917413       -0.18388732971646        5.68571524404395
C            0.61056019082779        0.52861264618526        5.43085951898911
N            0.80847176977577        1.82323743596006        4.99477540818730
C           -2.83481246331537       -0.00296546810824        6.39384706583718
C           -2.86379066463553       -1.41151630858917        6.67329610489720
N           -1.82714105258816       -2.23819107003990        6.38296041336113
C           -0.64168271635193       -1.53642699343075        6.03980184021520
C            0.64527899917340       -2.16970666164112        6.45205663010558
C            1.84357111088565       -1.42626460615141        6.54230556678341
C            1.78420943429833       -0.11499089919271        5.98590952129026
C           -3.85464714615178        0.82914509908068        6.96673461797500
C           -5.12231211232691        0.27427351539688        7.16685716593090
C           -5.21303632744713       -1.09655695138765        7.05190873078546
C           -4.12715488342396       -1.92805768234658        6.98304503921007
O           -3.48379920877341        2.04767193253756        7.32431981022836
O           -3.76856939253172        1.85888650311365        4.09188230274709
C           -0.88390780605719        5.58689562335433        2.65455418060021
C           -6.62392165160888       -1.52074058491954        6.74098561591610
H            0.97058475282015        3.74254120801742        3.92535213109703
H           -3.09408839745654        3.94574965548768        2.73411347695134
H            2.63812821446882        0.52203886959699        5.89563206602315
H            0.50045677472008       -3.18412311336158        6.55741971814942
H           -4.18148138468716       -3.08580923562853        6.93628761212562
H           -5.99307619947900        0.86396774180196        7.34446990672483
O            0.06700240685062        5.36812332964115        1.96117426154359
O           -1.64632601771053        6.74388813630731        2.66562160397902
C           -3.12182327563367        6.63426247709351        2.29231611472685
C            3.39520121266554       -1.65067948097310        6.74683005823871
O            3.85482615311660       -2.71771590950494        7.15916324532766
O            4.07887283093377       -0.71523919833393        6.31969960887113
C            5.34864548608876       -0.90923028916516        6.67931763037445
O           -6.99506794396778       -1.22719621208647        5.59841084777064
O           -7.37852548259660       -2.45760705039972        7.49453153866291
C           -8.73767859973114       -2.65517020726258        7.06406052265269
C           -4.40316015488293        2.76317044563983        8.13563075400843
C           -4.52421459763271        1.96585011122040        2.96282633727851
H           -9.23455058946496       -1.80094603840377        7.74092419032442
H           -8.98729379765649       -3.74203384048526        7.37172602567738
H           -8.78589143539997       -2.43309682832938        5.99762656621925
H            5.51253919693381       -0.00531547086463        7.17074643828567
H            5.93497328366618       -1.19722439330483        5.71948438669269
H            5.58631488214883       -1.79284887153498        7.35244517015609
H           -4.16081716887102        1.80515194991749        1.99425032280789
H           -4.84549937260629        3.09553435720830        3.01566537585998
H           -5.31247162510709        1.32961157565481        3.02464665558491
H           -3.57560330977791        3.25155749574518        8.72169901146730
H           -4.69948744120526        2.15430157993522        8.98933677724822
H           -5.25968103265315        3.07947382116000        7.51103066613962
H           -3.69148449691116        5.78197927196991        2.57493812190891
H           -3.10258429976052        6.49234898055670        1.10478801913318
H           -3.60674196909079        7.59328691182092        2.49301912032417
116
 energy: -22.522134528467 gnorm: 0.585054762218 xtb: 6.6.1 (8d0f1dd)
C           -1.88030579784292        0.36151956873873       -1.86647750826337
C           -1.48441228303240       -0.66691288454448       -0.94556436141280
C           -0.24634932225359       -0.34316006279809       -0.24844091508540
C            0.46144049058156        0.89296859987180       -0.54027113969720
C           -0.15556083190592        1.85198995922388       -1.31980863020214
C           -1.41917336610351        1.69263932669408       -1.80702899612301
C            0.27060555891215       -1.26609187146782        0.80797328149201
C            1.66590712790029       -1.01444416164107        1.05447348058110
C            2.26714182028198        0.19139296350644        0.38642429597945
N            1.84695305037871        0.93987675414827       -0.64461065392685
C           -0.37773315372852       -2.12878164002799        1.78264300250768
C            0.42274268620821       -2.78877465021999        2.81584368015752
N            1.56992098741367       -2.41695933522986        3.20512059048364
C            1.99184125337238       -1.36865199746269        2.48931095902963
C            3.11371204615634       -0.72667862328827        3.03564749225239
C            3.81102118816463        0.30030546253900        2.31471953076918
C            3.41768431657067        0.71321312818400        1.06445335405109
C           -1.77072904094157       -2.05972953084801        2.02026143329086
C           -2.37005125929985       -3.10229969825002        2.84028947013573
C           -1.70598267245637       -4.09322687888987        3.53495789100977
C           -0.33125797443440       -3.82891520138752        3.57321836533974
O           -2.41375112343192       -0.94769292318201        1.47500432866149
O           -1.97226726684547       -1.92910187848112       -1.10557376888608
C           -2.41907063835760        2.80867480561665       -2.42969243489899
C           -2.08624881269863       -5.56531418078466        3.99225427607145
H            0.29772346862412        2.88478577124735       -1.24292450115917
H           -2.76736405401945        0.13237987135136       -2.40596561545494
H            3.96551877193514        1.48069281742560        0.48212963470998
H            3.24450906861567       -0.84893095139356        4.07540459721560
H            0.22819659211310       -4.45295107010564        4.18813017073752
H           -3.46738494654558       -3.23833199772120        3.09259845096030
O           -3.27822497991335        2.37497338265178       -3.17550344192459
O           -2.06657601377925        4.09610589974809       -2.16869787919373
C           -2.82211386867675        4.97448709062681       -3.14895824182305
C            4.80649570525515        1.09645106410801        3.18172766307356
O            4.82392131748859        0.97227315476913        4.39027754393652
O            5.82571819807358        1.75109528991162        2.53237474998211
C            6.68865693555610        2.42076776837712        3.42472657925772
O           -3.27114074614709       -5.83730386210539        4.17279471228547
O           -0.96818337317712       -6.25967407681443        3.92773939576313
C           -1.38587907060197       -7.55987201106245        3.78570651000474
C           -3.79422502088746       -0.40557426148280        1.88254359615308
C           -1.39969364918746       -2.48352181087846       -2.16770904676320
H           -0.81995357033316       -8.58982918430603        3.67530394213910
H           -2.12149608399749       -7.46186770733899        3.02957128876182
H           -2.15268277977985       -7.36779705795940        4.69032037435455
H            6.75418869576050        3.38151413875771        2.89004599392550
H            7.64557474837574        2.17323602719073        3.41635634201078
H            6.10803800159795        2.49100647079925        4.40530524752651
H           -1.26494379661840       -1.70344847105045       -2.95628643254891
H           -1.99499876073425       -3.25992004602356       -2.52078929622933
H           -0.31784782060518       -2.79524650559902       -1.97073318418271
H           -4.10349367239955       -0.78642806962016        2.86091902853539
H           -4.66003686477221       -0.61484071941892        1.22420137686948
H           -3.67810682155862        0.59435941414446        2.00846178878167
H           -3.05881163962915        4.38350457753850       -4.03643168755733
H           -2.03296299823652        5.56582513790517       -3.60352897363789
H           -3.66441274945624        5.55783811640195       -2.99059116108113
C           -2.97153793777084        4.11684177468508        3.99167561111071
C           -3.12968515259504        2.82346216326726        3.97269113602260
C           -2.06350873601490        2.06201722446145        4.53228808928854
C           -0.69033241473610        2.64880765281900        4.14992400336145
C           -0.59136238943511        4.07344336265701        3.75211638667866
C           -1.77141210083213        4.83096771468561        3.69422453565248
C           -2.15776672878718        0.92111317523027        5.43813395990702
C           -0.88265508164705        0.19801625719681        5.54253486077311
C            0.24336451917765        0.88334073522971        5.08512764358272
N            0.43919052742934        1.97337002257209        4.32697145173439
C           -3.33020463199108        0.57100895116682        6.16680438636393
C           -3.15186820562005       -0.85411623015423        6.53762446540965
N           -2.00893571642064       -1.62378939910114        6.59761942698795
C           -0.98285676429080       -1.09007236247524        6.02056489781089
C            0.29878570201233       -1.68262071713720        6.32341515490014
C            1.47161448112596       -1.04451591010030        6.18960657421793
C            1.37294775167175        0.20792780735992        5.52192539739468
C           -4.64857074761638        1.16928050371230        6.43424955383765
C           -5.80559276525415        0.38211297362030        6.69483955385374
C           -5.54509782634969       -0.98909750244664        6.88932715020147
C           -4.28850359439137       -1.45517616443282        7.07842670314822
O           -4.84628724754969        2.59537820673796        6.26499910516849
O           -4.33570069214336        2.26605924402771        3.97633277253176
C           -1.72556147283537        6.30473560906376        3.43197033184544
C           -6.75011866475958       -1.82087254848456        7.06048480261718
H            0.37826981344725        4.51792968623801        4.02330531839532
H           -3.90165136173785        4.66413523792196        3.83868423952504
H            2.23632284803939        0.67568569399261        5.09916458979145
H            0.50185460438399       -2.65026650331433        6.75328120813095
H           -4.26037183606973       -2.55590141285768        7.35691975053471
H           -6.82012977042213        0.69637549012089        6.91729744300919
O           -0.67207059284237        6.87688967208491        3.29173783234690
O           -2.82091493284767        7.10179489378956        3.35406507519584
C           -2.62148598542467        7.97739798372606        4.31470465815674
C            2.68716338613809       -1.74322275814228        6.40434387086088
O            2.76081197600832       -2.77048206397848        7.00394993737982
O            3.79363297423285       -1.07822611821303        5.74116731943285
C            4.98208715753730       -1.98366945330139        5.98140953668220
O           -7.25214124446104       -2.40186327836896        6.14611715644621
O           -7.11948508715139       -1.89020762716915        8.35766710897239
C           -7.93027025213545       -2.91930236482568        8.70019385194948
C           -4.56772404648786        3.42342216932699        7.30639903148022
C           -5.51045353116236        3.15479235500742        3.34080669022030
H           -8.05718033318365       -3.31528665212906        7.79927910683450
H           -8.72726652731699       -2.56576454265890        9.37328219454102
H           -7.27257284129342       -3.53013527365268        9.31461664756674
H            5.19919827863030       -1.97566682023769        7.15528593246700
H            5.90279727699690       -1.54375516187800        5.53159520260153
H            4.86162700748183       -3.07943717111446        5.63955065635521
H           -5.98420297129568        2.83052419768297        2.37526071835959
H           -5.36495621376259        4.17199418556591        3.18001614542669
H           -6.17887686487832        2.77534302344973        4.06855886558134
H           -5.22465129983706        4.35572720322670        7.03129150168990
H           -3.39270300980224        3.70291862627883        7.39626801614435
H           -4.85530337237266        2.92868577795330        8.17151724551882
H           -3.14600662954439        9.02850233800316        4.31070981018865
H           -1.54046581554320        8.21304036271024        4.41888507567958
H           -2.98545260572561        7.39585360659389        5.29994755082036
116
 energy: -22.500328844018 gnorm: 0.553178309552 xtb: 6.6.1 (8d0f1dd)
C           -2.10120279282428        0.24006567737298       -1.65823951813845
C           -1.09625731041239       -0.55320166252134       -0.98565816857174
C           -0.63657403854201       -0.08679574381267        0.30163421461162
C           -0.62199939569911        1.36899611700530        0.58637849433262
C           -1.49706040911479        2.22038827214275       -0.18831707752737
C           -2.22839291491621        1.63916854718119       -1.31362541755306
C            0.24103358637203       -0.83302240682798        1.08380391810783
C            1.32024518355861       -0.13101870217547        1.82721817921329
C            1.42968231948685        1.25999973227694        1.89521975717426
N            0.38476078826173        1.90415695615333        1.35971938253107
C           -0.17573299065877       -1.97885434629779        1.81787749727071
C            0.74136522341775       -2.52726798691420        2.74377560244235
N            1.97356342577877       -1.98436471242603        2.97291756599704
C            2.40350438122585       -0.77275833780220        2.36597112138916
C            3.66325906640752       -0.17428296504638        2.79560855055865
C            3.74277509877534        1.24834951727933        2.58776509006948
C            2.66573735045018        1.86114491889119        2.10378622696221
C           -1.44917581348735       -2.59648322854854        1.51328577504803
C           -1.64587967623489       -3.76811828800586        2.17051825443182
C           -0.80914832168461       -4.21920004528514        3.07495639359448
C            0.38668294659043       -3.65391233137894        3.46480761540233
O           -2.45212794353761       -2.07668286530608        0.61864790216823
O           -0.69360816178210       -1.52745454471665       -1.93573143065289
C           -3.02959042602446        2.42806488458349       -2.37538340377228
C           -1.21007290564117       -5.41969197496270        3.87130819023668
H           -1.52772301235019        3.25816779887915        0.28885020713384
H           -2.92295538862867       -0.24003674857811       -2.21910126903068
H            2.43197031385759        2.97788560045833        2.26916415124933
H            4.43263459394895       -0.92759224291223        3.09456485829838
H            1.09481458103425       -4.25029489584231        4.00777860413137
H           -2.50490314985578       -4.24763754817663        1.78244264629620
O           -3.77877724972655        1.86364947954342       -3.15109219397535