      -----------------------------------------------------------      
     |                   =====================                   |     
     |                           x T B                           |     
     |                   =====================                   |     
     |                         S. Grimme                         |     
     |          Mulliken Center for Theoretical Chemistry        |     
     |                    University of Bonn                     |     
      -----------------------------------------------------------      

   * xtb version 6.6.1 (8d0f1dd) compiled by 'runner@Mac-1690902418499.local' on 2023-08-01

   xtb is free software: you can redistribute it and/or modify it under
   the terms of the GNU Lesser General Public License as published by
   the Free Software Foundation, either version 3 of the License, or
   (at your option) any later version.
   
   xtb is distributed in the hope that it will be useful,
   but WITHOUT ANY WARRANTY; without even the implied warranty of
   MERCHANTABILITY or FITNESS FOR A PARTICULAR PURPOSE.  See the
   GNU Lesser General Public License for more details.
   
   Cite this work as:
   * C. Bannwarth, E. Caldeweyher, S. Ehlert, A. Hansen, P. Pracht,
     J. Seibert, S. Spicher, S. Grimme, WIREs Comput. Mol. Sci., 2020, 11,
     e01493. DOI: 10.1002/wcms.1493
   
   for GFN2-xTB:
   * C. Bannwarth, S. Ehlert and S. Grimme., J. Chem. Theory Comput., 2019,
     15, 1652-1671. DOI: 10.1021/acs.jctc.8b01176
   for GFN1-xTB:
   * S. Grimme, C. Bannwarth, P. Shushkov, J. Chem. Theory Comput., 2017,
     13, 1989-2009. DOI: 10.1021/acs.jctc.7b00118
   for GFN0-xTB:
   * P. Pracht, E. Caldeweyher, S. Ehlert, S. Grimme, ChemRxiv, 2019, preprint.
     DOI: 10.26434/chemrxiv.8326202.v1
   for GFN-FF:
   * S. Spicher and S. Grimme, Angew. Chem. Int. Ed., 2020, 59, 15665-15673.
     DOI: 10.1002/anie.202004239
   
   for ALPB and GBSA implicit solvation:
   * S. Ehlert, M. Stahn, S. Spicher, S. Grimme, J. Chem. Theory Comput.,
     2021, 17, 4250-4261. DOI: 10.1021/acs.jctc.1c00471
   
   for DFT-D4:
   * E. Caldeweyher, C. Bannwarth and S. Grimme, J. Chem. Phys., 2017,
     147, 034112. DOI: 10.1063/1.4993215
   * E. Caldeweyher, S. Ehlert, A. Hansen, H. Neugebauer, S. Spicher,
     C. Bannwarth and S. Grimme, J. Chem. Phys., 2019, 150, 154122.
     DOI: 10.1063/1.5090222
   * E. Caldeweyher, J.-M. Mewes, S. Ehlert and S. Grimme, Phys. Chem. Chem. Phys.
     2020, 22, 8499-8512. DOI: 10.1039/D0CP00502A
   
   for sTDA-xTB:
   * S. Grimme and C. Bannwarth, J. Chem. Phys., 2016, 145, 054103.
     DOI: 10.1063/1.4959605
   
   in the mass-spec context:
   * V. Asgeirsson, C. Bauer and S. Grimme, Chem. Sci., 2017, 8, 4879.
     DOI: 10.1039/c7sc00601b
   * J. Koopman and S. Grimme, ACS Omega 2019, 4, 12, 15120-15133.
     DOI: 10.1021/acsomega.9b02011
   
   for metadynamics refer to:
   * S. Grimme, J. Chem. Theory Comput., 2019, 155, 2847-2862
     DOI: 10.1021/acs.jctc.9b00143
   
   for SPH calculations refer to:
   * S. Spicher and S. Grimme, J. Chem. Theory Comput., 2021, 17, 1701-1714
     DOI: 10.1021/acs.jctc.0c01306
   
   with help from (in alphabetical order)
   P. Atkinson, C. Bannwarth, F. Bohle, G. Brandenburg, E. Caldeweyher
   M. Checinski, S. Dohm, S. Ehlert, S. Ehrlich, I. Gerasimov, C. Hölzer
   A. Katbashev, J. Koopman, C. Lavigne, S. Lehtola, F. März, M. Müller,
   F. Musil, H. Neugebauer, J. Pisarek, C. Plett, P. Pracht, F. Pultar,
   J. Seibert, P. Shushkov, S. Spicher, M. Stahn, M. Steiner, T. Strunk,
   J. Stückrath, T. Rose, and J. Unsleber
   
 * started run on 2025/03/14 at 12:39:55.860     

           -------------------------------------------------
          |                Calculation Setup                |
           -------------------------------------------------

          program call               : xtb scoord.19 --md --gfnff --input md_settings.inp
          coordinate file            : scoord.19
          omp threads                :                     8

   ID    Z sym.   atoms
    1    6 C      1-9, 11, 12, 14-21, 24, 25, 34, 35, 38, 41-43, 59-67, 69,
                  70, 72-79, 82, 83, 92, 93, 96, 99-101
    2    7 N      10, 13, 68, 71
    3    8 O      22, 23, 32, 33, 36, 37, 39, 40, 80, 81, 90, 91, 94, 95, 97,
                  98
    4    1 H      26-31, 44-58, 84-89, 102-116

molecular fragmentation (1/2 indicates fragments):
111111111111111111111111111111111111111111111111111111111122222222222222
22222222222222222222222222222222222222222222
# atoms in fragment 1/2:    58    58
 fragment masses (1/2) :      501.47      501.47
CMA distance (Bohr)    :   7.660
constraining FC (au)   :  0.0500

          ==================== Thresholds ====================
          CN  :   150.00000
          rep :   500.00000
          disp:  2500.00000
          HB1 :   250.00000
          HB2 :   450.00000

          Pauling EN used:
          Z : 1  EN :  2.20
          Z : 6  EN :  2.55
          Z : 7  EN :  3.04
          Z : 8  EN :  3.44
          electric field strengths (au): 0.000

           ------------------------------------------------- 
          |           Force Field Initialization            |
           ------------------------------------------------- 

          distances ...
          ----------------------------------------
          generating topology and atomic info file ...
          pair mat ...
          computing topology distances matrix with Floyd-Warshall algo ...
          making topology EEQ charges ...
          #fragments for EEQ constrain: 2
          ----------------------------------------
          generating topology and atomic info file ...
          pair mat ...
          computing topology distances matrix with Floyd-Warshall algo ...
          making topology EEQ charges ...
          rings ...
          # BATM   1140
          # H in HB   42
          doing iterative Hueckel for 2 subsystem(s) ...

  atom   neighbors  erfCN metchar sp-hybrid imet pi  qest     coordinates
    1  C       3    2.82   0.00         2    0    1  -0.013   -5.637402    2.452922   -2.074661
    2  C       3    2.81   0.00         2    0    1   0.104   -4.210513    0.637137   -0.805344
    3  C       3    2.82   0.00         2    0    1   0.014   -3.011438    1.524407    1.403406
    4  C       3    2.85   0.00         2    0    1   0.068   -2.301493    4.209445    1.657348
    5  C       3    2.81   0.00         2    0    1  -0.010   -3.731097    5.922190    0.239791
    6  C       3    2.79   0.00         2    0    1   0.024   -5.770615    5.066151   -1.456763
    7  C       3    2.80   0.00         2    0    1   0.003   -1.592131   -0.239190    3.074691
    8  C       3    2.84   0.00         2    0    1   0.018    0.893097    0.609754    4.081431
    9  C       3    2.86   0.00         2    0    1   0.069    1.414638    3.193643    3.612012
   10  N       2    1.97   0.00         2    0    1  -0.182   -0.142505    4.996802    2.763832
   11  C       3    2.82   0.00         2    0    1   0.014   -2.079002   -2.823108    3.949074
   12  C       3    2.86   0.00         2    0    1   0.068   -0.026974   -4.368052    4.894538
   13  N       2    1.94   0.00         2    0    1  -0.182    2.410085   -3.631176    5.180031
   14  C       3    2.86   0.00         2    0    1   0.069    2.738244   -1.073411    4.893682
   15  C       3    2.84   0.00         2    0    1  -0.009    5.203924   -0.064171    5.282358
   16  C       3    2.80   0.00         2    0    1   0.024    5.813190    2.528229    4.969746
   17  C       3    2.86   0.00         2    0    1  -0.009    3.841108    3.969214    4.086300
   18  C       3    2.82   0.00         2    0    1   0.104   -4.561038   -3.837074    4.279240
   19  C       3    2.82   0.00         2    0    1  -0.013   -5.080793   -6.408366    4.813333
   20  C       3    2.81   0.00         2    0    1   0.024   -3.050724   -7.976436    5.320898
   21  C       3    2.82   0.00         2    0    1  -0.010   -0.688411   -6.892135    5.474328
   22  O       2    1.91   0.00         3    0    1  -0.326   -6.787177   -2.312269    4.505823
   23  O       2    1.92   0.00         3    0    1  -0.326   -4.309146   -1.946220   -1.446012
   24  C       3    2.83   0.00         2    0    1   0.224   -7.185861    6.854982   -3.108895
   25  C       3    2.80   0.00         2    0    1   0.224   -3.475271  -10.709232    6.025819
   26  H       1    0.98   0.00         0    0    0   0.083   -3.605136    7.838295    0.401090
   27  H       1    0.97   0.00         0    0    0   0.084   -6.657454    1.925793   -3.776419
   28  H       1    0.98   0.00         0    0    0   0.084    4.187275    5.896679    3.736669
   29  H       1    0.97   0.00         0    0    0   0.084    6.686358   -1.414019    5.633560
   30  H       1    0.97   0.01         0    0    0   0.083    1.036244   -7.944572    6.108703
   31  H       1    0.98   0.00         0    0    0   0.084   -6.837222   -7.273159    5.239139
   32  O       1    0.98   0.00         2    0    1  -0.364   -7.281001    9.051799   -2.375691
   33  O       2    1.91   0.00         3    0    1  -0.315   -8.004571    5.778347   -5.337210
   34  C       4    3.49   0.00         3    0    0   0.037   -8.832583    7.683705   -7.075803
   35  C       3    2.80   0.00         2    0    1   0.223    8.424198    3.594846    5.559674
   36  O       1    0.98   0.00         2    0    1  -0.365    9.910592    2.234490    6.626327
   37  O       2    1.91   0.00         3    0    1  -0.315    8.818040    6.120978    5.079146
   38  C       4    3.49   0.00         3    0    0   0.039   10.990898    7.230927    6.227384
   39  O       1    0.98   0.00         2    0    1  -0.364   -1.790398  -12.194241    6.332548
   40  O       2    1.91   0.00         3    0    1  -0.315   -5.947726  -11.181641    6.817042
   41  C       4    3.50   0.00         3    0    0   0.037   -6.413771  -13.599366    7.894976
   42  C       4    3.49   0.00         3    0    0   0.033   -8.980117   -3.410858    3.429118
   43  C       4    3.50   0.00         3    0    0   0.033   -4.922638   -2.492361   -3.937903
   44  H       1    0.98   0.00         0    0    0   0.079   -4.742431  -14.466944    8.619104
   45  H       1    0.98   0.00         0    0    0   0.079   -7.510444  -14.808191    6.738385
   46  H       1    0.97   0.00         0    0    0   0.079   -7.688438  -13.454180    9.517304
   47  H       1    0.98   0.00         0    0    0   0.078   10.825053    9.142133    6.886629
   48  H       1    0.96   0.01         0    0    0   0.078   12.603503    7.135100    4.813045
   49  H       1    0.98   0.00         0    0    0   0.078   11.446164    6.252588    7.885585
   50  H       1    0.97   0.01         0    0    0   0.076   -6.964051   -1.892651   -4.110613
   51  H       1    0.98   0.00         0    0    0   0.076   -4.478453   -4.320646   -4.624374
   52  H       1    0.97   0.01         0    0    0   0.076   -3.689676   -1.234242   -5.072855
   53  H       1    0.97   0.01         0    0    0   0.076  -10.356048   -1.853263    3.459794
   54  H       1    0.97   0.00         0    0    0   0.076   -9.749230   -4.899057    4.594215
   55  H       1    0.96   0.01         0    0    0   0.076   -8.735174   -3.825690    1.310457
   56  H       1    0.97   0.01         0    0    0   0.079  -10.157894    6.827739   -8.484558
   57  H       1    0.97   0.01         0    0    0   0.079   -7.051370    8.346341   -8.036803
   58  H       1    0.95   0.02         0    0    0   0.079   -9.741941    9.438166   -6.063233
   59  C       3    2.81   0.00         2    0    1  -0.013   -3.778283    7.044682    7.247823
   60  C       3    2.87   0.00         2    0    1   0.104   -3.894796    4.585005    8.153641
   61  C       3    2.82   0.00         2    0    1   0.014   -1.913555    3.474189    9.463998
   62  C       3    2.85   0.00         2    0    1   0.068    0.452261    4.757740    9.393936
   63  C       3    2.82   0.00         2    0    1  -0.010    0.605777    7.175725    8.390367
   64  C       3    2.80   0.00         2    0    1   0.024   -1.508330    8.398936    7.423180
   65  C       3    2.83   0.00         2    0    1   0.003   -2.206863    0.905182   10.368403
   66  C       3    2.84   0.00         2    0    1   0.018    0.173427   -0.494485   10.613379
   67  C       3    2.84   0.00         2    0    1   0.069    2.469666    1.039878   10.564111
   68  N       2    1.96   0.00         2    0    1  -0.182    2.547825    3.596042   10.263292
   69  C       3    2.82   0.00         2    0    1   0.014   -4.281237   -0.415429   11.382855
   70  C       3    2.88   0.00         2    0    1   0.068   -4.208869   -3.042352   10.954367
   71  N       2    1.95   0.00         2    0    1  -0.182   -1.983130   -4.495665   10.906356
   72  C       3    2.85   0.00         2    0    1   0.069    0.167693   -3.112892   11.229044
   73  C       3    2.81   0.00         2    0    1  -0.009    2.424921   -4.322794   11.722374
   74  C       3    2.82   0.00         2    0    1   0.024    4.631781   -2.774132   11.823804
   75  C       3    2.83   0.00         2    0    1  -0.009    4.601821   -0.147910   11.336610
   76  C       3    2.85   0.00         2    0    1   0.104   -6.557642    0.607422   12.279910
   77  C       3    2.81   0.00         2    0    1  -0.013   -8.793697   -0.784173   11.985446
   78  C       3    2.82   0.00         2    0    1   0.024   -8.715233   -3.186767   11.092675
   79  C       3    2.82   0.00         2    0    1  -0.010   -6.444471   -4.462548   10.722099
   80  O       2    1.92   0.00         3    0    1  -0.326   -6.520379    2.971626   13.214765
   81  O       2    1.92   0.00         3    0    1  -0.326   -6.024111    3.178649    7.724645
   82  C       3    2.93   0.00         2    0    1   0.224   -0.931137   11.105032    6.270976
   83  C       3    2.82   0.00         2    0    1   0.224  -11.164692   -4.312396   10.177141
   84  H       1    0.98   0.00         0    0    0   0.083    2.251128    8.263805    8.641901
   85  H       1    0.97   0.01         0    0    0   0.084   -5.202284    7.855299    5.922578
   86  H       1    0.97   0.00         0    0    0   0.084    6.291931    0.971198   11.510263
   87  H       1    0.98   0.00         0    0    0   0.084    2.313522   -6.195945   12.458905
   88  H       1    0.98   0.00         0    0    0   0.083   -6.465529   -6.377499   10.110445
   89  H       1    0.97   0.01         0    0    0   0.084  -10.697764    0.161746   12.169015
   90  O       1    0.98   0.00         2    0    1  -0.364    1.380254   11.614874    6.451968
   91  O       2    1.92   0.00         3    0    1  -0.315   -2.628639   12.559086    5.197163
   92  C       4    3.59   0.00         3    0    0   0.037   -1.533231   14.662168    4.312605
   93  C       3    2.84   0.00         2    0    1   0.223    6.892519   -3.973151   12.925045
   94  O       1    0.98   0.00         2    0    1  -0.365    9.086157   -3.374495   12.342113
   95  O       2    1.92   0.00         3    0    1  -0.315    6.382469   -5.978110   14.601240
   96  C       4    3.53   0.00         3    0    0   0.039    8.550399   -7.085396   15.424617
   97  O       1    0.98   0.00         2    0    1  -0.364  -11.370775   -6.466911    9.405404
   98  O       2    1.91   0.00         3    0    1  -0.315  -13.217538   -2.726191    9.967706
   99  C       4    3.50   0.00         3    0    0   0.037  -15.496133   -4.156503    9.246912
  100  C       4    3.51   0.00         3    0    0   0.033   -8.176601    3.397114   15.263369
  101  C       4    3.51   0.00         3    0    0   0.033   -7.699306    4.340820    6.074298
  102  H       1    0.97   0.00         0    0    0   0.079  -14.762166   -5.840099    8.296785
  103  H       1    0.97   0.01         0    0    0   0.079  -16.584884   -3.128661    7.786763
  104  H       1    0.98   0.00         0    0    0   0.079  -16.429217   -4.582599   10.999736
  105  H       1    0.98   0.00         0    0    0   0.078    9.816610   -5.584155   15.451166
  106  H       1    0.98   0.00         0    0    0   0.078    9.275099   -8.403660   14.138371
  107  H       1    0.97   0.01         0    0    0   0.078    7.968097   -7.712030   17.363824
  108  H       1    0.97   0.01         0    0    0   0.076   -9.385536    3.107776    5.776513
  109  H       1    0.96   0.01         0    0    0   0.076   -6.847507    5.082608    4.235549
  110  H       1    0.97   0.01         0    0    0   0.076   -8.344206    5.851307    7.388357
  111  H       1    0.98   0.00         0    0    0   0.076   -8.590705    5.328219   15.081348
  112  H       1    0.98   0.00         0    0    0   0.076   -7.100957    3.364003   16.970578
  113  H       1    0.97   0.01         0    0    0   0.076   -9.746331    1.993338   15.356289
  114  H       1    0.98   0.00         0    0    0   0.079   -0.536969   15.623055    5.754033
  115  H       1    0.97   0.01         0    0    0   0.079   -2.664062   15.799337    2.937815
  116  H       1    0.97   0.01         0    0    0   0.079    0.045760   13.826360    3.181683

          #atoms :   116
          #bonds :   124
          #angl  :   206
          #tors  :   302
          #nmol  :   2
          #optfrag :   2
           ------------------------------------------------- 
          |                   G F N - F F                   |
          |          A general generic force-field          |
          |                  Version 1.0.3                  | 
           ------------------------------------------------- 
          Number of HB bonds (bound hydrogen)     18168
          Number of HB bonds (unbound hydrogen)   536
          Number of XB bonds                      0

 E+G (total)                   0 d,  0 h,  0 min,  0.002 sec
 distance/D3 list               ...        0 min,  0.000 sec (  0.990%)
 non bonded repulsion           ...        0 min,  0.000 sec (  3.764%)
 dCN                            ...        0 min,  0.000 sec (  5.942%)
 EEQ energy and q               ...        0 min,  0.000 sec (  9.008%)
 D3                             ...        0 min,  0.000 sec ( 15.169%)
 EEQ gradient                   ...        0 min,  0.000 sec (  3.753%)
 bonds                          ...        0 min,  0.000 sec (  5.984%)
 bend and torsion               ...        0 min,  0.000 sec (  3.242%)
 bonded ATM                     ...        0 min,  0.000 sec (  2.408%)
 HB/XB (incl list setup)        ...        0 min,  0.001 sec ( 49.416%)

         :::::::::::::::::::::::::::::::::::::::::::::::::::::
         ::                     SUMMARY                     ::
         :::::::::::::::::::::::::::::::::::::::::::::::::::::
         :: total energy             -22.882773955503 Eh    ::
         :: gradient norm              0.362520901678 Eh/a0 ::
         ::.................................................::
         :: bond energy              -23.515741900740 Eh    ::
         :: angle energy               0.111841845034 Eh    ::
         :: torsion energy             0.078432408171 Eh    ::
         :: repulsion energy           1.561104537652 Eh    ::
         :: electrostat energy        -0.936211434637 Eh    ::
         :: dispersion energy         -0.150245476997 Eh    ::
         :: HB energy                 -0.006612076251 Eh    ::
         :: XB energy                  0.000000000000 Eh    ::
         :: bonded atm energy         -0.025341857735 Eh    ::
         :: external energy            0.000000000000 Eh    ::
         :: add. restraining           0.000000000000 Eh    ::
         :: total charge               0.000000000000 e     ::
         :::::::::::::::::::::::::::::::::::::::::::::::::::::

           -------------------------------------------------
          |                Property Printout                |
           -------------------------------------------------

           -------------------------------------------------
          | TOTAL ENERGY              -22.882773955503 Eh   |
          | GRADIENT NORM               0.362520901678 Eh/α |
           -------------------------------------------------
           ------------------------------------------------- 
          |               Molecular Dynamics                |
           ------------------------------------------------- 
 trajectories on xtb.trj or xtb.trj.<n>

 MD time /ps        :   20.00
 dt /fs             :    2.00
 SCC accuracy       :    2.00
 temperature /K     :  400.00
 max steps          : 10000
 block length (av.) :  2500
 dumpstep(trj) /fs  :  500.00   250
 dumpstep(coords)/fs: 1000.00   500
 H atoms mass (amu) :     4
 # deg. of freedom  :   348
 SHAKE off
 Berendsen THERMOSTAT on
         time (ps)    <Epot>      Ekin   <T>   T     Etot
      0    0.00      0.00000   0.4598    0.    0.   -22.42295
est. speed in wall clock h for 100 ps :  0.02
    200    0.40    -22.66662   0.2958  571.  537.   -22.50352
    400    0.80    -22.73537   0.2688  539.  488.   -22.54889
    600    1.20    -22.76599   0.2589  518.  470.   -22.56691
    800    1.60    -22.78445   0.2533  501.  460.   -22.59625
   1000    2.00    -22.79695   0.2465  487.  447.   -22.63233
   1200    2.40    -22.80738   0.2326  477.  422.   -22.62149
   1400    2.80    -22.81470   0.2380  468.  432.   -22.63442
   1600    3.20    -22.82147   0.2263  461.  411.   -22.64382
   1800    3.60    -22.82694   0.2081  456.  378.   -22.63570
   2000    4.00    -22.83124   0.2230  450.  405.   -22.64653
   2200    4.40    -22.83486   0.2351  446.  427.   -22.65006
   2400    4.80    -22.83756   0.2186  442.  397.   -22.65804
block <Epot> / <T> :     -22.84790  440.     drift:  0.99D+02   Tbath : 400.
   2600    5.20    -22.83997   0.2028  439.  368.   -22.64588
   2800    5.60    -22.84182   0.2105  436.  382.   -22.65180
   3000    6.00    -22.84361   0.2124  433.  385.   -22.65365
   3200    6.40    -22.84511   0.2209  431.  401.   -22.64516
   3400    6.80    -22.84647   0.2109  430.  383.   -22.64222
   3600    7.20    -22.84776   0.2182  428.  396.   -22.65017
   3800    7.60    -22.84905   0.2139  427.  388.   -22.64189
   4000    8.00    -22.85007   0.2227  425.  404.   -22.64702
   4200    8.40    -22.85100   0.2299  424.  417.   -22.65045
   4400    8.80    -22.85199   0.2354  423.  427.   -22.65012
   4600    9.20    -22.85305   0.2282  422.  414.   -22.64370
   4800    9.60    -22.85393   0.2360  421.  428.   -22.63950
   5000   10.00    -22.85469   0.2233  421.  405.   -22.65963
block <Epot> / <T> :     -22.87063  401.     drift:  0.99D+02   Tbath : 400.
   5200   10.40    -22.85539   0.1924  420.  349.   -22.65773
   5400   10.80    -22.85605   0.2092  419.  380.   -22.67033
   5600   11.20    -22.85674   0.2031  418.  368.   -22.65387
   5800   11.60    -22.85724   0.2064  418.  375.   -22.66871
   6000   12.00    -22.85774   0.2171  417.  394.   -22.64799
   6200   12.40    -22.85839   0.2213  417.  402.   -22.64975
   6400   12.80    -22.85881   0.2090  416.  379.   -22.65648
   6600   13.20    -22.85945   0.2325  416.  422.   -22.65174
   6800   13.60    -22.85996   0.2145  415.  389.   -22.65963
   7000   14.00    -22.86037   0.2088  415.  379.   -22.66589
   7200   14.40    -22.86086   0.2274  414.  413.   -22.66335
   7400   14.80    -22.86129   0.2341  414.  425.   -22.66473
block <Epot> / <T> :     -22.87518  401.     drift:  0.99D+02   Tbath : 400.
   7600   15.20    -22.86162   0.1948  414.  354.   -22.66811
   7800   15.60    -22.86187   0.1974  413.  358.   -22.65643
   8000   16.00    -22.86206   0.2071  413.  376.   -22.64837
   8200   16.40    -22.86231   0.2085  412.  378.   -22.65757
   8400   16.80    -22.86257   0.2268  412.  412.   -22.65449
   8600   17.20    -22.86283   0.2186  412.  397.   -22.65513
   8800   17.60    -22.86304   0.2280  412.  414.   -22.64799
   9000   18.00    -22.86321   0.2384  411.  433.   -22.63305
   9200   18.40    -22.86357   0.2100  411.  381.   -22.65529
   9400   18.80    -22.86388   0.2402  411.  436.   -22.64923
   9600   19.20    -22.86423   0.2039  411.  370.   -22.65933
   9800   19.60    -22.86455   0.2414  411.  438.   -22.65677
 average properties 
 Epot               :  -22.864855829065121     
 Epot (accurate SCC):  -22.866917712534413     
 Ekin               :  0.22621288913380491     
 Etot               :  -22.638642939931316     
 T                  :   410.53131038280736     
 thermostating problem
 normal exit of md()
########################################################################
[WARNING] Runtime exception occurred
-1- gfnff_setup: Could not read topology file.
########################################################################
Note: The following floating-point exceptions are signalling: IEEE_UNDERFLOW_FLAG
normal termination of xtb

------------------------------------------------------------------------
 * finished run on 2025/03/14 at 12:40:12.058     
------------------------------------------------------------------------
 total:
 * wall-time:     0 d,  0 h,  0 min, 16.198 sec
 *  cpu-time:     0 d,  0 h,  0 min, 32.358 sec
 * ratio c/w:     1.998 speedup
 SCF:
 * wall-time:     0 d,  0 h,  0 min,  0.003 sec
 *  cpu-time:     0 d,  0 h,  0 min,  0.005 sec
 * ratio c/w:     1.751 speedup
 MD:
 * wall-time:     0 d,  0 h,  0 min, 16.179 sec
 *  cpu-time:     0 d,  0 h,  0 min, 32.341 sec
 * ratio c/w:     1.999 speedup

