116
 energy: -22.882773955503 gnorm: 0.362520901678 xtb: 6.6.1 (8d0f1dd)
C           -2.98318479628578        1.29803036622741       -1.09786357166450
C           -2.22810755827967        0.33715857544898       -0.42616960397754
C           -1.59358410779963        0.80668135987199        0.74265060323953
C           -1.21789773863722        2.22754244032388        0.87703083212374
C           -1.97441144965019        3.13388774718119        0.12689186767201
C           -3.05367771472323        2.68089151288518       -0.77088580171151
C           -0.84251924897026       -0.12657380591690        1.62705662414284
C            0.47260661663693        0.32266802495588        2.15980027134871
C            0.74859407210485        1.69000311874385        1.91139463080819
N           -0.07541040355271        2.64419370332502        1.46255704554816
C           -1.10016063437308       -1.49392437885071        2.08975998766646
C           -0.01427426892956       -2.31147342149074        2.59007808400871
N            1.27536193848996       -1.92153545324081        2.74115421167564
C            1.44901633558147       -0.56802444983828        2.58962510550302
C            2.75379778402327       -0.03395786834940        2.79530322554597
C            3.07620743577887        1.33788112037144        2.62987644807922
C            2.03262663580676        2.10041749959961        2.16237670796634
C           -2.41359740838248       -2.03049221196845        2.26447623150655
C           -2.68863989003251       -3.39116131406561        2.54710630205675
C           -1.61437379419631       -4.22094808793568        2.81569816227559
C           -0.36429145545363       -3.64716069948284        2.89688987346023
O           -3.59161915003375       -1.22360014329495        2.38437908036982
O           -2.28030169067930       -1.02989540032800       -0.76519642289800
C           -3.80259413946456        3.62750011190548       -1.64515639653276
C           -1.83903402332569       -5.66708164503626        3.18872593524469
H           -1.90775588030518        4.14784688022446        0.21224759877225
H           -3.52297311138473        1.01908587252418       -1.99839479884331
H            2.21581064497327        3.12038802029600        1.97736009013759
H            3.53826831730587       -0.74826676065048        2.98115148800015
H            0.54835688914845       -4.20408630214577        3.23258649031520
H           -3.61810206445658       -3.84878974469373        2.77243280459450
O           -3.85293987349280        4.79000555318121       -1.25716131689863
O           -4.23583658980127        3.05776928799189       -2.82432984625840
C           -4.67400149014783        4.06604138843382       -3.74435356998480
C            4.45789368714224        1.90231052489228        2.94205275115787
O            5.24445924492638        1.18244132070619        3.50650121164778
O            4.66630605806886        3.23908213090172        2.68776824722058
C            5.81613264142188        3.82644192307642        3.29538967780678
O           -0.94743766969618       -6.45291434304736        3.35104029211720
O           -3.14740103308119       -5.91706941011472        3.60742329193183
C           -3.39402123158356       -7.19647455986422        4.17784118040836
C           -4.75207325125109       -1.80494809899317        1.81461103373130
C           -2.60494762132464       -1.31890042167071       -2.08384877436014
H           -2.50958641625154       -7.65557693493288        4.56103339049179
H           -3.97435574917233       -7.83615742374257        3.56579977448586
H           -4.06854596311629       -7.11964523627367        5.03634060211646
H            5.72837154028822        4.83780856128230        3.64424721191819
H            6.66948639221551        3.77573230355987        2.54695383947041
H            6.05704937846237        3.30872732718316        4.17287177592046
H           -3.68521712447248       -1.00154763695797       -2.17524289322816
H           -2.36989515160180       -2.28638714719162       -2.44711347753234
H           -1.95249247273083       -0.65313268981114       -2.68443909425202
H           -5.48018459931395       -0.98070450511912        1.83084413952321
H           -5.15907011656482       -2.59246935354092        2.43115385492272
H           -4.62245476741894       -2.02446785176645        0.69346399690652
H           -5.37532584895025        3.61308413223997       -4.48983496854554
H           -3.73142429782638        4.41669367172355       -4.25289302332027
H           -5.15521318343154        4.99446259042494       -3.20852479725153
C           -1.99938127278407        3.72788509772578        3.83538251624449
C           -2.06103714821833        2.42628041433815        4.31472094365474
C           -1.01260964522089        1.83846174158668        5.00813229784491
C            0.23932645106481        2.51768779449496        4.97105705477166
C            0.32056324785835        3.79722991829674        4.43999096389095
C           -0.79817399980920        4.44452556907384        3.92817759571538
C           -1.16782140736508        0.47900193103804        5.48672281959431
C            0.09177383760265       -0.26167002922911        5.61635845422867
C            1.30689075932385        0.55027954132684        5.59028673448045
N            1.34825090978627        1.90294352327048        5.43110037817365
C           -2.26553294275621       -0.21983551407458        6.02354746274863
C           -2.22723771937354       -1.60994357703333        5.79680159836534
N           -1.04942738421836       -2.37900364444473        5.77139482364732
C            0.08873915217283       -1.64727142587729        5.94215423966817
C            1.28321295336067       -2.28752396288921        6.20321322574557
C            2.45103316049925       -1.46800740779096        6.25688756224554
C            2.43517874848468       -0.07827040252535        5.99907573863620
C           -3.47015451710873        0.32143368649096        6.49824830439548
C           -4.65342418491669       -0.41496658858058        6.34242503466978
C           -4.61190256923078       -1.68636457947094        5.86999083641862
C           -3.41026714060832       -2.36147879002235        5.67389025576661
O           -3.45043586775516        1.57251693083692        6.99295238908905
O           -3.18782240063559        1.68206879299428        4.08770590691304
C           -0.49273640436986        5.87652988569646        3.31845735742227
C           -5.90810048043213       -2.28202191690338        5.38551133765991
H            1.19124548838193        4.37301719152681        4.57309708319556
H           -2.75293038789682        4.15684501654353        3.13409316410266
H            3.32954670503597        0.51393596780893        6.09096890817019
H            1.22426286089882       -3.27875304065097        6.59296883503108
H           -3.42141038245384       -3.37482731172236        5.35021702594030
H           -5.66101282931463        0.08559209072254        6.43956516334284
O            0.73039902079392        6.14632685183901        3.41423430724642
O           -1.39101573263041        6.64598223642308        2.75022019021548
C           -0.81135110816772        7.75888494583899        2.28213240977194
C            3.64736419685995       -2.10250111986277        6.83963909450105
O            4.80818703532263       -1.78570565511755        6.53116467167257
O            3.37745713479865       -3.16347951440498        7.72664363961137
C            4.52467650822785       -3.74943028450947        8.16235571482519
O           -6.01715486643660       -3.42214184846990        4.97712538371124
O           -6.99442008831435       -1.44263833984306        5.27468295141446
C           -8.20020017960435       -2.19952651041675        4.89325498371678
C           -4.32687082114863        1.79767545218091        8.07702680052306
C           -4.07429745905134        2.29706323714908        3.21438025462149
H           -7.81180175244393       -3.09044710267699        4.39046930509282
H           -8.77634241849374       -1.65561601697948        4.12057737450673
H           -8.69396703556552       -2.42500674613546        5.82080956540638
H            5.19472656019161       -2.95500763159065        8.17640502823457
H            4.90817092686085       -4.44702551727116        7.48170389620847
H            4.21653536074039       -4.08103068472072        9.18853972018669
H           -4.96661190939554        1.64456424386154        3.05679898462085
H           -3.62354464157471        2.68960058946198        2.24135593947842
H           -4.41556374550122        3.09637832216929        3.90975011850662
H           -4.54600509074112        2.81957186208947        7.98070581952194
H           -3.75766439885233        1.78015359382824        8.98044309145992
H           -5.15753623685041        1.05482904121102        8.12619802924825
H           -0.28415166835520        8.26736492742067        3.04490299392147
H           -1.40976090082898        8.36064918949431        1.55462497947483
H            0.02421500687750        7.31659436301919        1.68367439706247
116
 energy: -22.765544923426 gnorm: 0.444468089580 xtb: 6.6.1 (8d0f1dd)
C           -3.37828264643167        0.83810754244415       -1.43829657136684
C           -2.39612782393136        0.01427694642631       -0.85229607056800
C           -1.52606239956929        0.60794970275419        0.17766707343473
C           -1.56156088751380        2.06346603362326        0.34179559356497
C           -2.58028639391995        2.76854725293203       -0.24443683532970
C           -3.43143065813079        2.10705270726726       -1.07644210301249
C           -0.85850801175733       -0.17268715217803        1.13902997339156
C            0.20904047149499        0.55919204685602        1.69564680396331
C            0.46190397609936        1.93606023608985        1.49907783872795
N           -0.59224760203841        2.67277737801228        0.98450505158865
C           -0.98716637013714       -1.56275103753639        1.61258061441609
C            0.00399376237330       -2.20724683079652        2.28938344114196
N            1.11293849425644       -1.63177382584355        2.66897955035716
C            1.09643002087788       -0.26490548587180        2.46874218187416
C            2.13972317242435        0.42117695070442        3.06655552440585
C            2.41045863582087        1.79837396244985        2.80813018065605
C            1.63244527280349        2.56360790496008        2.00117822716581
C           -2.32099683506248       -2.07421062833495        1.56222798970554
C           -2.41847585288484       -3.39176471191034        2.04113033990896
C           -1.31145219050580       -4.12941262205406        2.44942354386832
C           -0.13619788307059       -3.54298085286046        2.61068920383029
O           -3.28652796652479       -1.22590182594293        1.14263260460152
O           -2.42484505291259       -1.30076102015971       -1.29058085151058
C           -4.41140970702830        2.91457755086751       -1.79975761008545
C           -1.65848458584783       -5.39425750680094        3.12105531640350
H           -2.48868709567905        3.76208137016117       -0.24804700265975
H           -4.14892869660393        0.18350459021621       -1.92093359643663
H            1.87654663045169        3.46534599117677        1.56753568466043
H            2.80790871661754       -0.23136717096536        3.64320811787494
H            0.62149724921406       -4.21548558973602        3.12639114681132
H           -3.31253500579065       -3.67684199621914        2.55145861929524
O           -4.26816016208183        4.14996161613022       -1.84603607363773
O           -5.26893987658359        2.15013124537328       -2.56811136182632
C           -6.16480273339085        2.91874833899535       -3.27592880423350
C            3.44428308500121        2.40517779941917        3.67679328014139
O            4.12947954628718        1.58932104724958        4.27816042234528
O            3.53797880448129        3.76751640662205        3.91891901104437
C            4.40819989746924        3.92199005431634        5.05700914830858
O           -0.67902592077936       -6.16263986943536        3.37634666128689
O           -3.02423840468552       -5.52761022174931        3.17166616327569
C           -3.35036849833490       -6.85679064771321        3.71537699021941
C           -4.58847247360896       -1.80610738804614        1.16384247662803
C           -1.35936856501327       -1.69882617701887       -2.22116103079876
H           -3.06760010238889       -6.75501092782700        4.71052098473296
H           -2.76160185211313       -7.50798594191240        3.08165376024035
H           -4.27667286735439       -6.77061571065256        3.37731715574403
H            3.85283842724390        4.48358849354673        5.81552840260851
H            5.03827913765039        4.72061456191353        4.62917658664587
H            5.02258931838905        3.14318477666498        5.59444802576994
H           -1.18910701657453       -0.90092640030306       -2.95375811006378
H           -1.49302418582232       -2.69836577497994       -2.72732501918023
H           -0.60274498711385       -2.01145235878696       -1.49683897336450
H           -5.32827941353268       -1.11802624921192        0.76552444852885
H           -4.94502413145274       -1.73827016152315        2.25521359977981
H           -4.58702619189566       -2.71112637229314        0.62016591797885
H           -7.04102572362900        2.39606403879543       -3.64030282721136
H           -5.65536929156058        3.62495660097041       -3.91956596262236
H           -6.60712960169698        3.61828523509616       -2.56009781519780
C           -1.21409777966354        4.06205938211234        3.97196051104882
C           -1.73321527470891        2.98509550841791        4.65555203999084
C           -0.83626541270064        2.02334730612902        5.38677383396668
C            0.46908752861578        2.46343402143183        5.65921108738294
C            0.83952790638193        3.75016621865903        5.17895870192896
C            0.02439247406100        4.51628114217357        4.29807015162759
C           -0.95982653646736        0.68083365958743        5.69507349146609
C            0.13145814823877       -0.18165054103874        5.79410313499936
C            1.33340409945026        0.39072538887968        6.11052751666062
N            1.52125012812312        1.73964367579563        6.09731494347706
C           -2.19625666225594       -0.00704700774436        5.92598873570643
C           -2.30442112518976       -1.45924449938245        5.74186051068273
N           -1.23753251611631       -2.25742234156593        5.70600937535389
C           -0.06401717210486       -1.56780641262518        5.92949233251569
C            1.03225022970293       -2.34415526288986        6.32821773984245
C            2.26117312463638       -1.74232168781848        6.38772187724320
C            2.41240282657448       -0.39697222683040        6.46758356687395
C           -3.38023687182899        0.69646510846641        6.21634924323386
C           -4.58951127839676        0.03525310383049        6.02247468560489
C           -4.67501266786694       -1.35422742985469        5.86374516917580
C           -3.55334741693678       -2.14747472176864        5.73251082809687
O           -3.77175493199213        1.99485623013440        6.65736971054886
O           -3.01366965823807        2.65841562807384        4.20564535335481
C            0.60525101308905        5.74783035867676        3.76351772724368
C           -6.00462540724920       -1.95249717305779        5.51409147164653
H            1.91413062588659        3.92888419725426        5.29375298502299
H           -1.96008340315259        4.27978747707371        3.22885619382948
H            3.46383568833232        0.02677748067279        6.51422394619450
H            0.94296447328527       -3.38398783764912        6.56981778944872
H           -3.64077648031669       -3.25379267580616        5.69702261447561
H           -5.43587321795289        0.63345317076651        6.03095937419464
O            1.63777477920925        6.17217066406630        4.14162659734197
O           -0.16807292982857        6.32205969796379        2.77175495724921
C            0.33725972165105        7.54607989040676        2.35735580482704
C            3.44324206425495       -2.48470955943992        6.74370329646014
O            4.41804760000863       -1.98162214941493        7.24843371869525
O            3.46337509312552       -3.81060690717341        6.47790832380928
C            4.48695162358125       -4.48347029939332        7.01719959622029
O           -6.16922732466795       -2.11656228618652        4.31292992274338
O           -6.80330484590191       -1.95994807767876        6.57366728053185
C           -8.10343390706933       -2.23312658060015        6.22614222548797
C           -3.04545235763708        2.63665775623371        7.58176868544271
C           -3.11235307459132        1.82789539678236        3.04034808542089
H           -8.92693879569756       -1.46085219430408        6.55058924002097
H           -8.20008004187295       -3.30850978970439        6.23268473032969
H           -8.18170883252483       -2.23762523986299        5.06894715264869
H            4.95102418143223       -5.18318539042967        6.26298947852373
H            4.17357012889790       -5.02372737799234        7.96789120484710
H            5.38903806839863       -3.87710676891235        7.31741476857638
H           -2.15266679401473        1.56502796121458        2.58622340654106
H           -3.77706940354217        2.36485706672460        2.26607297893688
H           -3.76579654819224        0.92775241213928        3.31198430414459
H           -1.98246239762453        2.51128854746894        7.21944555626626
H           -3.15951213275215        2.21568818114682        8.56338188676105
H           -3.36747234534477        3.62486019772788        7.78448541985851
H            0.61243488869956        8.18582864715251        3.16329823649765
H           -0.40537077109118        8.01478154102970        1.54991440047078
H            1.19047835875803        7.37993548515594        1.78620856092916
116
 energy: -22.849566606563 gnorm: 0.387900176002 xtb: 6.6.1 (8d0f1dd)
C           -3.27547459460340        0.40826480837891       -1.51365143022016
C           -2.44422843626535       -0.32456238670040       -0.73616539065964
C           -1.48875938030215        0.39885957983509        0.02069074009460
C           -1.35584505399038        1.78230615784746       -0.18991027603508
C           -2.30496733203865        2.48406785447192       -0.97930983649575
C           -3.23480734956782        1.81046164219298       -1.71588726293117
C           -0.72243074257734       -0.17875848717178        1.08304767769855
C            0.45521034822400        0.42870473666728        1.48749266878961
C            0.52483589134662        1.90708656034035        1.17141721051604
N           -0.37662985533588        2.54275672979423        0.34310716185448
C           -0.91333752903364       -1.43294610073501        1.71525532516781
C            0.16584796091363       -2.06858223495799        2.53307962856079
N            1.34274413755890       -1.44740662805907        2.81245943333021
C            1.44022117770854       -0.14726826331041        2.32419124453057
C            2.45564380155866        0.68652595153670        2.84948763437770
C            2.59432840848764        2.01224204707315        2.56776944536785
C            1.60994770575586        2.58445320760882        1.71411532411064
C           -2.21235956214641       -1.87014291624965        2.08320908551903
C           -2.27107061463284       -3.11825542578248        2.63981962923741
C           -1.19548819160690       -3.93059339319299        3.03350215250281
C            0.10468153578449       -3.38559950381110        3.02031548163125
O           -3.33949200852135       -1.01329287953711        1.88718511112407
O           -2.68061584768385       -1.73515534048619       -0.85695180036055
C           -4.30048575570784        2.52722292804759       -2.51752864756809
C           -1.55095084835508       -5.26537162698344        3.56543023341649
H           -2.21993492433061        3.55274791823625       -1.09848368053319
H           -4.10308162613659       -0.05751457654500       -1.96794167488030
H            1.75374374901150        3.59209381675398        1.47472240294445
H            3.26280565246780        0.17490281070319        3.30160458000836
H            0.93866322695636       -3.87178273849541        3.57688393225146
H           -3.17607172263215       -3.39905591695713        3.16866160278992
O           -4.12839733571727        3.70044080840887       -2.66635515024435
O           -5.46401716805101        1.82552574965422       -2.87019386368400
C           -6.44605997786909        2.61127631409706       -3.47812358494664
C            3.81373321115639        2.68433731387043        3.10361482085222
O            4.41108781739328        1.98024019959670        3.89468841871307
O            4.27378691256091        3.83231600658024        2.61415230342223
C            5.41321432614332        4.21930320774111        3.17175559165763
O           -0.92037468677296       -5.74709082919424        4.46883206119411
O           -2.62464072280803       -5.95167807511985        3.07394503077050
C           -2.82292130340539       -7.09658499155598        3.72268429344767
C           -4.41585628097222       -1.70661416780652        1.44161140998168
C           -1.55623821589040       -2.39014450080650       -1.42413172249099
H           -2.17220155759550       -7.73481947537743        3.38767645252644
H           -3.78349169632781       -7.47893342529061        3.49422825536921
H           -2.88433306433539       -7.02531790049513        4.76043964310163
H            6.01071864752844        3.37200185923311        3.51351604076341
H            5.14988254646415        4.70091086251377        4.14440317580541
H            5.84184684183546        4.91531196710964        2.46871831392007
H           -1.79875986873376       -3.49192041100398       -1.51326713533171
H           -0.71270374937998       -2.38642011897588       -0.73408023558088
H           -1.25179155565427       -1.87835288451360       -2.27634276456842
H           -5.19699040362926       -0.95512839696288        1.03571889451931
H           -4.77808689167611       -2.36587304863955        2.18683211668816
H           -4.05869403325809       -2.40499336297556        0.69430918822909
H           -7.12115067376091        1.88560705513290       -3.99912080047368
H           -6.06243154852168        3.20255934165356       -4.32774792499989
H           -7.02853202243743        3.09571155350388       -2.68651691654472
C           -1.46775342121298        4.30780016026983        4.77248770735113
C           -1.85392927868889        2.97669503676537        4.93566057501869
C           -0.93407547911401        2.05848175667644        5.48953801718451
C            0.36525484447240        2.53558506451624        5.82190439721449
C            0.65939268956194        3.91296793210332        5.89419139434733
C           -0.26860414194576        4.78104123646745        5.39527005656359
C           -1.17082566957189        0.65503370180679        5.83775510107876
C           -0.01262429685531       -0.13667682790435        5.93271686982892
C            1.26277665807693        0.45957976269321        6.06579883682454
N            1.42865852056164        1.73742621503283        6.12970844151161
C           -2.50458359743074        0.08883162988041        6.09479742096709
C           -2.50642898179282       -1.33187076421309        6.20593366024672
N           -1.35776619777474       -2.09665292055217        6.06262093813060
C           -0.16681356665349       -1.54544242279766        5.97334699115788
C            0.99439967057874       -2.35512330756661        6.03457136875036
C            2.26014525981140       -1.77834176480229        6.08071968660774
C            2.34064462146800       -0.46498713075358        6.15474824148487
C           -3.75844288835967        0.75030130012888        6.28473418796886
C           -4.97281754422857        0.06307863074266        5.97000983671473
C           -5.02642612260867       -1.29650316237663        5.79530225586016
C           -3.77378065540701       -1.88747633885290        5.92210242313750
O           -3.70618746233374        2.07808020938618        6.83024741390025
O           -3.22315300212145        2.64182449625306        4.48914641222854
C            0.12541813998094        6.12659373901865        5.15393378404407
C           -6.22623469031021       -2.02859667954944        5.29369997132987
H            1.67102016466249        4.24305045127832        6.14791509764779
H           -2.04439585802327        5.08164877703513        4.27207840975256
H            3.34384241371348       -0.01256486452262        6.15606928121205
H            0.91923666767854       -3.43846919316770        6.03766358172579
H           -3.85534521798410       -2.97745690444669        6.02695179760309
H           -5.72661820851728        0.70997697754076        5.79459474988010
O            0.92171552630051        6.68369196417485        5.91692829283338
O           -0.26220155858617        6.74445836359216        3.97792780111573
C            0.55005498945543        7.89930181693300        3.91621815071657
C            3.44191473189964       -2.71771435066286        6.07254633322233
O            4.54503673261431       -2.38885158340398        6.40723522390963
O            3.10094476197464       -3.98532090853917        5.67026332364212
C            4.17576885251331       -4.79812896083648        6.01090842659280
O           -6.20178998841071       -3.11729257574638        4.68975262806843
O           -7.47785702623940       -1.54319217984754        5.67134578663265
C           -8.45822598117445       -1.81502853437456        4.74404488579653
C           -3.06775204773130        2.36334654958472        8.10210660645120
C           -3.04040288492344        2.17675691099422        3.12927587504622
H           -9.50940840558327       -1.72355990069933        5.02997296409317
H           -8.28757373585591       -2.77720205738488        4.20044871432041
H           -8.11859146247790       -1.04775509495730        4.08312855671829
H            4.05841570633606       -5.78469793106598        5.35800974385446
H            4.11961189598609       -4.93819923175240        7.06942392697234
H            4.99297137319970       -4.23508530195262        5.55591646227796
H           -3.88091303740421        2.34218482774970        2.40330106763995
H           -2.80017719823376        1.09805501060773        3.09513054652844
H           -2.19158923657541        2.61003728969146        2.69391852489062
H           -3.18535782932750        1.55916623414661        8.81146170880244
H           -3.63506247397135        3.31935373446646        8.44529302600079
H           -1.98193675633647        2.57876863341494        7.79976510487557
H            0.27957412028655        8.46570662318831        4.85390860253666
H            0.27963966392491        8.20331990521409        2.85429447292024
H            1.68194493093428        7.72637058418183        4.08427161484578
116
 energy: -22.818907088291 gnorm: 0.416982143063 xtb: 6.6.1 (8d0f1dd)
C           -2.97237481566767        0.27234147852431       -1.81811174123921
C           -2.07226144862527       -0.35928264375164       -0.86184985411168
C           -1.53549949729607        0.37299065761142        0.17978296383128
C           -1.55839791158007        1.77955798426646        0.07717394003380
C           -2.31944729346595        2.41533154891596       -0.93867246628242
C           -2.95041804553031        1.67364217962138       -1.87940120683807
C           -0.73786754080189       -0.21973056451762        1.29679692699544
C            0.30543059524489        0.57172844506610        1.72757029459008
C            0.39586160022706        1.97726986102310        1.39911928634326
N           -0.70167733924182        2.58093509366666        0.79166918966066
C           -0.87175177688398       -1.58227746069333        1.80070849001806
C            0.27260581261374       -2.13467727605672        2.37495315977021
N            1.33541939087306       -1.43292819578132        2.71446989094646
C            1.37766431167625       -0.11582788854950        2.42557141371988
C            2.51532962800434        0.69881454613062        2.71099891678144
C            2.60268782515102        2.02458815087962        2.46438981283492
C            1.54086302001301        2.61952503821131        1.82116439001297
C           -2.17142731338121       -2.30801578414057        1.84912219761144
C           -2.20975245765289       -3.52359574057012        2.48687004084637
C           -1.01499838133362       -4.07160450549177        2.90309286020853
C            0.15139246043689       -3.45895177466339        2.73892040219539
O           -3.30527739695807       -1.60914643689805        1.47985140478738
O           -1.82533777037877       -1.76563247302744       -0.91057330930043
C           -3.81671394339679        2.36524578121448       -2.92425578403518
C           -1.03810730866452       -5.24467886010701        3.88551458568599
H           -2.43714131267827        3.51643011396642       -0.87102124366992
H           -3.76463198431199       -0.19679012818928       -2.32423542480357
H            1.85314736275880        3.50308930482693        1.35998296829586
H            3.09812556314848        0.31804254693289        3.54857076373265
H            1.02829339607716       -3.89137480621326        3.23985282577732
H           -3.14016028913478       -4.06987701554221        2.75780119491558
O           -3.95382509852995        3.56135280874935       -2.78694622301465