116
 energy: -22.928061455056 gnorm: 0.329736929581 xtb: 6.6.1 (8d0f1dd)
C           -3.31122850772930        0.79849766164622       -0.92477639677520
C           -2.44380812530352       -0.12270372891954       -0.27661132624697
C           -1.41337090092821        0.39579727573559        0.56335275196199
C           -0.89266158675590        1.65801491088749        0.27377586709581
C           -1.72665675402493        2.51431363229076       -0.49448366572522
C           -2.95444148494349        2.13954154133227       -1.01494489940871
C           -0.74098268209890       -0.43411532818871        1.49825021926784
C            0.56872586496315        0.03782116815119        1.86248088067890
C            1.03782416582094        1.29402317993033        1.50887470833621
N            0.31238977034758        2.07067427098208        0.65193736800696
C           -1.29695700510141       -1.39996043042223        2.41574187746061
C           -0.38243517664656       -2.18060797534842        3.13232615520648
N            0.91308504082021       -1.90366887689689        3.30325166013478
C            1.37712470144904       -0.74872102533751        2.81811050966982
C            2.52149331701875       -0.17739833758153        3.39379298866852
C            2.95849061756259        1.02681208890480        2.95105897606587
C            2.24288949469137        1.78498308775960        2.03503020483770
C           -2.74860936222260       -1.74497937691422        2.38401158947411
C           -3.09416315450955       -2.91614440870436        3.00571134491758
C           -2.16786021984049       -3.77788778654213        3.63251872101904
C           -0.85708937311598       -3.40495313382985        3.68547234358092
O           -3.71994433332149       -0.94984598373544        1.67726658385724
O           -2.55702603277562       -1.47241711578389       -0.57241635275616
C           -3.84297843593025        3.13357444054366       -1.60938954875544
C           -2.68769581069131       -5.03867041417370        4.30484659386931
H           -1.39666850744143        3.51251503834900       -0.76806311868865
H           -4.27662633836220        0.55105838579656       -1.33106614114542
H            2.66329581305412        2.73912661909249        1.72562431984580
H            3.05775395548473       -0.69369546277216        4.16536137542516
H           -0.24710966264510       -4.12034095424229        4.22946223699121
H           -4.11477991332403       -3.04712728052358        3.03244694615357
O           -4.21824883374556        4.03433712717988       -0.87713382485991
O           -4.44510595673734        2.90643496899600       -2.81853501752979
C           -5.44216520282800        3.83300025693726       -3.02488532025093
C            4.23586651889298        1.50004220933226        3.59165660008449
O            5.05927614697201        0.66079890002952        3.91714215179376
O            4.47001334453535        2.86385149488593        3.72605651435371
C            5.79457498613219        3.08584475587818        4.15829123132174
O           -3.82227255313510       -5.27347675879771        4.16636005494405
O           -1.85023202017753       -5.79767454267276        5.06656077253571
C           -2.55119635829503       -6.86252441382958        5.62930343183426
C           -5.07197156564436       -1.42399175670916        1.58830531863830
C           -1.33089900128490       -2.23622472573986       -0.99264499351172
H           -2.54510546830388       -7.76426885143998        4.99136022291012
H           -3.57194749219491       -6.44405511486021        5.74196173723541
H           -2.09133598235598       -7.02043774843818        6.64022264233588
H            5.72707967266424        3.46798026205549        5.10135971236643
H            6.34060091246885        3.78468702308830        3.50069950143490
H            6.17933064298187        2.03010500085905        4.19342358084693
H           -0.91862729772622       -2.57650129080332       -0.01361370304871
H           -0.49769766914251       -1.60651221708571       -1.34094446550576
H           -1.52632419730509       -2.94569707152159       -1.75361447637286
H           -5.11788846557077       -2.41810833635233        1.17520213188926
H           -5.67929807973498       -0.69619639428435        1.04301666067831
H           -5.57598832326623       -1.42383358739762        2.57928294206544
H           -6.13050215934830        3.76035386975488       -2.23272855695873
H           -5.86615610071888        3.45938329385866       -4.02668959924245
H           -5.13479557532099        4.87790991548477       -2.98314551356402
C           -1.38192942069774        3.73616555005018        2.91232598411686
C           -1.84821468128685        2.59982427735607        3.49755545445181
C           -1.05946531454833        2.05730632010638        4.60922730982276
C            0.19893954712228        2.69376791964407        4.86302140881997
C            0.50425395911860        3.94630308659851        4.28768785650746
C           -0.26031777722226        4.46998310053134        3.25072669343212
C           -1.20488993561782        0.74454293276906        5.14851520323437
C           -0.06287609782692        0.02744069315890        5.60930570802864
C            1.19208754369866        0.71421540266195        5.78882868583885
N            1.19428660993148        2.06344359410476        5.62744624321596
C           -2.41361422770794        0.07928500213936        5.25249410304426
C           -2.45851584031083       -1.32662100968547        5.60237876023992
N           -1.29466212405906       -1.98318595734370        5.89916817085159
C           -0.14475655767527       -1.32117560077092        5.98824682881008
C            0.97209270935794       -1.98958449505532        6.53157704134458
C            2.21982707914082       -1.36973967291181        6.68703967237737
C            2.30561929262884       -0.09745313075593        6.26436900324455
C           -3.73018485967715        0.71367583494582        5.25810242262992
C           -4.89964478833448       -0.06184623426677        5.21204641615509
C           -4.82617965800088       -1.39228978090841        5.46901303780036
C           -3.67144193418464       -1.98914944386360        5.67265433266067
O           -3.75568638935321        2.07705011038914        5.52067969627343
O           -2.94192434743730        1.91263938797883        3.01658762327703
C            0.21273512614467        5.50086066357994        2.34765104514621
C           -6.06660304520411       -2.17604633098929        5.80641622556876
H            1.41756699010566        4.38133362238595        4.66974005703471
H           -1.82880610647429        4.11982501512100        2.06992133318584
H            3.26888037378556        0.32655662585251        6.31721410015598
H            0.87146188387207       -3.08471526305024        6.57830423410869
H           -3.67716811065157       -3.05999292755990        5.83019634570050
H           -5.77379677507622        0.43595144608221        4.71017130754348
O            1.34459852619901        5.82615848916894        2.44941456579099
O           -0.74718748219123        6.07961784856304        1.59848183464284
C           -0.21473095568964        7.24015934882472        1.05753806029483
C            3.53228080814219       -2.00967610361154        7.02506769044485
O            3.64093082622715       -3.14437803815732        7.50071391725347
O            4.56565258381079       -1.22937033368332        6.69086985080897
C            5.72579357310716       -1.80692399125161        7.22246151275881
O           -7.04801223588612       -1.95726935745904        5.14194115322235
O           -6.01514389321278       -2.93743591896022        6.94765316328794
C           -7.21292732384718       -3.62681918543340        7.15115816329978
C           -4.95459780685163        2.65960679932188        5.86868674392943
C           -3.68284113682406        2.59129188358641        2.05479246020704
H           -7.43119628931628       -4.22607794725959        6.20622607140901
H           -8.06548455146707       -2.91765848248592        7.29781126410398
H           -7.07314693247270       -4.33087306029711        7.91223421050944
H            6.57332189837178       -1.29353136199234        6.78341268688262
H            5.74663761932316       -2.84282155125561        6.88089468184451
H            5.69426191474290       -1.72781984964892        8.29460302186842
H           -4.10481209541493        3.44288266176275        2.60483747673152
H           -4.49244774344916        1.87419893016926        1.82433103764650
H           -3.18901540870812        2.85154642679373        1.06781919454921
H           -5.55414326821421        2.76698137191684        4.93950725322359
H           -4.78658370641210        3.62090640967288        6.25983200635257
H           -5.43485580473958        1.97242995129449        6.65265772412460
H            0.89164886030839        7.38838561720231        1.13776105146914
H           -0.62894889903848        8.04195665205089        1.64837664327952
H           -0.59282546386754        7.45699159724320        0.03719083132488
116
 energy: -22.715636557652 gnorm: 0.476824440572 xtb: 6.6.1 (8d0f1dd)
C           -3.08671914724864        0.57839381017199       -1.37956846196803
C           -2.47600223412049       -0.22828407065473       -0.44630197444066
C           -1.47416951269744        0.23070225680275        0.39253561935678
C           -0.98802891452907        1.55516291168774        0.13453405258608
C           -1.61453207958485        2.39188501370037       -0.87566631508613
C           -2.56180923795855        1.85184699351915       -1.65988964974862
C           -0.78495464983402       -0.60594026931935        1.37649168566995
C            0.47371185956256       -0.16128455546351        1.66709534296236
C            0.92830183862047        1.03303616597259        1.17305231355816
N            0.26326356783195        1.97224725376242        0.51402261075473
C           -1.26083192983728       -1.69399678752837        2.15394176018164
C           -0.34996605322523       -2.26012372606164        3.14034559306505
N            0.92920541805546       -1.91526715349744        3.33134178915411
C            1.30531882862178       -0.89462573034919        2.55981582967656
C            2.65645478656710       -0.47043451458436        2.80740191134376
C            3.22214813073820        0.53723971619034        1.93364929374154
C            2.28227780620526        1.34091406630271        1.37959469241641
C           -2.55333957120636       -2.14144863055643        2.09379585463321
C           -2.96300872154126       -3.28351583133692        2.72186978199682
C           -2.06209075795263       -3.87897741700349        3.56817272414646
C           -0.79017688992598       -3.33547593791295        3.77021256487741
O           -3.47647726901249       -1.39584597816277        1.37902374597496
O           -2.48732309049260       -1.65575626566928       -0.69211326012343
C           -3.28581020854888        2.81052647033918       -2.50250339341681
C           -2.59497144329513       -5.03822584566465        4.29845701597285
H           -1.18592345547637        3.35479398667908       -0.96048682080241
H           -3.69030798604680        0.08758754717634       -2.15624889257826
H            2.80061094408127        2.23264027777720        0.89430034132731
H            3.06348775148899       -0.88661595052850        3.66224940257615
H           -0.10888334070459       -3.86289191622118        4.42861827551492
H           -3.88912666570571       -3.67118042491879        2.50028127134796
O           -2.61187789642361        3.71350765764447       -3.02324620446296
O           -4.66223425865267        2.57007432576494       -2.57164204786376
C           -5.36877471589357        3.45397509506984       -3.52796748264020
C            4.73082764611673        0.94163422919868        2.04551740933417
O            5.63699780752562        0.13698119719136        1.95013679285934
O            4.73395565426805        2.35353403670724        2.19143120819037
C            5.94030553561198        2.80702229795511        2.85033939284004
O           -3.67449596040886       -5.60796887635581        3.91323273036085
O           -1.97436562999548       -5.06430834780259        5.59976844192584
C           -2.73716284978309       -5.56645972263752        6.65362441114425
C           -4.84283253744767       -1.41831585120012        1.61770081697035
C           -1.40514838639735       -2.05706342965615       -1.54639055682637
H           -2.83688305284478       -6.66106464518168        6.59848232304457
H           -3.77226851814951       -5.32143926326677        6.48352119699347
H           -2.32287684597390       -5.50896640669088        7.70739355080984
H            6.01388320086858        2.50982180432619        3.88524009075279
H            5.78544332169354        3.92795603096874        2.80849785526880
H            6.67001447743349        2.57472951488762        2.15361155590718
H           -0.80291785995457       -1.20527617974332       -1.86183142320007
H           -2.12567285172442       -2.23308814225219       -2.43631569168227
H           -0.72723114451507       -2.76740152257370       -1.13651574419665
H           -4.83621627064924       -1.02662969755459        2.60514278585775
H           -5.29821621841524       -2.45215382175417        1.62600076264866
H           -5.33889131819646       -0.89324573938696        0.82882205683097
H           -5.51767479897287        4.52175658302801       -3.03687459775327
H           -6.27614696277236        2.94353068016473       -3.80047467912672
H           -4.73562075824950        3.76312062302669       -4.36091119945177
C           -1.89174197706327        4.03857730866513        3.98178816822209
C           -1.98978164443447        2.72789807716849        4.33479008958045
C           -0.95897191619119        2.19580016655936        5.23104767505136
C            0.27338005895184        2.80204478871703        5.32075045792438
C            0.56255786495084        3.88022596409921        4.49957300506287
C           -0.64026324709015        4.57145683229608        4.06455684083059
C           -1.14739115084209        1.18948233487619        6.09619205855850
C           -0.04047146406210        0.51081484704720        6.62987017776803
C            1.20601858661140        0.96005980866969        6.41328206909968
N            1.35896257476471        2.19944272559950        5.93174948604674
C           -2.53700931289201        0.64359811909469        6.14900953887141
C           -2.47153702004168       -0.75781519944276        6.13716518405125
N           -1.35522120837047       -1.50597928436705        6.38575877910039
C           -0.26968880677056       -0.89897857862387        6.89751180226971
C            0.73479790489815       -1.54191926469233        7.62448655462959
C            2.02998756989854       -1.12053705881736        7.38555570193825
C            2.23259405435916        0.07254668647716        6.75644025859338
C           -3.87331661584194        1.16946399370252        6.05167937749269
C           -4.94930568008423        0.42077272515063        5.57040494587951
C           -4.78556656164198       -0.97817091222983        5.29926576977311
C           -3.56899399046085       -1.58139901337616        5.70131931190440
O           -4.14413330826284        2.39216516343725        6.65400402304083
O           -2.94369579234144        1.87321830203481        3.74407223895456
C           -0.50304637994506        5.87317481155055        3.37602343655952
C           -5.87151387520724       -1.89540016253183        5.01418018404229
H            1.46797532651500        4.24823015063201        4.24827226047284
H           -2.74038658214598        4.55621728755353        3.49887381840601
H            3.29762223618132        0.24272562175482        6.43978078258165
H            0.63501150864351       -2.41234256797235        8.32555983622689
H           -3.48503153382995       -2.64028530777396        5.68122781581643
H           -5.86726506270414        0.92316801175642        5.34510184889674
O            0.42729602244840        6.64582354498648        3.63674341940051
O           -1.33192308702207        5.93919719504614        2.28838951935903
C           -0.95488982295930        7.15714131221082        1.55258693628472
C            3.30975504039534       -1.85946939142666        7.60928874306172
O            3.36622870479334       -2.76019765482714        8.41981758743690
O            4.36195067040123       -1.63908657816077        6.83515051937934
C            5.42813841709443       -2.61419728591882        6.93124598347857
O           -7.01541473660123       -1.59287965024189        5.32724931408661
O           -5.45276625319921       -3.07658028052699        4.61334395400294
C           -6.36764148324590       -4.04709467511563        4.75067323125259
C           -5.34828581988627        2.62597187668877        7.36737119970818
C           -3.95682596819103        2.47152815329033        2.99776256389893
H           -6.30714780614505       -4.07993594212644        5.88369578923407
H           -5.95213981097890       -5.17477893174659        4.67701913452595
H           -7.41668932753532       -3.84079815015008        4.34010421799667
H            5.36622301904092       -3.28639962777342        7.83014004284033
H            6.41914460252848       -2.02600634953815        6.88779149850455
H            5.26224044307688       -3.18835165766119        6.14967314398532
H           -3.62772581421534        3.09103772072353        2.17594997217856
H           -4.62067518232124        3.17511178812337        3.64631065083325
H           -4.61270166225772        1.69514388369174        2.56988789977091
H           -6.26567250037936        2.86761311221000        6.73066351390034
H           -5.03871548829444        3.28639381926734        8.24791964252570
H           -5.51084529541765        1.55500094399392        7.82352647997050
H            0.02496502512711        7.09821131145424        1.24363899685727
H           -0.83622955219661        7.89392944161558        2.29325130695645
H           -1.85890927708627        7.22242737277787        0.85943713331167
116
 energy: -22.736343347939 gnorm: 0.426828540220 xtb: 6.6.1 (8d0f1dd)
C           -3.37081086318780        0.32445187472111       -1.31984541391526
C           -2.57816818445035       -0.44918003452504       -0.44041373516471
C           -1.53652931568610        0.14424502975019        0.47481468936936
C           -1.06295793914857        1.44763741494094        0.20860979643437
C           -1.97375808144329        2.17065780234954       -0.68705507024785
C           -3.03664552857020        1.63937478115738       -1.46213052361947
C           -0.68448183692225       -0.67943822018918        1.29959814507678
C            0.50779767000117       -0.02129185702462        1.75415311016570
C            0.81586396384131        1.28137674369939        1.46754865981538
N            0.04400557868739        2.01513191185015        0.64099735873474
C           -1.13438488946908       -1.71639249687099        2.12535115960741
C           -0.25336632840819       -2.55661666087617        2.76745325271899
N            1.01119021946941       -2.14733524442723        3.02974913221187
C            1.35760889770877       -0.84369770038282        2.67933214390250
C            2.69363018117616       -0.39061861892159        3.02051635432123
C            2.99644801546640        0.91410286171741        2.68893243843114
C            2.01096684574253        1.65902671249340        2.04439692332399
C           -2.53132902770709       -1.97808161100016        2.38226751252368
C           -3.03835220595443       -3.07658907818029        3.13237443606038
C           -2.10849945585467       -4.09774360522996        3.53085727626196
C           -0.75867661141227       -3.70902841460210        3.38869912302806
O           -3.41480807098647       -0.94735923764030        1.90746026795289
O           -2.58792061413075       -1.84670913667014       -0.60226220893187
C           -3.80106619484030        2.46476833048204       -2.54268278197010
C           -2.51353723290323       -5.47893959403313        4.04562525935962
H           -1.70699281509733        3.12786188944589       -1.09448520575088
H           -4.19028452389416       -0.03877179954422       -1.95356848798978
H            2.25183829469560        2.74456679464050        1.86397940738225
H            3.21249142522029       -0.98549726933434        3.63241097214771
H            0.06391588637336       -4.30809326980026        3.77533139467073
H           -4.09346547498732       -3.22171580629697        3.10505093822441
O           -3.61778703358129        3.62618619106521       -2.42972696734111
O           -4.63022896681377        1.77719530861595       -3.47769690852276
C           -5.21438997569510        2.62032043379594       -4.46721777053249
C            4.16994077613115        1.68997002797925        2.97417134196779
O            4.11246408788538        2.90858673857637        3.26788175921883
O            5.42030371518167        1.14821262590364        3.05081029367366
C            6.41568628257075        1.88988114917825        3.76042427708562
O           -3.45823242958569       -5.99266036979187        3.44611815423019
O           -1.99756203604727       -5.99374836339010        5.24814532704648
C           -2.77278501799836       -7.11986216908227        5.51931136820279
C           -4.76287153053157       -1.20420566761370        1.79837724810924
C           -1.44245559512711       -2.38079594032747       -1.22825579317285
H           -2.46848433989487       -7.88703709455937        4.75754505076037
H           -3.78198795281861       -6.89318188600323        5.12924021603221
H           -2.74582043459895       -7.60732359683905        6.49203167517433
H            6.58193920194402        2.58064881396485        2.91928226639801
H            7.19113409049655        1.13470678303286        4.19197660139264
H            6.03658553203522        2.25823314638028        4.80015667529571
H           -1.83441702028149       -3.13361115975664       -1.98098430336612
H           -0.77499053937612       -2.68811523422810       -0.36958034507478
H           -0.85260471570530       -1.73621760562138       -1.87654915618685
H           -5.14505398319262       -1.31627903179609        2.82585376115695
H           -4.83275052441519       -2.03006058212691        1.16746424004831
H           -5.21816093912267       -0.33455305820579        1.41812561540964
H           -6.01500813015271        3.03202625597673       -3.95591083519182
H           -5.81405465508921        2.02579598743451       -5.24638206899694
H           -4.69932226073491        3.48640757175805       -4.81232226573840
C           -1.70142201593831        4.24229097656056        3.72901722602290
C           -1.91603004656931        2.91408618368825        4.08872922462621
C           -0.77276805478317        2.33405034657806        4.80580297789543
C            0.53101513639852        2.91032755974303        4.77527593507268
C            0.62974263201691        4.28190127812806        4.25656647003095
C           -0.51033570288763        5.00011764872300        3.95387527752754
C           -1.07220977120104        1.01890961664321        5.37452444635187
C            0.05559509746311        0.29275402840463        5.69884173743161
C            1.33456172642434        0.91582637396862        5.63081548577139
N            1.50709197939075        2.24228877233681        5.38509019222458
C           -2.33625035638018        0.43375461836305        5.79062493408317
C           -2.29629986481332       -0.91561632447778        5.70718153765738
N           -1.22052781604506       -1.70292427429040        5.90616934453270
C           -0.02993464876697       -1.09022813193873        6.14560356143891
C            0.98026562673845       -1.87291358961371        6.76102483633993
C            2.18201957638719       -1.12152548027232        6.77159315134329
C            2.35401833059831        0.23435093622846        6.33989565176191
C           -3.60701395642701        1.07430088149466        5.89935145022293
C           -4.72069983126168        0.32556913482534        5.43404659323681
C           -4.74208024220578       -1.00559046375336        5.38006499465379
C           -3.55687341612962       -1.61315655729088        5.61077948286418
O           -3.72935811290348        2.22241140000179        6.60844535987829
O           -3.16913275364400        2.20506506075119        3.77671511886589
C           -0.34235316784388        6.31757659426697        3.23549391364338
C           -6.03635003836236       -1.61362318815927        5.77844564608819
H            1.49283169459624        4.78467555529473        4.27167628433183
H           -2.56073190260896        4.88833125890905        3.82996705833744
H            3.26840065304346        0.76951606670625        6.47629878243170
H            0.99063439327513       -3.01500965587152        6.93884197362614
H           -3.39956424000119       -2.59811471774361        5.95727308449868
H           -5.63911512703427        0.85613649157513        5.28916435625089
O            0.76865121428570        6.61317841114496        2.78453150951100
O           -1.42021218502512        7.27178627482046        3.06953534735083
C           -0.85005162998105        8.52219014480792        3.01109358985920
C            3.49375068365759       -1.93151862841323        6.99405079451749
O            3.55434445999600       -3.12087154291533        6.66262729688183
O            4.63824306223442       -1.32146542904178        7.47476160367037
C            5.58788762956518       -2.17664997279588        7.96388480020043
O           -6.95017288852264       -1.08846486634095        6.42832943485229
O           -6.03039889060251       -3.02446878894310        5.47638456505635
C           -7.32029673191531       -3.60232663721035        6.02744232628335
C           -4.96864752560626        2.87523676870560        6.45055234400460
C           -3.67740487902159        2.31817750649316        2.52698825367728
H           -7.92336250001831       -3.74677106898432        5.13005476886308
H           -7.86190593353324       -3.18274886344503        6.82570827409764
H           -7.09924373806386       -4.44670528902686        6.60225682483896
H            6.53418106625673       -1.71276287381106        7.84129540920173
H            5.41594798092059       -3.15425681704174        7.48915403608308
H            5.33499544468980       -2.36985414571279        9.03960753838319
H           -4.75643268098397        2.14024631946963        2.45362895694577
H           -3.15367249900714        1.65103657466753        1.81870612167251
H           -3.48087648805135        3.32700379369477        2.21392649795274
H           -5.01537410525340        3.03282864483338        5.32087780358054
H           -5.09558613003700        3.89282132995292        6.97443562594850
H           -5.75930130291822        2.13443380881421        7.03908101322374
H           -0.50963402493799        8.98154719811392        3.93105131111707
H           -1.49712994770026        9.21309427684742        2.50764847250381
H            0.00926049158808        8.46821484029428        2.35861210002747
116
 energy: -22.739280767513 gnorm: 0.447715972067 xtb: 6.6.1 (8d0f1dd)
C           -3.13989385283084       -0.05864595927873       -1.53927762378862
C           -2.23141247459428       -0.83587907118661       -0.75716706995587
C           -1.43383349498984       -0.16226848345754        0.18009774263010
C           -1.26881510151694        1.22815818744216        0.09687759146318
C           -2.13988919964589        1.86788229488426       -0.80823356967399
C           -3.15768932386513        1.31066402287021       -1.50850072517467
C           -0.82129566555838       -0.90336384499961        1.25628907493074
C            0.23767736634889       -0.18120752933561        1.93299029780750
C            0.31838419749804        1.19762548513743        1.84404941198792
N           -0.44340018748307        1.91943288600700        0.95639121777188
C           -1.35909273612107       -1.92094229994289        2.05648205847468
C           -0.32216636258034       -2.60747422468042        2.87025780593925
N            0.88983002730726       -2.12223784383644        3.22252840935251
C            1.08632413265412       -0.87975457608185        2.86236059858011
C            2.19508851432596       -0.15924177065642        3.42261617918695
C            2.49012151324952        1.08111780046684        2.83896595479941
C            1.52058063257505        1.75471658574813        2.16593492013841
C           -2.65092500451280       -2.33886449119838        2.17899077078184
C           -2.83249461409617       -3.54223190796170        2.86612133473361
C           -1.79553037733385       -4.36839883804482        3.33570654000553
C           -0.53046670857224       -3.89896015899882        3.29931108203535
O           -3.77050219102449       -1.85304072627802        1.59304645344762
O           -2.13406708407232       -2.24302452426278       -0.92835694674540
C           -3.87373369653091        2.26940375699410       -2.39551207606460
C           -2.23550076701047       -5.72154141875007        3.68536880747493
H           -2.03762079823098        2.87451772158296       -1.06696573149608
H           -3.96242747081594       -0.65894195815627       -1.99721560130593
H            1.87713381026382        2.73317418462581        1.81435858578270
H            2.74139754319383       -0.61779455722638        4.15576535443922
H            0.24326247646464       -4.45627224204407        3.81722349668756
H           -3.83962959267319       -3.90997359830946        2.73837809297420
O           -3.59869408612196        3.44946467787477       -2.16413496633945