116
 energy: -220.372606373722 gnorm: 0.239459452225 xtb: 6.7.1 (edcfbbe)
C           -2.28770000000000        1.75350000000000       -3.10280000000000
C           -1.98180000000000        0.77250000000000       -2.16670000000000
C           -1.07350000000000        1.10970000000000       -1.10140000000000
C           -0.25140000000000        2.26480000000000       -1.24810000000000
C           -0.59170000000000        3.20150000000000       -2.23630000000000
C           -1.62170000000000        2.96940000000000       -3.10290000000000
C           -0.87190000000000        0.29460000000000        0.05920000000000
C            0.35180000000000        0.45390000000000        0.71830000000000
C            1.20400000000000        1.54770000000000        0.38030000000000
N            0.85450000000000        2.49560000000000       -0.50900000000000
C           -1.80730000000000       -0.61220000000000        0.65310000000000
C           -1.31710000000000       -1.51210000000000        1.64450000000000
N           -0.05860000000000       -1.47860000000000        2.13620000000000
C            0.73240000000000       -0.46720000000000        1.73660000000000
C            1.98160000000000       -0.30130000000000        2.34420000000000
C            2.79770000000000        0.75570000000000        2.01340000000000
C            2.42260000000000        1.67130000000000        1.05730000000000
C           -3.22670000000000       -0.54500000000000        0.42280000000000
C           -4.03580000000000       -1.52990000000000        0.97890000000000
C           -3.52710000000000       -2.45570000000000        1.87300000000000
C           -2.20350000000000       -2.44200000000000        2.21160000000000
O           -3.76490000000000        0.57020000000000       -0.22010000000000
O           -2.44700000000000       -0.53670000000000       -2.25010000000000
S           -2.10580000000000        4.27620000000000       -4.25450000000000
S           -4.64840000000000       -3.65400000000000        2.63410000000000
H           -0.04760000000000        4.12760000000000       -2.30030000000000
H           -3.04060000000000        1.58090000000000       -3.84900000000000
H            3.08270000000000        2.48160000000000        0.80440000000000
H            2.30610000000000       -1.01050000000000        3.08450000000000
H           -1.83060000000000       -3.14130000000000        2.93860000000000
H           -5.09100000000000       -1.54990000000000        0.77870000000000
O           -1.19920000000000        5.37540000000000       -3.74040000000000
O           -3.55400000000000        4.67360000000000       -3.49470000000000
C           -3.36000000000000        5.26700000000000       -2.25410000000000
S            4.38410000000000        0.93840000000000        2.85610000000000
O            4.73480000000000       -0.52870000000000        2.97970000000000
O            5.26900000000000        1.38460000000000        1.49850000000000
C            5.46280000000000        0.32460000000000        0.62260000000000
O           -5.34430000000000       -4.12410000000000        1.37540000000000
O           -3.49280000000000       -4.85420000000000        2.85530000000000
C           -3.18260000000000       -5.50520000000000        1.66850000000000
C           -5.09280000000000        0.42600000000000       -0.66750000000000
C           -3.16170000000000       -0.84230000000000       -3.42150000000000
H           -2.46120000000000       -6.30080000000000        1.87380000000000
H           -2.75780000000000       -4.79320000000000        0.95560000000000
H           -4.10280000000000       -5.93030000000000        1.25490000000000
H            6.10150000000000        0.65680000000000       -0.20060000000000
H            4.49980000000000       -0.01380000000000        0.23100000000000
H            5.94800000000000       -0.49260000000000        1.16560000000000
H           -3.40880000000000       -1.90430000000000       -3.40370000000000
H           -2.54310000000000       -0.63420000000000       -4.29530000000000
H           -4.08480000000000       -0.26340000000000       -3.45710000000000
H           -5.32910000000000        1.27350000000000       -1.31200000000000
H           -5.78100000000000        0.42050000000000        0.17780000000000
H           -5.18650000000000       -0.49640000000000       -1.24140000000000
H           -4.31610000000000        5.65340000000000       -1.89120000000000
H           -2.64440000000000        6.08890000000000       -2.36200000000000
H           -2.97470000000000        4.52520000000000       -1.54980000000000
C           -2.00740000000000        2.43460000000000        2.28830000000000
C           -2.04550000000000        1.43380000000000        3.24820000000000
C           -0.95510000000000        1.32230000000000        4.17600000000000
C            0.17690000000000        2.17250000000000        4.01310000000000
C            0.11590000000000        3.20350000000000        3.05800000000000
C           -0.94540000000000        3.31450000000000        2.20250000000000
C           -0.87450000000000        0.29180000000000        5.16550000000000
C            0.40090000000000       -0.01020000000000        5.65530000000000
C            1.47890000000000        0.89360000000000        5.42710000000000
N            1.34870000000000        1.99790000000000        4.66870000000000
C           -1.94810000000000       -0.50480000000000        5.68430000000000
C           -1.61730000000000       -1.77520000000000        6.24220000000000
N           -0.35760000000000       -2.13660000000000        6.57150000000000
C            0.60760000000000       -1.21310000000000        6.39460000000000
C            1.87540000000000       -1.43710000000000        6.94290000000000
C            2.88540000000000       -0.51220000000000        6.80390000000000
C            2.70850000000000        0.62130000000000        6.04070000000000
C           -3.30130000000000       -0.03010000000000        5.81430000000000
C           -4.29140000000000       -0.95560000000000        6.11970000000000
C           -3.97070000000000       -2.26340000000000        6.44900000000000
C           -2.66510000000000       -2.65670000000000        6.55390000000000
O           -3.54070000000000        1.33960000000000        5.71720000000000
O           -3.08040000000000        0.49730000000000        3.24970000000000
S           -0.91130000000000        4.57760000000000        0.90450000000000
S           -5.31020000000000       -3.43700000000000        6.76640000000000
H            0.94860000000000        3.87750000000000        2.96390000000000
H           -2.77300000000000        2.48550000000000        1.53730000000000
H            3.52670000000000        1.30470000000000        5.90340000000000
H            2.06110000000000       -2.34340000000000        7.49200000000000
H           -2.43260000000000       -3.65040000000000        6.89200000000000
H           -5.32610000000000       -0.66690000000000        6.11800000000000
O           -0.86430000000000        5.80660000000000        1.78790000000000
O           -2.54620000000000        4.49890000000000        0.51060000000000
C           -3.33400000000000        5.20260000000000        1.41310000000000
S            4.44530000000000       -0.79670000000000        7.67550000000000
O            4.46270000000000       -2.30930000000000        7.59890000000000
O            5.45840000000000       -0.37350000000000        6.40400000000000
C            5.53810000000000       -1.37600000000000        5.44930000000000
O           -5.82250000000000       -3.51860000000000        5.33920000000000
O           -4.32150000000000       -4.80240000000000        6.87110000000000
C           -4.24010000000000       -5.49660000000000        5.67330000000000
C           -4.79080000000000        1.75980000000000        6.20900000000000
C           -4.33310000000000        1.02380000000000        2.87360000000000
H           -3.60870000000000       -6.37870000000000        5.80920000000000
H           -3.81170000000000       -4.84010000000000        4.91230000000000
H           -5.24770000000000       -5.79540000000000        5.36910000000000
H            6.22840000000000       -1.06010000000000        4.66070000000000
H            4.54760000000000       -1.54300000000000        5.01530000000000
H            5.89540000000000       -2.29370000000000        5.92810000000000
H           -5.10500000000000        0.29900000000000        3.13430000000000
H           -4.35540000000000        1.20350000000000        1.80060000000000
H           -4.50980000000000        1.95400000000000        3.41420000000000
H           -4.81150000000000        2.85010000000000        6.20580000000000
H           -4.92230000000000        1.40460000000000        7.23170000000000
H           -5.59130000000000        1.38720000000000        5.56970000000000
H           -4.38420000000000        5.11530000000000        1.12160000000000
H           -3.02480000000000        6.25240000000000        1.39730000000000
H           -3.19090000000000        4.80090000000000        2.41970000000000
116
 energy: -220.412161102821 gnorm: 0.145842349471 xtb: 6.7.1 (edcfbbe)
C           -2.28237203988027        1.74541545927716       -3.10655962188030
C           -1.98083461688557        0.77342999553859       -2.16803481359071
C           -1.07749327893757        1.09564010729002       -1.11150381588014
C           -0.25895817097392        2.25795519007434       -1.24451607764076
C           -0.58932347332225        3.20680441681932       -2.22914066115583
C           -1.61470613404293        2.96875035028011       -3.09516895757323
C           -0.88140878809073        0.29699938995989        0.05646766730657
C            0.34443986114039        0.45616049916597        0.71737567342574
C            1.19764124275208        1.54702028173387        0.37667270546073
N            0.83401077349413        2.48618967000337       -0.50059274615703
C           -1.81961490664527       -0.59981586129239        0.65285449172464
C           -1.31960999389649       -1.50410706390556        1.64118413938330
N           -0.06805644542660       -1.46669253565963        2.12379785122369
C            0.72148847367793       -0.46029514516740        1.74197961059470
C            1.97593152363171       -0.29874903298230        2.35579562168250
C            2.78627968183012        0.76506471676145        2.01976641437508
C            2.41764300555682        1.68455828227002        1.06085305506617
C           -3.22493389106451       -0.55125552892564        0.42271741544813
C           -4.03568302669475       -1.52065174708928        0.98688525419236
C           -3.51771041655423       -2.45260598690959        1.87851171674240
C           -2.19639436138212       -2.44164724552314        2.21942784999811
O           -3.75131363179244        0.54222970284151       -0.23485508628627
O           -2.44478940485696       -0.51707151424689       -2.24742401025370
S           -2.09388099506616        4.29431723205733       -4.23965107079712
S           -4.65538588384080       -3.66515149990041        2.61468111845722
H           -0.03390008645244        4.12752830614400       -2.29906300840036
H           -3.03740640526257        1.57911893674158       -3.85650447993108
H            3.07707031793574        2.49746586943318        0.80479986229221
H            2.30651389596715       -1.01813191176781        3.08701090670039
H           -1.81630754959621       -3.13333530970868        2.95271141589820
H           -5.09197712642260       -1.55579171382736        0.78070925198896
O           -1.18256460548930        5.38923448997215       -3.80506985989338
O           -3.55663272155186        4.66271336784888       -3.50029422412928
C           -3.37250308822749        5.26941368722312       -2.25477017404578
S            4.39205869069296        0.91891900809865        2.84568290207082
O            4.73102531355321       -0.52149677957107        3.00172448263384
O            5.26653318878775        1.39021045590857        1.49489369543978
C            5.46930859598027        0.32653988331950        0.61232118272034
O           -5.39140717701148       -4.10194678078646        1.39473971219644
O           -3.49544898582813       -4.85591706457250        2.84625354821862
C           -3.17699761336580       -5.51637195812294        1.65932345757740
C           -5.08799399094485        0.42067997411880       -0.67209921825267
C           -3.15978018978708       -0.83959736792676       -3.41765297122971
H           -2.45942441326651       -6.30346791820530        1.88513573437498
H           -2.74566842205523       -4.81146871987124        0.94244288307398
H           -4.08848652255765       -5.94510833256874        1.23458799005959
H            6.10791998197425        0.66943976662879       -0.19959944379554
H            4.51149023065588       -0.02033895561492        0.21169971422044
H            5.94990651816588       -0.49984136972740        1.14484200999570
H           -3.39514841556336       -1.90316216795454       -3.38015547208351
H           -2.54996624620961       -0.63944719220758       -4.30306495637660
H           -4.09216659748794       -0.27167217503223       -3.47067669469191
H           -5.30487698379518        1.27896665289259       -1.30902329575784
H           -5.78574123582945        0.42418689032854        0.17029576478849
H           -5.20755421158789       -0.49933733223155       -1.24720587054538
H           -4.32984490808766        5.65460646956137       -1.90852528850027
H           -2.65461432563789        6.09041168694575       -2.34940747168618
H           -2.98732587131352        4.53890818252370       -1.53991717242414
C           -2.00016001279044        2.41762497926343        2.28052439263567
C           -2.04386905373156        1.43319342212787        3.24909326248410
C           -0.96476269894413        1.31300904978021        4.16696556494646
C            0.17500907190869        2.16165873796956        4.00515243142892
C            0.12869243223571        3.19968037649659        3.05242984420751
C           -0.93333386674346        3.30429715722859        2.20047433418445
C           -0.88279503330404        0.29386505282122        5.16364370837902
C            0.39446448319990       -0.00853833204869        5.65197706290175
C            1.47550575071513        0.88999770496197        5.41225531991203
N            1.33550581518537        1.98695521913375        4.66227313798861
C           -1.95509034230026       -0.48774156033176        5.69081584067686
C           -1.61583263321971       -1.76266117530838        6.23846660666998
N           -0.36341494696422       -2.11910019684052        6.55716131199788
C            0.60043055274307       -1.20813333475588        6.39590549240401
C            1.87053253381364       -1.43843432112895        6.95063915339268
C            2.87670510478050       -0.50541714216531        6.80726118241927
C            2.70913479106047        0.63030192495346        6.03995652840402
C           -3.29985521017082       -0.03059354511547        5.81266965286978
C           -4.28672735955029       -0.94631817602561        6.12991977276992
C           -3.95539550833972       -2.25939400616785        6.45633919841479
C           -2.65458307069286       -2.65754689156992        6.55665046015228
O           -3.53722773347344        1.32117932751764        5.71906259740737
O           -3.07265551846042        0.51417655817103        3.26825212601802
S           -0.90792680309258        4.59456799518486        0.92011466161354
S           -5.30637722673109       -3.43632692315080        6.73632633788835
H            0.96097043800522        3.87760561134495        2.96738477832550
H           -2.77585555542139        2.48149661077350        1.53616580531691
H            3.52731507287354        1.31846765518663        5.90407401928229
H            2.05989571967862       -2.34981993415019        7.49423641680699
H           -2.41196703585968       -3.64638113897483        6.90652567900008
H           -5.32693202880498       -0.66570653142242        6.12780421114248
O           -0.81869562458392        5.81618145664260        1.76593955163855
O           -2.53960739769886        4.49511225644918        0.52164749719243
C           -3.34223620134854        5.20742097156138        1.41709306705954
S            4.44820434919459       -0.81816528242313        7.66699411065237
O            4.47078592615835       -2.30811575854718        7.66577388017232
O            5.46355920676177       -0.37262204873310        6.41377500061887
C            5.54996637528798       -1.38189025779251        5.45231535663203
O           -5.86001651515438       -3.49798757361401        5.34846894565243
O           -4.35575015484949       -4.81667637830686        6.88499435639756
C           -4.24383462506578       -5.50998408078195        5.67696393402936
C           -4.78698838384083        1.75508264815354        6.20739114965618
C           -4.33018831731775        1.02947807328158        2.87990979916680
H           -3.61157541070076       -6.38178310374867        5.83320194432565
H           -3.80043216040885       -4.86671799837403        4.91507053804085
H           -5.23681625922303       -5.81959259430575        5.34232130648872
H            6.23667941581159       -1.05608064128038        4.67470579628205
H            4.56812328176448       -1.55880186789613        5.00557985162278
H            5.90453839380981       -2.30585426295042        5.91515452033690
H           -5.08623672792515        0.28932591806531        3.14419235862157
H           -4.36915332831710        1.21173725881925        1.80828867022462
H           -4.52500480218786        1.96337490821885        3.41026246097932
H           -4.78662298088098        2.84526415656305        6.19709065137425
H           -4.93314046228083        1.40833503779750        7.23388010402190
H           -5.60266602197153        1.39595973699815        5.57468987009649
H           -4.38257851174486        5.10870297967743        1.10843968962828
H           -3.04521607015002        6.25890700353845        1.40968430076767
H           -3.21255126385420        4.81362255876658        2.42918175990689
116
 energy: -220.432693375854 gnorm: 0.027516006413 xtb: 6.7.1 (edcfbbe)
C           -2.27702308385699        1.74619002272484       -3.11467242430477
C           -1.97660090000582        0.77595219344581       -2.17769018126443
C           -1.08186798796967        1.08476481991491       -1.12245562839294
C           -0.26648331557447        2.25539288382119       -1.24055616516314
C           -0.58976633240496        3.21825744992337       -2.22034871404124
C           -1.61085948458020        2.97620349207316       -3.08740332404668
C           -0.88976494232327        0.30054508655873        0.05425521334540
C            0.33680072755070        0.46153837251681        0.71993334660279
C            1.18839610246767        1.55281560799810        0.37970260381404
N            0.81218228011910        2.48035578048975       -0.49048635952699
C           -1.83338574604217       -0.58691994552536        0.65395010984100
C           -1.32517094866549       -1.49231003494015        1.64443668829243
N           -0.08026261532234       -1.45064950808912        2.11695150400797
C            0.71036909070977       -0.45155372942351        1.74951253480979
C            1.97256331283320       -0.29583153573870        2.36339022631265
C            2.77621515451532        0.77280139205740        2.02084587676751
C            2.41257518122312        1.69942694262747        1.06660881944992
C           -3.22776355226370       -0.55607969088314        0.42585375472311
C           -4.03578294188298       -1.52128635378443        0.99036772471100
C           -3.50787139043861       -2.45723436986882        1.87995530545745
C           -2.19161931629545       -2.44123541021617        2.23070838440306
O           -3.74358391104639        0.51223328060178       -0.24810331529525
O           -2.43972106364582       -0.49525203148885       -2.25368198373118
S           -2.07787290452596        4.31914999727347       -4.23853461602017
S           -4.67267911266427       -3.67958665872927        2.59435104664270
H           -0.02157405787739        4.13130603491930       -2.29263590410000
H           -3.02922653133134        1.58792312944527       -3.87067091461549
H            3.06864625214951        2.51521015950970        0.80845785052844
H            2.30591720366745       -1.02207954065598        3.08791469237172
H           -1.79956996722802       -3.12391083178074        2.96694739078333
H           -5.09312522818244       -1.57011430931538        0.78682618943144
O           -1.17004002699697        5.38485521567027       -3.85753545538458
O           -3.55042958753156        4.64677912962370       -3.50929800349374
C           -3.38476022964500        5.26930532972681       -2.25696734159102
S            4.40305964663017        0.89646239688547        2.83848430570922
O            4.72287124499695       -0.50875883221389        3.01370914464969
O            5.25644253824111        1.39256063878164        1.49001902866178
C            5.47505069229649        0.32868134137467        0.59720402904676
O           -5.43233756541111       -4.08053728628245        1.41759354854522
O           -3.50380405552665       -4.85593855769180        2.83406844356375
C           -3.17071165456144       -5.52807137164691        1.64784419179740
C           -5.08615016712116        0.41732032447144       -0.67896451332819
C           -3.15881601796017       -0.84178164035052       -3.41646891489469
H           -2.45853152907249       -6.30901751743886        1.89783561193188
H           -2.72748489465725       -4.83139368053574        0.92909968564497
H           -4.07378232351546       -5.95991411066625        1.21030105027587
H            6.11740530151248        0.68651310786088       -0.20067108581194
H            4.52321349207771       -0.02411832325897        0.18464833246090
H            5.95234500773044       -0.50417947791549        1.12247763054070
H           -3.37804759131993       -1.90699147259291       -3.35108743618286
H           -2.55881067601170       -0.64924166885280       -4.31274491992132
H           -4.09979705230809       -0.28536370421738       -3.48454086236075
H           -5.27573145674415        1.28771870541342       -1.30772235113424
H           -5.78990205377321        0.43040254220520        0.16178052523196
H           -5.23367176099554       -0.49929243851184       -1.25586045985294
H           -4.34723815696849        5.65534062404612       -1.93454304600597
H           -2.66664909957288        6.09146649046078       -2.34074397199753
H           -3.00590559163318        4.55013231419417       -1.52779588881673
C           -1.99115351459900        2.40650600176365        2.26952147001446
C           -2.04102049545831        1.43176809608094        3.24345947106273
C           -0.97130412142514        1.30167520472365        4.15470199420851
C            0.17724907390425        2.14763144666412        3.99334359971650
C            0.14092756176778        3.19756819357008        3.04736028871942
C           -0.92225859629057        3.29994293513063        2.19957079738476
C           -0.88796226525521        0.29424034099224        5.16273427053133
C            0.39173904868204       -0.00735099822266        5.65115308380224
C            1.47418307801820        0.88869610643355        5.40420421891613
N            1.32518607739714        1.97353577718115        4.65424846237303
C           -1.96221496265755       -0.47214757346619        5.69987537776524
C           -1.61498768618174       -1.75181100095631        6.24046365603704
N           -0.36890800373944       -2.10191216385316        6.54621419742486
C            0.59647240105347       -1.20463807315950        6.39871762578041
C            1.87166780371299       -1.44300931920116        6.95205106020253
C            2.87478304414521       -0.50517081355634        6.80148477296780
C            2.71404944781251        0.63597642110149        6.03959922888188
C           -3.30048963997240       -0.03082672034630        5.82268281114356
C           -4.28415290196329       -0.94637918564931        6.13708131834392
C           -3.94271548146272       -2.26623744610281        6.45299681176237
C           -2.64597931985291       -2.66434273280309        6.55865371675958
O           -3.53780349500225        1.30214439542483        5.72756977849708
O           -3.06792111806335        0.53614424914622        3.28447405211811
S           -0.89839391729535        4.62041167358751        0.93268322057718
S           -5.32061558016513       -3.43559251484071        6.70355947970648
H            0.97405260725969        3.87608022839379        2.97381816476244
H           -2.77116952478703        2.48257897744747        1.52895282983594
H            3.52863730013797        1.33007405167200        5.90531430087536
H            2.06075258133881       -2.35469743752363        7.49637337858690
H           -2.38902706430350       -3.64640172416584        6.91852121333460
H           -5.32831078491021       -0.67628997268347        6.14076036960560
O           -0.77388459559587        5.82011743693701        1.74058969672704
O           -2.52907174934288        4.49465587079277        0.53635331695073
C           -3.35130025324857        5.21293481191704        1.42351237890931
S            4.45498280955345       -0.84311024729382        7.67173733454821
O            4.47217037601234       -2.29605381244134        7.72670850907611
O            5.46233767868492       -0.37815107342892        6.43301793720060
C            5.56347538675325       -1.39176752272321        5.46072103246900
O           -5.89391510269652       -3.47742503839439        5.36038713514853
O           -4.40091042416026       -4.81981129898985        6.89457625973316
C           -4.24475526676813       -5.52227630674431        5.68183996584607
C           -4.78524429101063        1.75589903988804        6.20672782629480
C           -4.33110248156637        1.03437827297499        2.88555687918840
H           -3.61138454813298       -6.38480862196975        5.86985709747501
H           -3.78361464458509       -4.89048644008096        4.92223905250118
H           -5.22236647593965       -5.84577181235322        5.31597989209640
H            6.25225758996593       -1.05280105870940        4.69608576489862
H            4.58998165727036       -1.57692671928750        5.00081751992520
H            5.91771062355731       -2.31866976238113        5.91419864580445
H           -5.06603639519169        0.27598195333240        3.15694621137116
H           -4.38359941389574        1.21639588511484        1.81411140875714
H           -4.54406328866569        1.97152918640564        3.40696897907402
H           -4.75632238541712        2.84521538126783        6.18704608782889
H           -4.94644897790938        1.41630246812949        7.23554919216573
H           -5.61316914600524        1.40937920816159        5.57919919227248
H           -4.38112462126508        5.10259152354417        1.09178273029042
H           -3.06417694253992        6.26594435555313        1.42221194249330
H           -3.23861307297371        4.82420712399639        2.44048198018105
116
 energy: -220.439369804407 gnorm: 0.020231740096 xtb: 6.7.1 (edcfbbe)
C           -2.26750071737699        1.75626906116307       -3.12417182783296
C           -1.97354722372264        0.78269210399033       -2.18675071674548
C           -1.08659538335971        1.09112451036567       -1.12249391859817
C           -0.27446956668631        2.26585827033527       -1.23368840668077
C           -0.58892950999111        3.22922512084194       -2.21600935142936
C           -1.60269938833784        2.98560280514310       -3.09073457682093
C           -0.89686709158761        0.30647714443163        0.05655575409997
C            0.32682646940182        0.47214642074530        0.72794145179895
C            1.17603834466646        1.56627646812551        0.39184624711372
N            0.79764492234199        2.49358263110770       -0.47737573032874
C           -1.83962690925847       -0.58536527185271        0.65508640266594
C           -1.33237018367946       -1.48419366618732        1.65257017210222
N           -0.08914682885354       -1.43807883410144        2.12670394483741
C            0.70113682243960       -0.43918542053579        1.75851726487847
C            1.96619166185916       -0.28621999417306        2.36706966440221
C            2.76934036755485        0.78051230720187        2.02129527976394
C            2.40168601514232        1.71290670087919        1.07609435715973
C           -3.23485299583178       -0.56546392595296        0.42072372750052
C           -4.03917652097708       -1.53170788358608        0.99209469683768
C           -3.50741811935838       -2.46476052215386        1.88215212145639
C           -2.19309370147077       -2.43937408773142        2.23802883057607
O           -3.74573855810204        0.49384721852069       -0.26815681466672
O           -2.43650196266756       -0.48803362648840       -2.26135891950269
S           -2.07609619649014        4.31940485288577       -4.25792092717785
S           -4.67914564426346       -3.68743920153050        2.59861542548356
H           -0.01444995172398        4.13830758749595       -2.28198392750615
H           -3.01042554780993        1.59909459978330       -3.88895007857807
H            3.05200216407187        2.53403386012551        0.82133979571117
H            2.30096410719972       -1.01649541632072        3.08662160190098
H           -1.79258186529183       -3.11097497965563        2.98004209257850
H           -5.09602667060823       -1.58760883787415        0.79052793819294
O           -1.16423358548674        5.39246756408356       -3.92682023782085