      -----------------------------------------------------------      
     |                   =====================                   |     
     |                           x T B                           |     
     |                   =====================                   |     
     |                         S. Grimme                         |     
     |          Mulliken Center for Theoretical Chemistry        |     
     |                    University of Bonn                     |     
      -----------------------------------------------------------      

   * xtb version 6.6.1 (8d0f1dd) compiled by 'runner@Mac-1690902418499.local' on 2023-08-01

   xtb is free software: you can redistribute it and/or modify it under
   the terms of the GNU Lesser General Public License as published by
   the Free Software Foundation, either version 3 of the License, or
   (at your option) any later version.
   
   xtb is distributed in the hope that it will be useful,
   but WITHOUT ANY WARRANTY; without even the implied warranty of
   MERCHANTABILITY or FITNESS FOR A PARTICULAR PURPOSE.  See the
   GNU Lesser General Public License for more details.
   
   Cite this work as:
   * C. Bannwarth, E. Caldeweyher, S. Ehlert, A. Hansen, P. Pracht,
     J. Seibert, S. Spicher, S. Grimme, WIREs Comput. Mol. Sci., 2020, 11,
     e01493. DOI: 10.1002/wcms.1493
   
   for GFN2-xTB:
   * C. Bannwarth, S. Ehlert and S. Grimme., J. Chem. Theory Comput., 2019,
     15, 1652-1671. DOI: 10.1021/acs.jctc.8b01176
   for GFN1-xTB:
   * S. Grimme, C. Bannwarth, P. Shushkov, J. Chem. Theory Comput., 2017,
     13, 1989-2009. DOI: 10.1021/acs.jctc.7b00118
   for GFN0-xTB:
   * P. Pracht, E. Caldeweyher, S. Ehlert, S. Grimme, ChemRxiv, 2019, preprint.
     DOI: 10.26434/chemrxiv.8326202.v1
   for GFN-FF:
   * S. Spicher and S. Grimme, Angew. Chem. Int. Ed., 2020, 59, 15665-15673.
     DOI: 10.1002/anie.202004239
   
   for ALPB and GBSA implicit solvation:
   * S. Ehlert, M. Stahn, S. Spicher, S. Grimme, J. Chem. Theory Comput.,
     2021, 17, 4250-4261. DOI: 10.1021/acs.jctc.1c00471
   
   for DFT-D4:
   * E. Caldeweyher, C. Bannwarth and S. Grimme, J. Chem. Phys., 2017,
     147, 034112. DOI: 10.1063/1.4993215
   * E. Caldeweyher, S. Ehlert, A. Hansen, H. Neugebauer, S. Spicher,
     C. Bannwarth and S. Grimme, J. Chem. Phys., 2019, 150, 154122.
     DOI: 10.1063/1.5090222
   * E. Caldeweyher, J.-M. Mewes, S. Ehlert and S. Grimme, Phys. Chem. Chem. Phys.
     2020, 22, 8499-8512. DOI: 10.1039/D0CP00502A
   
   for sTDA-xTB:
   * S. Grimme and C. Bannwarth, J. Chem. Phys., 2016, 145, 054103.
     DOI: 10.1063/1.4959605
   
   in the mass-spec context:
   * V. Asgeirsson, C. Bauer and S. Grimme, Chem. Sci., 2017, 8, 4879.
     DOI: 10.1039/c7sc00601b
   * J. Koopman and S. Grimme, ACS Omega 2019, 4, 12, 15120-15133.
     DOI: 10.1021/acsomega.9b02011
   
   for metadynamics refer to:
   * S. Grimme, J. Chem. Theory Comput., 2019, 155, 2847-2862
     DOI: 10.1021/acs.jctc.9b00143
   
   for SPH calculations refer to:
   * S. Spicher and S. Grimme, J. Chem. Theory Comput., 2021, 17, 1701-1714
     DOI: 10.1021/acs.jctc.0c01306
   
   with help from (in alphabetical order)
   P. Atkinson, C. Bannwarth, F. Bohle, G. Brandenburg, E. Caldeweyher
   M. Checinski, S. Dohm, S. Ehlert, S. Ehrlich, I. Gerasimov, C. Hölzer
   A. Katbashev, J. Koopman, C. Lavigne, S. Lehtola, F. März, M. Müller,
   F. Musil, H. Neugebauer, J. Pisarek, C. Plett, P. Pracht, F. Pultar,
   J. Seibert, P. Shushkov, S. Spicher, M. Stahn, M. Steiner, T. Strunk,
   J. Stückrath, T. Rose, and J. Unsleber
   
 * started run on 2024/11/14 at 10:33:57.248     

           -------------------------------------------------
          |                Calculation Setup                |
           -------------------------------------------------

          program call               : xtb stacked_dimer_Nitro1.mol --opt --gfn2 --chrg -1 --uhf 0 --tight
          coordinate file            : stacked_dimer_Nitro1.mol
          omp threads                :                     8

   ID    Z sym.   atoms
    1    6 C      1-18, 27, 31-35, 46, 53-70, 79, 83-87, 98
    2    1 H      19-26, 28-30, 40-45, 47-52, 71-78, 80-82, 92-97, 99-104
    3    7 N      36, 38, 88, 90
    4    8 O      37, 39, 89, 91

molecular fragmentation (1/2 indicates fragments):
111111111111111111111111111111111111111111111111111122222222222222222222
22222222222222222222222222222222
# atoms in fragment 1/2:    52    52
 fragment masses (1/2) :      383.46      383.46
CMA distance (Bohr)    :   9.449
constraining FC (au)   :  0.0500
########################################################################
[WARNING] Please study the warnings concerning your input carefully
-1- prog_main_parseArguments: Unknown option '--tight' provided
########################################################################

           -------------------------------------------------
          |                 G F N 2 - x T B                 |
           -------------------------------------------------

        Reference                      10.1021/acs.jctc.8b01176
      * Hamiltonian:
        H0-scaling (s, p, d)           1.850000    2.230000    2.230000
        zeta-weighting                 0.500000
      * Dispersion:
        s8                             2.700000
        a1                             0.520000
        a2                             5.000000
        s9                             5.000000
      * Repulsion:
        kExp                           1.500000    1.000000
        rExp                           1.000000
      * Coulomb:
        alpha                          2.000000
        third order                    shell-resolved
        anisotropic                    true
        a3                             3.000000
        a5                             4.000000
        cn-shift                       1.200000
        cn-exp                         4.000000
        max-rad                        5.000000

q/qsh data taken from xtbrestart
CAMM data taken from xtbrestart

          ...................................................
          :                      SETUP                      :
          :.................................................:
          :  # basis functions                 278          :
          :  # atomic orbitals                 278          :
          :  # shells                          162          :
          :  # electrons                       291          :
          :  max. iterations                   250          :
          :  Hamiltonian                  GFN2-xTB          :
          :  restarted?                       true          :
          :  GBSA solvation                  false          :
          :  PC potential                    false          :
          :  electronic temp.          300.0000000     K    :
          :  accuracy                    1.0000000          :
          :  -> integral cutoff          0.2500000E+02      :
          :  -> integral neglect         0.1000000E-07      :
          :  -> SCF convergence          0.1000000E-05 Eh   :
          :  -> wf. convergence          0.1000000E-03 e    :
          :  Broyden damping             0.4000000          :
          ...................................................

 iter      E             dE          RMSdq      gap      omega  full diag
   1   -160.9991053 -0.160999E+03  0.118E+00    1.46       0.0  T
   2   -160.6878461  0.311259E+00  0.140E+00    0.17       1.0  T
   3   -160.9880153 -0.300169E+00  0.799E-01    0.58       1.0  T
   4   -160.9959448 -0.792943E-02  0.518E-01    0.59       1.0  T
   5   -161.0020308 -0.608598E-02  0.520E-01    0.64       1.0  T
   6   -161.0445216 -0.424909E-01  0.209E-01    0.56       1.0  T
   7   -161.0038942  0.406274E-01  0.497E-01    0.45       1.0  T
   8   -161.0128524 -0.895820E-02  0.437E-01    0.44       1.0  T
   9   -161.0365186 -0.236661E-01  0.264E-01    0.31       1.0  T
  10   -161.0425904 -0.607180E-02  0.209E-01    0.32       1.0  T
  11   -161.0508218 -0.823144E-02  0.779E-02    0.30       1.0  T
  12   -161.0517704 -0.948611E-03  0.410E-02    0.31       1.0  T
  13   -161.0520276 -0.257186E-03  0.229E-02    0.31       1.0  T
  14   -161.0521270 -0.994411E-04  0.800E-03    0.32       1.2  T
  15   -161.0521319 -0.484657E-05  0.645E-03    0.32       1.5  T
  16   -161.0521400 -0.814756E-05  0.200E-03    0.32       4.9  T
  17   -161.0521409 -0.844487E-06  0.502E-04    0.32      19.5  T
  18   -161.0521409 -0.369657E-07  0.259E-04    0.32      37.8  T

   *** convergence criteria satisfied after 18 iterations ***

         #    Occupation            Energy/Eh            Energy/eV
      -------------------------------------------------------------
         1        2.0000           -0.5884931             -16.0137
       ...           ...                  ...                  ...
       140        2.0000           -0.2689806              -7.3193
       141        2.0000           -0.2608943              -7.0993
       142        2.0000           -0.2597059              -7.0670
       143        2.0000           -0.2588015              -7.0423
       144        2.0000           -0.2577903              -7.0148
       145        1.5104           -0.1903984              -5.1810
       146        1.4866           -0.1903086              -5.1786 (HOMO)
       147        0.0030           -0.1786717              -4.8619 (LUMO)
       148        0.0000           -0.1741736              -4.7395
       149        0.0000           -0.1719593              -4.6792
       150                         -0.1684542              -4.5839
       151                         -0.1367918              -3.7223
       ...                                ...                  ...
       278                          0.8839290              24.0529
      -------------------------------------------------------------
                  HL-Gap            0.0116369 Eh            0.3167 eV
             Fermi-level           -0.1872701 Eh           -5.0959 eV

 SCC (total)                   0 d,  0 h,  0 min,  1.755 sec
 SCC setup                      ...        0 min,  0.000 sec (  0.015%)
 Dispersion                     ...        0 min,  0.001 sec (  0.063%)
 classical contributions        ...        0 min,  0.000 sec (  0.013%)
 integral evaluation            ...        0 min,  0.005 sec (  0.278%)
 iterations                     ...        0 min,  1.685 sec ( 96.020%)
 molecular gradient             ...        0 min,  0.036 sec (  2.032%)
 printout                       ...        0 min,  0.028 sec (  1.577%)

         :::::::::::::::::::::::::::::::::::::::::::::::::::::
         ::                     SUMMARY                     ::
         :::::::::::::::::::::::::::::::::::::::::::::::::::::
         :: total energy            -158.530611805089 Eh    ::
         :: gradient norm              0.125548994829 Eh/a0 ::
         :: HOMO-LUMO gap              0.316656283656 eV    ::
         ::.................................................::
         :: SCC energy              -161.052140921219 Eh    ::
         :: -> isotropic ES            0.241330599076 Eh    ::
         :: -> anisotropic ES          0.016603539134 Eh    ::
         :: -> anisotropic XC          0.057072511048 Eh    ::
         :: -> dispersion             -0.148535305207 Eh    ::
         :: repulsion energy           2.512185005021 Eh    ::
         :: add. restraining           0.000000000000 Eh    ::
         :: total charge              -1.000000744909 e     ::
         :::::::::::::::::::::::::::::::::::::::::::::::::::::

      ----------------------------------------------------------- 
     |                   =====================                   |
     |                        A N C O P T                        |
     |                   =====================                   |
     |               Approximate Normal Coordinate               |
     |                Rational Function Optimizer                |
      ----------------------------------------------------------- 

          ...................................................
          :                      SETUP                      :
          :.................................................:
          :   optimization level            normal          :
          :   max. optcycles                   312          :
          :   ANC micro-cycles                  20          :
          :   degrees of freedom               306          :
          :.................................................:
          :   RF solver                   davidson          :
          :   write xtbopt.log                true          :
          :   linear?                        false          :
          :   energy convergence         0.5000000E-05 Eh   :
          :   grad. convergence          0.1000000E-02 Eh/α :
          :   maxmium RF displ.          1.0000000          :
          :   Hlow (freq-cutoff)         0.1000000E-01      :
          :   Hmax (freq-cutoff)         5.0000000          :
          :   S6 in model hess.         20.0000000          :
          ...................................................

generating ANC from model Hessian ...
Using Lindh-Hessian (1995)
 Shifting diagonal of input Hessian by    1.2510469256584111E-002
 Lowest  eigenvalues of input Hessian
    0.010000    0.000000    0.000000    0.000000    0.000000    0.000000
    0.000000    0.012516    0.012591    0.012656    0.012698    0.012719
    0.012832    0.012918    0.013135    0.013224    0.013359    0.013626
 Highest eigenvalues
    2.144925    2.144929    2.196739    2.196749    2.385874    2.385896


........................................................................
.............................. CYCLE    1 ..............................
........................................................................

 iter      E             dE          RMSdq      gap      omega  full diag
   1   -161.0521409 -0.161052E+03  0.652E-05    0.32       0.0  T
   2   -161.0521407  0.259459E-06  0.108E-03    0.32       9.1  T
   3   -161.0521409 -0.260080E-06  0.333E-05    0.32     294.0  T
   4   -161.0521409 -0.177749E-09  0.140E-05    0.32     702.5  T
     SCC iter.                  ...        0 min,  0.294 sec
     gradient                   ...        0 min,  0.030 sec
 * total energy  :  -158.5306118 Eh     change       -0.1447626E-07 Eh
   gradient norm :     0.1255493 Eh/α   predicted     0.0000000E+00 (-100.00%)
   displ. norm   :     0.6644704 α      lambda       -0.5965931E-01
   maximum displ.:     0.2089812 α      in ANC's #1, #68, #47, ...

........................................................................
.............................. CYCLE    2 ..............................
........................................................................

 iter      E             dE          RMSdq      gap      omega  full diag
   1   -161.0908476 -0.161091E+03  0.190E-01    0.48       0.0  T
   2   -161.0907100  0.137589E-03  0.126E-01    0.41       1.0  T
   3   -161.0449696  0.457404E-01  0.470E-01    0.30       1.0  T
   4   -161.0813330 -0.363634E-01  0.223E-01    0.40       1.0  T
   5   -161.0865022 -0.516916E-02  0.154E-01    0.39       1.0  T
   6   -161.0912479 -0.474570E-02  0.428E-02    0.41       1.0  T
   7   -161.0915268 -0.278950E-03  0.204E-02    0.41       1.0  T
   8   -161.0915798 -0.530414E-04  0.131E-02    0.41       1.0  T
   9   -161.0916144 -0.345934E-04  0.411E-03    0.41       2.4  T
  10   -161.0916166 -0.213847E-05  0.257E-03    0.41       3.8  T
  11   -161.0916178 -0.125540E-05  0.848E-04    0.41      11.6  T
  12   -161.0916180 -0.141340E-06  0.231E-04    0.41      42.4  T
  13   -161.0916180  0.726766E-08  0.277E-04    0.41      35.3  T
     SCC iter.                  ...        0 min,  0.884 sec
     gradient                   ...        0 min,  0.035 sec
 * total energy  :  -158.5701449 Eh     change       -0.3953306E-01 Eh
   gradient norm :     0.0444519 Eh/α   predicted    -0.4300007E-01 (   8.77%)
   displ. norm   :     0.6352243 α      lambda       -0.1868520E-01
   maximum displ.:     0.3295920 α      in ANC's #1, #22, #47, ...

........................................................................
.............................. CYCLE    3 ..............................
........................................................................

 iter      E             dE          RMSdq      gap      omega  full diag
   1   -161.0993441 -0.161099E+03  0.903E-02    0.49       0.0  T
   2   -161.0709856  0.283585E-01  0.364E-01    0.40       1.0  T
   3   -161.0933083 -0.223227E-01  0.176E-01    0.44       1.0  T
   4   -161.0992568 -0.594849E-02  0.506E-02    0.45       1.0  T
   5   -161.0996278 -0.371021E-03  0.188E-02    0.45       1.0  T
   6   -161.0996424 -0.146384E-04  0.116E-02    0.45       1.0  T
   7   -161.0996658 -0.233905E-04  0.245E-03    0.45       4.0  T
   8   -161.0996652  0.614361E-06  0.247E-03    0.45       4.0  T
   9   -161.0996659 -0.701021E-06  0.148E-03    0.45       6.6  T
  10   -161.0996662 -0.347288E-06  0.742E-04    0.45      13.2  T
  11   -161.0996663 -0.691979E-07  0.461E-04    0.45      21.3  T
     SCC iter.                  ...        0 min,  0.409 sec
     gradient                   ...        0 min,  0.032 sec
 * total energy  :  -158.5851403 Eh     change       -0.1499547E-01 Eh
   gradient norm :     0.0214901 Eh/α   predicted    -0.1311243E-01 ( -12.56%)
   displ. norm   :     0.7030845 α      lambda       -0.1271970E-01
   maximum displ.:     0.3204290 α      in ANC's #1, #22, #12, ...

........................................................................
.............................. CYCLE    4 ..............................
........................................................................

 iter      E             dE          RMSdq      gap      omega  full diag
   1   -161.1026233 -0.161103E+03  0.920E-02    0.50       0.0  T
   2   -161.0653533  0.372700E-01  0.416E-01    0.40       1.0  T
   3   -161.1003294 -0.349761E-01  0.118E-01    0.47       1.0  T
   4   -161.1021320 -0.180265E-02  0.635E-02    0.47       1.0  T
   5   -161.1028965 -0.764529E-03  0.186E-02    0.48       1.0  T
   6   -161.1029519 -0.553972E-04  0.857E-03    0.48       1.1  T
   7   -161.1029647 -0.127550E-04  0.221E-03    0.48       4.4  T
   8   -161.1029611  0.362351E-05  0.439E-03    0.48       2.2  T
   9   -161.1029654 -0.429280E-05  0.493E-04    0.48      19.9  T
  10   -161.1029653  0.718610E-07  0.714E-04    0.48      13.7  T
  11   -161.1029654 -0.107707E-06  0.121E-04    0.48      81.3  T
     SCC iter.                  ...        0 min,  0.465 sec
     gradient                   ...        0 min,  0.030 sec
 * total energy  :  -158.5954368 Eh     change       -0.1029642E-01 Eh
   gradient norm :     0.0146865 Eh/α   predicted    -0.9503712E-02 (  -7.70%)
   displ. norm   :     0.7272922 α      lambda       -0.8455566E-02
   maximum displ.:     0.3545780 α      in ANC's #1, #22, #12, ...

........................................................................
.............................. CYCLE    5 ..............................
........................................................................

 iter      E             dE          RMSdq      gap      omega  full diag
   1   -161.1055856 -0.161106E+03  0.842E-02    0.48       0.0  T
   2   -161.0634656  0.421200E-01  0.441E-01    0.39       1.0  T
   3   -161.1051197 -0.416541E-01  0.746E-02    0.48       1.0  T
   4   -161.1053791 -0.259367E-03  0.571E-02    0.48       1.0  T
   5   -161.1059964 -0.617338E-03  0.724E-03    0.48       1.4  T
   6   -161.1059970 -0.577594E-06  0.492E-03    0.48       2.0  T
   7   -161.1060009 -0.388293E-05  0.178E-03    0.48       5.5  T
   8   -161.1059993  0.157784E-05  0.308E-03    0.48       3.2  T
   9   -161.1060013 -0.201562E-05  0.701E-04    0.48      14.0  T
  10   -161.1060014 -0.650270E-07  0.416E-04    0.48      23.6  T
  11   -161.1060014 -0.364218E-07  0.846E-05    0.48     115.9  T
     SCC iter.                  ...        0 min,  0.622 sec
     gradient                   ...        0 min,  0.037 sec
 * total energy  :  -158.6024245 Eh     change       -0.6987743E-02 Eh
   gradient norm :     0.0124822 Eh/α   predicted    -0.6464116E-02 (  -7.49%)
   displ. norm   :     0.7371272 α      lambda       -0.5919434E-02
   maximum displ.:     0.3334811 α      in ANC's #22, #1, #12, ...

........................................................................
.............................. CYCLE    6 ..............................
........................................................................

 iter      E             dE          RMSdq      gap      omega  full diag
   1   -161.1082473 -0.161108E+03  0.762E-02    0.48       0.0  T
   2   -161.0666728  0.415744E-01  0.435E-01    0.39       1.0  T
   3   -161.1080046 -0.413318E-01  0.642E-02    0.48       1.0  T
   4   -161.1082429 -0.238316E-03  0.484E-02    0.48       1.0  T
   5   -161.1086190 -0.376092E-03  0.870E-03    0.48       1.1  T
   6   -161.1086289 -0.982235E-05  0.449E-03    0.48       2.2  T
   7   -161.1086322 -0.333459E-05  0.199E-03    0.48       4.9  T
   8   -161.1086326 -0.432062E-06  0.131E-03    0.48       7.5  T
   9   -161.1086329 -0.322725E-06  0.466E-04    0.48      21.0  T
  10   -161.1086330 -0.421918E-07  0.878E-05    0.48     111.7  T
     SCC iter.                  ...        0 min,  0.634 sec
     gradient                   ...        0 min,  0.033 sec
 * total energy  :  -158.6073378 Eh     change       -0.4913291E-02 Eh
   gradient norm :     0.0090911 Eh/α   predicted    -0.4567906E-02 (  -7.03%)
   displ. norm   :     0.7340724 α      lambda       -0.4156858E-02
   maximum displ.:     0.3162636 α      in ANC's #22, #1, #12, ...

........................................................................
.............................. CYCLE    7 ..............................
........................................................................

 iter      E             dE          RMSdq      gap      omega  full diag
   1   -161.1109427 -0.161111E+03  0.685E-02    0.48       0.0  T
   2   -161.0699414  0.410013E-01  0.429E-01    0.39       1.0  T
   3   -161.1109028 -0.409614E-01  0.526E-02    0.48       1.0  T
   4   -161.1110543 -0.151478E-03  0.392E-02    0.48       1.0  T
   5   -161.1112747 -0.220400E-03  0.849E-03    0.48       1.2  T
   6   -161.1112868 -0.121131E-04  0.331E-03    0.48       3.0  T
   7   -161.1112888 -0.197620E-05  0.102E-03    0.48       9.6  T
   8   -161.1112888 -0.937140E-08  0.842E-04    0.48      11.6  T
   9   -161.1112889 -0.138183E-06  0.227E-04    0.48      43.1  T
     SCC iter.                  ...        0 min,  0.434 sec
     gradient                   ...        0 min,  0.032 sec
 * total energy  :  -158.6107824 Eh     change       -0.3444554E-02 Eh
   gradient norm :     0.0066054 Eh/α   predicted    -0.3198418E-02 (  -7.15%)
   displ. norm   :     0.7241071 α      lambda       -0.2918030E-02
   maximum displ.:     0.2946661 α      in ANC's #1, #22, #12, ...

........................................................................
.............................. CYCLE    8 ..............................
........................................................................

 iter      E             dE          RMSdq      gap      omega  full diag
   1   -161.1135957 -0.161114E+03  0.600E-02    0.48       0.0  T
   2   -161.0786509  0.349448E-01  0.393E-01    0.41       1.0  T
   3   -161.1134090 -0.347582E-01  0.515E-02    0.48       1.0  T
   4   -161.1136721 -0.263102E-03  0.309E-02    0.48       1.0  T
   5   -161.1138057 -0.133525E-03  0.575E-03    0.48       1.7  T
   6   -161.1138113 -0.562176E-05  0.156E-03    0.48       6.3  T
   7   -161.1138112  0.750832E-07  0.127E-03    0.48       7.7  T
   8   -161.1138112  0.100484E-07  0.120E-03    0.48       8.2  T
   9   -161.1138115 -0.311194E-06  0.300E-04    0.48      32.7  T
  10   -161.1138115 -0.168359E-07  0.775E-05    0.48     126.5  T
     SCC iter.                  ...        0 min,  0.386 sec
     gradient                   ...        0 min,  0.034 sec
 * total energy  :  -158.6131994 Eh     change       -0.2417017E-02 Eh
   gradient norm :     0.0058651 Eh/α   predicted    -0.2224025E-02 (  -7.98%)
   displ. norm   :     0.7140918 α      lambda       -0.2103610E-02
   maximum displ.:     0.2814550 α      in ANC's #1, #12, #5, ...

........................................................................
.............................. CYCLE    9 ..............................
........................................................................

 iter      E             dE          RMSdq      gap      omega  full diag
   1   -161.1160294 -0.161116E+03  0.546E-02    0.48       0.0  T
   2   -161.0884775  0.275519E-01  0.346E-01    0.43       1.0  T
   3   -161.1156571 -0.271796E-01  0.545E-02    0.48       1.0  T
   4   -161.1160999 -0.442819E-03  0.193E-02    0.49       1.0  T
   5   -161.1161389 -0.390278E-04  0.947E-03    0.49       1.0  T
   6   -161.1161587 -0.197349E-04  0.167E-03    0.49       5.9  T
   7   -161.1161588 -0.140206E-06  0.119E-03    0.49       8.3  T
   8   -161.1161590 -0.197253E-06  0.634E-04    0.49      15.5  T
   9   -161.1161590  0.929450E-08  0.603E-04    0.49      16.3  T
     SCC iter.                  ...        0 min,  0.358 sec
     gradient                   ...        0 min,  0.033 sec
 * total energy  :  -158.6149506 Eh     change       -0.1751195E-02 Eh
   gradient norm :     0.0051015 Eh/α   predicted    -0.1588151E-02 (  -9.31%)
   displ. norm   :     0.7134923 α      lambda       -0.1612334E-02
   maximum displ.:     0.3026178 α      in ANC's #5, #12, #1, ...

........................................................................
.............................. CYCLE   10 ..............................
........................................................................

 iter      E             dE          RMSdq      gap      omega  full diag
   1   -161.1181540 -0.161118E+03  0.500E-02    0.49       0.0  T
   2   -161.1154534  0.270064E-02  0.111E-01    0.48       1.0  T
   3   -161.1122148  0.323860E-02  0.162E-01    0.47       1.0  T
   4   -161.1180977 -0.588293E-02  0.181E-02    0.49       1.0  T
   5   -161.1181648 -0.670498E-04  0.312E-03    0.49       3.1  T
   6   -161.1181659 -0.116346E-05  0.134E-03    0.49       7.3  T
   7   -161.1181661 -0.177679E-06  0.543E-04    0.49      18.0  T
   8   -161.1181661 -0.520191E-08  0.292E-04    0.49      33.5  T
     SCC iter.                  ...        0 min,  0.386 sec
     gradient                   ...        0 min,  0.031 sec
 * total energy  :  -158.6163165 Eh     change       -0.1365883E-02 Eh
   gradient norm :     0.0043340 Eh/α   predicted    -0.1216571E-02 ( -10.93%)
   displ. norm   :     0.7332138 α      lambda       -0.1377459E-02
   maximum displ.:     0.3623112 α      in ANC's #5, #12, #1, ...

........................................................................
.............................. CYCLE   11 ..............................
........................................................................

 iter      E             dE          RMSdq      gap      omega  full diag
   1   -161.1196169 -0.161120E+03  0.526E-02    0.49       0.0  T
   2   -161.1192583  0.358577E-03  0.505E-02    0.49       1.0  T
   3   -161.0954104  0.238479E-01  0.322E-01    0.44       1.0  T
   4   -161.1195522 -0.241418E-01  0.216E-02    0.49       1.0  T
   5   -161.1196000 -0.478621E-04  0.102E-02    0.49       1.0  T
   6   -161.1196237 -0.236762E-04  0.139E-03    0.49       7.1  T
   7   -161.1196237 -0.178113E-08  0.114E-03    0.49       8.6  T
   8   -161.1196238 -0.328999E-07  0.922E-04    0.49      10.6  T
   9   -161.1196239 -0.174067E-06  0.283E-04    0.49      34.7  T
     SCC iter.                  ...        0 min,  0.441 sec
     gradient                   ...        0 min,  0.031 sec
 * total energy  :  -158.6175166 Eh     change       -0.1200102E-02 Eh
   gradient norm :     0.0042008 Eh/α   predicted    -0.1059002E-02 ( -11.76%)
   displ. norm   :     0.7680851 α      lambda       -0.1314066E-02
   maximum displ.:     0.4310049 α      in ANC's #5, #12, #1, ...

........................................................................
.............................. CYCLE   12 ..............................
........................................................................

 iter      E             dE          RMSdq      gap      omega  full diag
   1   -161.1202263 -0.161120E+03  0.608E-02    0.50       0.0  T
   2   -161.0963961  0.238302E-01  0.322E-01    0.46       1.0  T
   3   -161.1193723 -0.229762E-01  0.715E-02    0.49       1.0  T
   4   -161.1199625 -0.590244E-03  0.423E-02    0.50       1.0  T
   5   -161.1203118 -0.349247E-03  0.109E-02    0.50       1.0  T
   6   -161.1203380 -0.262400E-04  0.208E-03    0.50       4.7  T
   7   -161.1203385 -0.512525E-06  0.118E-03    0.50       8.3  T
   8   -161.1203385  0.207441E-07  0.115E-03    0.50       8.5  T
   9   -161.1203388 -0.270417E-06  0.379E-04    0.50      25.9  T
  10   -161.1203388 -0.301467E-07  0.562E-05    0.50     174.6  T
     SCC iter.                  ...        0 min,  0.422 sec
     gradient                   ...        0 min,  0.030 sec
 * total energy  :  -158.6186826 Eh     change       -0.1166023E-02 Eh
   gradient norm :     0.0053476 Eh/α   predicted    -0.1044653E-02 ( -10.41%)
   displ. norm   :     0.7325044 α      lambda       -0.1217121E-02
   maximum displ.:     0.4465329 α      in ANC's #5, #12, #1, ...

........................................................................
.............................. CYCLE   13 ..............................
........................................................................

 iter      E             dE          RMSdq      gap      omega  full diag
   1   -161.1205108 -0.161121E+03  0.621E-02    0.50       0.0  T
   2   -161.0898605  0.306503E-01  0.366E-01    0.45       1.0  T
   3   -161.1200827 -0.302222E-01  0.594E-02    0.50       1.0  T
   4   -161.1203079 -0.225198E-03  0.410E-02    0.50       1.0  T
   5   -161.1206532 -0.345265E-03  0.108E-02    0.50       1.0  T
   6   -161.1206731 -0.199209E-04  0.544E-03    0.50       1.8  T
   7   -161.1206801 -0.697257E-05  0.672E-04    0.50      14.6  T
   8   -161.1206796  0.484078E-06  0.150E-03    0.50       6.5  T
   9   -161.1206801 -0.528813E-06  0.180E-04    0.50      54.5  T
  10   -161.1206801 -0.251489E-08  0.114E-04    0.50      86.0  T
     SCC iter.                  ...        0 min,  0.841 sec
     gradient                   ...        0 min,  0.031 sec
 * total energy  :  -158.6197756 Eh     change       -0.1092983E-02 Eh
   gradient norm :     0.0076612 Eh/α   predicted    -0.9350976E-03 ( -14.45%)
   displ. norm   :     0.6941835 α      lambda       -0.1206477E-02
   maximum displ.:     0.4476347 α      in ANC's #5, #12, #6, ...

........................................................................
.............................. CYCLE   14 ..............................
........................................................................

 iter      E             dE          RMSdq      gap      omega  full diag
   1   -161.1213218 -0.161121E+03  0.585E-02    0.50       0.0  T
   2   -161.0964708  0.248510E-01  0.329E-01    0.47       1.0  T
   3   -161.1205681 -0.240973E-01  0.681E-02    0.50       1.0  T
   4   -161.1211800 -0.611953E-03  0.340E-02    0.51       1.0  T
   5   -161.1213835 -0.203523E-03  0.149E-02    0.51       1.0  T
   6   -161.1214319 -0.483524E-04  0.456E-03    0.51       2.1  T
   7   -161.1214367 -0.484474E-05  0.808E-04    0.51      12.1  T
   8   -161.1214364  0.358508E-06  0.143E-03    0.51       6.9  T
   9   -161.1214368 -0.440211E-06  0.403E-04    0.51      24.3  T
  10   -161.1214368 -0.354719E-07  0.691E-05    0.51     141.9  T
     SCC iter.                  ...        0 min,  0.489 sec
     gradient                   ...        0 min,  0.030 sec
 * total energy  :  -158.6208884 Eh     change       -0.1112854E-02 Eh
   gradient norm :     0.0085849 Eh/α   predicted    -0.8939341E-03 ( -19.67%)
   displ. norm   :     0.7135090 α      lambda       -0.1367441E-02
   maximum displ.:     0.4761318 α      in ANC's #5, #6, #7, ...

........................................................................
.............................. CYCLE   15 ..............................
........................................................................

 iter      E             dE          RMSdq      gap      omega  full diag
   1   -161.1233141 -0.161123E+03  0.562E-02    0.51       0.0  T
   2   -161.1232649  0.492291E-04  0.366E-02    0.51       1.0  T
   3   -161.0976663  0.255985E-01  0.332E-01    0.46       1.0  T
   4   -161.1230648 -0.253984E-01  0.370E-02    0.52       1.0  T
   5   -161.1233202 -0.255425E-03  0.274E-03    0.52       3.6  T
   6   -161.1233197  0.537298E-06  0.268E-03    0.52       3.7  T
   7   -161.1233211 -0.146061E-05  0.781E-04    0.52      12.6  T
   8   -161.1233211  0.140962E-07  0.690E-04    0.52      14.2  T
   9   -161.1233212 -0.868973E-07  0.151E-04    0.52      65.1  T
     SCC iter.                  ...        0 min,  0.434 sec
     gradient                   ...        0 min,  0.037 sec
 * total energy  :  -158.6221627 Eh     change       -0.1274326E-02 Eh
   gradient norm :     0.0075538 Eh/α   predicted    -0.1031802E-02 ( -19.03%)
   displ. norm   :     0.7895948 α      lambda       -0.1489666E-02
   maximum displ.:     0.5348237 α      in ANC's #5, #6, #7, ...

........................................................................
.............................. CYCLE   16 ..............................
........................................................................

 iter      E             dE          RMSdq      gap      omega  full diag
   1   -161.1239701 -0.161124E+03  0.709E-02    0.52       0.0  T
   2   -161.0816624  0.423078E-01  0.435E-01    0.43       1.0  T
   3   -161.1239637 -0.423013E-01  0.508E-02    0.52       1.0  T
   4   -161.1237304  0.233266E-03  0.516E-02    0.52       1.0  T
   5   -161.1242964 -0.565958E-03  0.381E-03    0.52       2.6  T
   6   -161.1242974 -0.107069E-05  0.256E-03    0.52       3.8  T
   7   -161.1242986 -0.112899E-05  0.106E-03    0.52       9.2  T
   8   -161.1242986 -0.388778E-07  0.816E-04    0.52      12.0  T
   9   -161.1242986  0.260459E-08  0.774E-04    0.52      12.7  T
     SCC iter.                  ...        0 min,  0.473 sec
     gradient                   ...        0 min,  0.036 sec
 * total energy  :  -158.6235882 Eh     change       -0.1425506E-02 Eh
   gradient norm :     0.0076194 Eh/α   predicted    -0.1209209E-02 ( -15.17%)
   displ. norm   :     0.8220461 α      lambda       -0.1580924E-02
   maximum displ.:     0.5627390 α      in ANC's #5, #6, #7, ...

........................................................................
.............................. CYCLE   17 ..............................
........................................................................

 iter      E             dE          RMSdq      gap      omega  full diag
   1   -161.1246116 -0.161125E+03  0.895E-02    0.53       0.0  T
   2   -161.0731705  0.514411E-01  0.492E-01    0.37       1.0  T
   3   -161.1253541 -0.521836E-01  0.479E-02    0.53       1.0  T
   4   -161.1210308  0.432329E-02  0.143E-01    0.52       1.0  T
   5   -161.1255951 -0.456426E-02  0.653E-03    0.53       1.5  T
   6   -161.1255885  0.659185E-05  0.781E-03    0.53       1.3  T
   7   -161.1255993 -0.108264E-04  0.351E-03    0.53       2.8  T
   8   -161.1255958  0.352091E-05  0.528E-03    0.53       1.9  T
   9   -161.1255967 -0.915119E-06  0.490E-03    0.53       2.0  T
  10   -161.1256022 -0.549725E-05  0.277E-04    0.53      35.4  T
  11   -161.1256022 -0.121623E-07  0.154E-04    0.53      63.7  T
  12   -161.1256022 -0.494202E-08  0.290E-05    0.53     338.4  T
     SCC iter.                  ...        0 min,  0.773 sec
     gradient                   ...        0 min,  0.038 sec
 * total energy  :  -158.6251165 Eh     change       -0.1528220E-02 Eh
   gradient norm :     0.0077301 Eh/α   predicted    -0.1324627E-02 ( -13.32%)
   displ. norm   :     0.8263049 α      lambda       -0.1640259E-02
   maximum displ.:     0.5729335 α      in ANC's #5, #6, #7, ...

........................................................................
.............................. CYCLE   18 ..............................
........................................................................

 iter      E             dE          RMSdq      gap      omega  full diag
   1   -161.1256918 -0.161126E+03  0.931E-02    0.54       0.0  T
   2   -161.0733748  0.523171E-01  0.500E-01    0.37       1.0  T
   3   -161.1263628 -0.529880E-01  0.573E-02    0.54       1.0  T
   4   -161.1160026  0.103602E-01  0.220E-01    0.52       1.0  T
   5   -161.1266109 -0.106082E-01  0.328E-02    0.54       1.0  T
   6   -161.1268419 -0.231062E-03  0.700E-03    0.54       1.4  T
   7   -161.1268503 -0.837007E-05  0.322E-03    0.54       3.0  T
   8   -161.1268472  0.309880E-05  0.493E-03    0.54       2.0  T
   9   -161.1268475 -0.317639E-06  0.478E-03    0.54       2.0  T
  10   -161.1268527 -0.524223E-05  0.106E-04    0.54      92.3  T
  11   -161.1268527  0.227567E-08  0.131E-04    0.54      75.1  T
  12   -161.1268527 -0.349436E-08  0.233E-05    0.54     421.7  T
     SCC iter.                  ...        0 min,  0.843 sec
     gradient                   ...        0 min,  0.038 sec
 * total energy  :  -158.6266929 Eh     change       -0.1576465E-02 Eh
   gradient norm :     0.0080664 Eh/α   predicted    -0.1380098E-02 ( -12.46%)
   displ. norm   :     0.8110358 α      lambda       -0.1634391E-02
   maximum displ.:     0.5668525 α      in ANC's #5, #6, #7, ...

........................................................................
.............................. CYCLE   19 ..............................
........................................................................

 iter      E             dE          RMSdq      gap      omega  full diag
   1   -161.1286644 -0.161129E+03  0.922E-02    0.55       0.0  T
   2   -161.0759999  0.526645E-01  0.503E-01    0.37       1.0  T
   3   -161.1291848 -0.531849E-01  0.632E-02    0.54       1.0  T
   4   -161.1157420  0.134428E-01  0.251E-01    0.53       1.0  T
   5   -161.1298487 -0.141067E-01  0.661E-03    0.55       1.5  T
   6   -161.1297356  0.113154E-03  0.230E-02    0.55       1.0  T
   7   -161.1298427 -0.107082E-03  0.752E-03    0.55       1.3  T
   8   -161.1298500 -0.738671E-05  0.508E-03    0.55       1.9  T
   9   -161.1298551 -0.506517E-05  0.188E-03    0.55       5.2  T
  10   -161.1298559 -0.751119E-06  0.450E-04    0.55      21.8  T
  11   -161.1298559 -0.425829E-07  0.102E-04    0.55      95.8  T
     SCC iter.                  ...        0 min,  0.906 sec
     gradient                   ...        0 min,  0.035 sec
 * total energy  :  -158.6282347 Eh     change       -0.1541741E-02 Eh
   gradient norm :     0.0089864 Eh/α   predicted    -0.1354730E-02 ( -12.13%)
   displ. norm   :     0.7888259 α      lambda       -0.1583506E-02
   maximum displ.:     0.5595714 α      in ANC's #5, #6, #7, ...

........................................................................
.............................. CYCLE   20 ..............................
........................................................................

 iter      E             dE          RMSdq      gap      omega  full diag
   1   -161.1295751 -0.161130E+03  0.796E-02    0.56       0.0  T
   2   -161.0784132  0.511619E-01  0.490E-01    0.42       1.0  T
   3   -161.1303370 -0.519238E-01  0.311E-02    0.56       1.0  T
   4   -161.1300019  0.335084E-03  0.429E-02    0.56       1.0  T
   5   -161.1302687 -0.266811E-03  0.194E-02    0.56       1.0  T
   6   -161.1303032 -0.345220E-04  0.148E-02    0.56       1.0  T
   7   -161.1303504 -0.471330E-04  0.302E-03    0.56       3.2  T
   8   -161.1303484  0.193762E-05  0.421E-03    0.56       2.3  T
   9   -161.1303519 -0.348295E-05  0.157E-03    0.56       6.2  T
  10   -161.1303524 -0.474615E-06  0.567E-04    0.56      17.3  T
  11   -161.1303524 -0.599975E-07  0.248E-04    0.56      39.5  T
     SCC iter.                  ...        0 min,  0.526 sec
     gradient                   ...        0 min,  0.032 sec
 * total energy  :  -158.6296738 Eh     change       -0.1439113E-02 Eh
   gradient norm :     0.0089243 Eh/α   predicted    -0.1284420E-02 ( -10.75%)
   displ. norm   :     0.7376007 α      lambda       -0.1407092E-02
   maximum displ.:     0.5267205 α      in ANC's #5, #6, #4, ...
 * RMSD in coord.:     1.1374649 α      energy gain  -0.9906198E-01 Eh

generating ANC from model Hessian ...
Using Lindh-Hessian (1995)
 Shifting diagonal of input Hessian by    1.0027316807337374E-002
 Lowest  eigenvalues of input Hessian
    0.010000    0.000000    0.000000    0.000000    0.000000    0.000000
    0.000000    0.010042    0.010134    0.010274    0.010345    0.010408
    0.010439    0.010507    0.010690    0.010871    0.010988    0.011240
 Highest eigenvalues
    2.127644    2.128314    2.178070    2.183219    2.325220    2.333898


........................................................................
.............................. CYCLE   21 ..............................
........................................................................

 iter      E             dE          RMSdq      gap      omega  full diag
   1   -161.1335180 -0.161134E+03  0.538E-02    0.57       0.0  T
   2   -161.1041327  0.293852E-01  0.364E-01    0.51       1.0  T
   3   -161.1326646 -0.285318E-01  0.719E-02    0.56       1.0  T
   4   -161.1333943 -0.729790E-03  0.386E-02    0.57       1.0  T
   5   -161.1336650 -0.270671E-03  0.642E-03    0.57       1.5  T
   6   -161.1336726 -0.759732E-05  0.238E-03    0.57       4.1  T
   7   -161.1336735 -0.901674E-06  0.104E-03    0.57       9.4  T
   8   -161.1336736 -0.129765E-06  0.653E-04    0.57      15.0  T
   9   -161.1336737 -0.777176E-07  0.175E-04    0.57      56.2  T
     SCC iter.                  ...        0 min,  0.297 sec
     gradient                   ...        0 min,  0.030 sec
 * total energy  :  -158.6309173 Eh     change       -0.1243500E-02 Eh
   gradient norm :     0.0080365 Eh/α   predicted     0.0000000E+00 (-100.00%)
   displ. norm   :     0.1719111 α      lambda       -0.4503845E-03
   maximum displ.:     0.0773750 α      in ANC's #12, #10, #9, ...

........................................................................
.............................. CYCLE   22 ..............................
........................................................................

 iter      E             dE          RMSdq      gap      omega  full diag
   1   -161.1329049 -0.161133E+03  0.447E-02    0.57       0.0  T
   2   -161.0923625  0.405424E-01  0.432E-01    0.49       1.0  T
   3   -161.1330417 -0.406792E-01  0.360E-02    0.57       1.0  T
   4   -161.1331140 -0.723229E-04  0.295E-02    0.57       1.0  T
   5   -161.1332968 -0.182824E-03  0.723E-03    0.57       1.4  T
   6   -161.1332834  0.133845E-04  0.105E-02    0.57       1.0  T
   7   -161.1333075 -0.240826E-04  0.881E-04    0.57      11.1  T
   8   -161.1333076 -0.347525E-07  0.727E-04    0.57      13.5  T
   9   -161.1333077 -0.107969E-06  0.218E-04    0.57      44.9  T
     SCC iter.                  ...        0 min,  0.399 sec
     gradient                   ...        0 min,  0.033 sec
 * total energy  :  -158.6313299 Eh     change       -0.4126044E-03 Eh
   gradient norm :     0.0042561 Eh/α   predicted    -0.2318480E-03 ( -43.81%)
   displ. norm   :     0.6374065 α      lambda       -0.1362676E-02
   maximum displ.:     0.2844142 α      in ANC's #12, #10, #9, ...

........................................................................
.............................. CYCLE   23 ..............................
........................................................................

 iter      E             dE          RMSdq      gap      omega  full diag
   1   -161.1312929 -0.161131E+03  0.929E-02    0.56       0.0  T
   2   -161.0846064  0.466866E-01  0.479E-01    0.43       1.0  T
   3   -161.1303713 -0.457649E-01  0.105E-01    0.56       1.0  T
   4   -161.1082484  0.221228E-01  0.329E-01    0.52       1.0  T
   5   -161.1303110 -0.220626E-01  0.102E-01    0.56       1.0  T
   6   -161.1325612 -0.225017E-02  0.177E-02    0.57       1.0  T
   7   -161.1326249 -0.637231E-04  0.421E-03    0.57       2.3  T
   8   -161.1326265 -0.159734E-05  0.299E-03    0.57       3.3  T
   9   -161.1326242  0.233220E-05  0.435E-03    0.57       2.3  T
  10   -161.1326279 -0.367501E-05  0.168E-03    0.57       5.8  T
  11   -161.1326285 -0.603459E-06  0.327E-04    0.57      30.0  T
  12   -161.1326285 -0.576355E-08  0.273E-04    0.57      35.9  T
     SCC iter.                  ...        0 min,  0.528 sec
     gradient                   ...        0 min,  0.032 sec
 * total energy  :  -158.6324281 Eh     change       -0.1098214E-02 Eh
   gradient norm :     0.0075856 Eh/α   predicted    -0.9581578E-03 ( -12.75%)
   displ. norm   :     0.6596667 α      lambda       -0.1015591E-02
   maximum displ.:     0.2959872 α      in ANC's #9, #10, #12, ...

........................................................................
.............................. CYCLE   24 ..............................
........................................................................

 iter      E             dE          RMSdq      gap      omega  full diag
   1   -161.1327205 -0.161133E+03  0.526E-02    0.57       0.0  T
   2   -161.1316956  0.102487E-02  0.740E-02    0.56       1.0  T
   3   -161.1181312  0.135644E-01  0.256E-01    0.54       1.0  T
   4   -161.1326269 -0.144957E-01  0.286E-02    0.57       1.0  T
   5   -161.1326655 -0.386243E-04  0.177E-02    0.57       1.0  T
   6   -161.1327382 -0.727204E-04  0.134E-03    0.57       7.3  T
   7   -161.1327383 -0.952890E-07  0.853E-04    0.57      11.5  T
   8   -161.1327384 -0.709041E-07  0.370E-04    0.57      26.5  T
     SCC iter.                  ...        0 min,  0.273 sec
     gradient                   ...        0 min,  0.035 sec
 * total energy  :  -158.6332909 Eh     change       -0.8627954E-03 Eh
   gradient norm :     0.0117716 Eh/α   predicted    -0.7287696E-03 ( -15.53%)
   displ. norm   :     0.6613232 α      lambda       -0.9600095E-03
   maximum displ.:     0.3058503 α      in ANC's #9, #10, #12, ...

........................................................................
.............................. CYCLE   25 ..............................
........................................................................

 iter      E             dE          RMSdq      gap      omega  full diag
   1   -161.1339403 -0.161134E+03  0.838E-02    0.56       0.0  T
   2   -161.0814536  0.524868E-01  0.499E-01    0.41       1.0  T
   3   -161.1345535 -0.531000E-01  0.496E-02    0.57       1.0  T
   4   -161.1290497  0.550384E-02  0.162E-01    0.55       1.0  T
   5   -161.1349191 -0.586941E-02  0.755E-03    0.57       1.3  T
   6   -161.1348880  0.311295E-04  0.135E-02    0.57       1.0  T
   7   -161.1349246 -0.366564E-04  0.450E-03    0.57       2.2  T
   8   -161.1349262 -0.151734E-05  0.372E-03    0.57       2.6  T
   9   -161.1349276 -0.144913E-05  0.271E-03    0.57       3.6  T
  10   -161.1349291 -0.150986E-05  0.801E-04    0.57      12.2  T
  11   -161.1349292 -0.134307E-06  0.214E-04    0.57      45.9  T
  12   -161.1349293 -0.977116E-08  0.365E-05    0.57     268.9  T
     SCC iter.                  ...        0 min,  0.441 sec
     gradient                   ...        0 min,  0.033 sec
 * total energy  :  -158.6341176 Eh     change       -0.8266834E-03 Eh
   gradient norm :     0.0104406 Eh/α   predicted    -0.6899377E-03 ( -16.54%)
   displ. norm   :     0.6395502 α      lambda       -0.9009183E-03
   maximum displ.:     0.3039500 α      in ANC's #9, #10, #7, ...

........................................................................
.............................. CYCLE   26 ..............................
........................................................................

 iter      E             dE          RMSdq      gap      omega  full diag
   1   -161.1364859 -0.161136E+03  0.114E-01    0.55       0.0  T
   2   -161.0809932  0.554927E-01  0.531E-01    0.32       1.0  T
   3   -161.1323753 -0.513822E-01  0.171E-01    0.54       1.0  T
   4   -161.1078031  0.245722E-01  0.375E-01    0.51       1.0  T
   5   -161.1288901 -0.210870E-01  0.209E-01    0.54       1.0  T
   6   -161.1386679 -0.977773E-02  0.245E-02    0.56       1.0  T
   7   -161.1387291 -0.612606E-04  0.184E-02    0.56       1.0  T
   8   -161.1388037 -0.745536E-04  0.368E-03    0.56       2.7  T
   9   -161.1388044 -0.724627E-06  0.314E-03    0.56       3.1  T
  10   -161.1388065 -0.213887E-05  0.547E-04    0.56      17.9  T
  11   -161.1388066 -0.588215E-07  0.166E-04    0.56      59.1  T
  12   -161.1388066  0.419217E-08  0.206E-04    0.56      47.6  T
     SCC iter.                  ...        0 min,  0.448 sec
     gradient                   ...        0 min,  0.033 sec
 * total energy  :  -158.6348393 Eh     change       -0.7217389E-03 Eh
   gradient norm :     0.0056734 Eh/α   predicted    -0.6347086E-03 ( -12.06%)
   displ. norm   :     0.5605277 α      lambda       -0.6183828E-03
   maximum displ.:     0.2677191 α      in ANC's #9, #10, #7, ...

........................................................................
.............................. CYCLE   27 ..............................
........................................................................

 iter      E             dE          RMSdq      gap      omega  full diag
   1   -161.1395631 -0.161140E+03  0.985E-02    0.54       0.0  T
   2   -161.0843582  0.552050E-01  0.520E-01    0.36       1.0  T
   3   -161.1391002 -0.547421E-01  0.993E-02    0.54       1.0  T
   4   -161.1168721  0.222282E-01  0.331E-01    0.51       1.0  T
   5   -161.1383873 -0.215152E-01  0.111E-01    0.54       1.0  T
   6   -161.1405783 -0.219107E-02  0.505E-02    0.55       1.0  T
   7   -161.1411464 -0.568007E-03  0.773E-03    0.55       1.3  T
   8   -161.1411597 -0.133283E-04  0.155E-03    0.55       6.3  T
   9   -161.1411601 -0.408716E-06  0.690E-04    0.55      14.2  T
  10   -161.1411602 -0.918140E-07  0.205E-04    0.55      47.9  T
     SCC iter.                  ...        0 min,  0.357 sec
     gradient                   ...        0 min,  0.037 sec
 * total energy  :  -158.6353204 Eh     change       -0.4810480E-03 Eh
   gradient norm :     0.0044514 Eh/α   predicted    -0.4063422E-03 ( -15.53%)
   displ. norm   :     0.4755113 α      lambda       -0.4660457E-03
   maximum displ.:     0.2226925 α      in ANC's #7, #9, #10, ...

........................................................................
.............................. CYCLE   28 ..............................
........................................................................

 iter      E             dE          RMSdq      gap      omega  full diag
   1   -161.1416961 -0.161142E+03  0.728E-02    0.53       0.0  T
   2   -161.0905934  0.511027E-01  0.487E-01    0.42       1.0  T
   3   -161.1422832 -0.516897E-01  0.300E-02    0.54       1.0  T
   4   -161.1422424  0.407224E-04  0.200E-02    0.54       1.0  T
   5   -161.1422909 -0.484582E-04  0.981E-03    0.54       1.0  T
   6   -161.1423036 -0.126574E-04  0.619E-03    0.54       1.6  T
   7   -161.1423120 -0.840977E-05  0.387E-04    0.54      25.4  T
   8   -161.1423120  0.567903E-08  0.316E-04    0.54      31.1  T
   9   -161.1423120 -0.134102E-07  0.137E-04    0.54      71.5  T
     SCC iter.                  ...        0 min,  0.362 sec
     gradient                   ...        0 min,  0.036 sec
 * total energy  :  -158.6357063 Eh     change       -0.3859626E-03 Eh
   gradient norm :     0.0061464 Eh/α   predicted    -0.2857258E-03 ( -25.97%)
   displ. norm   :     0.5256511 α      lambda       -0.5454935E-03
   maximum displ.:     0.2553442 α      in ANC's #7, #9, #8, ...

........................................................................
.............................. CYCLE   29 ..............................
........................................................................

 iter      E             dE          RMSdq      gap      omega  full diag
   1   -161.1416540 -0.161142E+03  0.758E-02    0.52       0.0  T
   2   -161.0955187  0.461353E-01  0.461E-01    0.44       1.0  T
   3   -161.1411973 -0.456786E-01  0.711E-02    0.52       1.0  T
   4   -161.1413235 -0.126154E-03  0.580E-02    0.53       1.0  T
   5   -161.1420261 -0.702577E-03  0.783E-03    0.53       1.3  T
   6   -161.1420332 -0.713639E-05  0.512E-03    0.53       1.9  T
   7   -161.1420388 -0.563513E-05  0.768E-04    0.53      12.8  T
   8   -161.1420386  0.262163E-06  0.127E-03    0.53       7.7  T
   9   -161.1420389 -0.349770E-06  0.157E-04    0.53      62.5  T
  10   -161.1420389 -0.787253E-09  0.123E-04    0.53      80.0  T
     SCC iter.                  ...        0 min,  0.392 sec
     gradient                   ...        0 min,  0.039 sec
 * total energy  :  -158.6361641 Eh     change       -0.4577778E-03 Eh
   gradient norm :     0.0073118 Eh/α   predicted    -0.3481115E-03 ( -23.96%)
   displ. norm   :     0.5769671 α      lambda       -0.5712837E-03
   maximum displ.:     0.2847609 α      in ANC's #7, #9, #8, ...

........................................................................
.............................. CYCLE   30 ..............................
........................................................................

 iter      E             dE          RMSdq      gap      omega  full diag
   1   -161.1394715 -0.161139E+03  0.793E-02    0.52       0.0  T
   2   -161.0984255  0.410460E-01  0.435E-01    0.45       1.0  T
   3   -161.1381017 -0.396762E-01  0.949E-02    0.51       1.0  T
   4   -161.1388079 -0.706170E-03  0.661E-02    0.52       1.0  T
   5   -161.1397186 -0.910649E-03  0.120E-02    0.52       1.0  T
   6   -161.1397484 -0.298737E-04  0.175E-03    0.52       5.6  T
   7   -161.1397481  0.344068E-06  0.190E-03    0.52       5.2  T
   8   -161.1397488 -0.681479E-06  0.704E-04    0.52      13.9  T
   9   -161.1397488 -0.403613E-07  0.492E-04    0.52      19.9  T
     SCC iter.                  ...        0 min,  0.578 sec
     gradient                   ...        0 min,  0.031 sec
 * total energy  :  -158.6366253 Eh     change       -0.4611825E-03 Eh
   gradient norm :     0.0067658 Eh/α   predicted    -0.3807295E-03 ( -17.44%)
   displ. norm   :     0.5290299 α      lambda       -0.4482316E-03
   maximum displ.:     0.2701535 α      in ANC's #7, #3, #8, ...

........................................................................
.............................. CYCLE   31 ..............................
........................................................................

 iter      E             dE          RMSdq      gap      omega  full diag
   1   -161.1384591 -0.161138E+03  0.650E-02    0.52       0.0  T
   2   -161.1219621  0.164970E-01  0.276E-01    0.49       1.0  T
   3   -161.1357325 -0.137705E-01  0.118E-01    0.51       1.0  T
   4   -161.1382778 -0.254533E-02  0.352E-02    0.52       1.0  T
   5   -161.1385252 -0.247390E-03  0.467E-03    0.52       2.1  T
   6   -161.1385288 -0.358365E-05  0.142E-03    0.52       6.9  T
   7   -161.1385291 -0.288947E-06  0.574E-04    0.52      17.1  T
   8   -161.1385291 -0.599388E-08  0.397E-04    0.52      24.7  T
     SCC iter.                  ...        0 min,  0.347 sec
     gradient                   ...        0 min,  0.032 sec
 * total energy  :  -158.6369762 Eh     change       -0.3508825E-03 Eh
   gradient norm :     0.0058276 Eh/α   predicted    -0.2868399E-03 ( -18.25%)
   displ. norm   :     0.4498415 α      lambda       -0.3329374E-03
   maximum displ.:     0.2388479 α      in ANC's #7, #3, #2, ...

........................................................................
.............................. CYCLE   32 ..............................
........................................................................

 iter      E             dE          RMSdq      gap      omega  full diag
   1   -161.1392376 -0.161139E+03  0.517E-02    0.51       0.0  T
   2   -161.1283610  0.108766E-01  0.225E-01    0.49       1.0  T
   3   -161.1371976 -0.883660E-02  0.101E-01    0.50       1.0  T
   4   -161.1391525 -0.195486E-02  0.309E-02    0.52       1.0  T
   5   -161.1392911 -0.138572E-03  0.556E-03    0.51       1.8  T
   6   -161.1392971 -0.608261E-05  0.107E-03    0.52       9.2  T
   7   -161.1392972 -0.592405E-07  0.713E-04    0.51      13.7  T
   8   -161.1392973 -0.716307E-07  0.302E-04    0.51      32.4  T
     SCC iter.                  ...        0 min,  0.329 sec
     gradient                   ...        0 min,  0.033 sec
 * total energy  :  -158.6372426 Eh     change       -0.2664497E-03 Eh
   gradient norm :     0.0046648 Eh/α   predicted    -0.2001603E-03 ( -24.88%)
   displ. norm   :     0.4286619 α      lambda       -0.3020886E-03
   maximum displ.:     0.2319145 α      in ANC's #7, #3, #2, ...

........................................................................
.............................. CYCLE   33 ..............................
........................................................................

 iter      E             dE          RMSdq      gap      omega  full diag
   1   -161.1416307 -0.161142E+03  0.460E-02    0.51       0.0  T
   2   -161.1369189  0.471180E-02  0.150E-01    0.50       1.0  T
   3   -161.1375798 -0.660895E-03  0.139E-01    0.49       1.0  T
   4   -161.1416259 -0.404602E-02  0.244E-02    0.51       1.0  T
   5   -161.1416821 -0.562445E-04  0.588E-03    0.51       1.7  T
   6   -161.1416887 -0.658512E-05  0.101E-03    0.51       9.7  T
   7   -161.1416888 -0.755201E-07  0.582E-04    0.51      16.8  T
   8   -161.1416888 -0.320473E-07  0.358E-04    0.51      27.4  T
     SCC iter.                  ...        0 min,  0.385 sec
     gradient                   ...        0 min,  0.040 sec
 * total energy  :  -158.6374888 Eh     change       -0.2461354E-03 Eh
   gradient norm :     0.0040999 Eh/α   predicted    -0.1788075E-03 ( -27.35%)
   displ. norm   :     0.4600746 α      lambda       -0.2989191E-03
   maximum displ.:     0.2481826 α      in ANC's #7, #3, #2, ...

........................................................................
.............................. CYCLE   34 ..............................
........................................................................

 iter      E             dE          RMSdq      gap      omega  full diag
   1   -161.1433474 -0.161143E+03  0.504E-02    0.50       0.0  T
   2   -161.1177267  0.256206E-01  0.345E-01    0.46       1.0  T
   3   -161.1425183 -0.247916E-01  0.715E-02    0.50       1.0  T
   4   -161.1434097 -0.891395E-03  0.270E-02    0.50       1.0  T
   5   -161.1435036 -0.939419E-04  0.438E-03    0.50       2.2  T
   6   -161.1435062 -0.257912E-05  0.130E-03    0.50       7.5  T
   7   -161.1435065 -0.262442E-06  0.383E-04    0.50      25.6  T
   8   -161.1435065  0.649248E-08  0.321E-04    0.50      30.5  T
     SCC iter.                  ...        0 min,  0.369 sec
     gradient                   ...        0 min,  0.033 sec
 * total energy  :  -158.6377389 Eh     change       -0.2501138E-03 Eh
   gradient norm :     0.0049985 Eh/α   predicted    -0.1810962E-03 ( -27.59%)
   displ. norm   :     0.5054549 α      lambda       -0.3188089E-03
   maximum displ.:     0.2672710 α      in ANC's #7, #3, #2, ...

........................................................................
.............................. CYCLE   35 ..............................
........................................................................

 iter      E             dE          RMSdq      gap      omega  full diag
   1   -161.1442192 -0.161144E+03  0.595E-02    0.49       0.0  T
   2   -161.1012243  0.429949E-01  0.450E-01    0.42       1.0  T
   3   -161.1443025 -0.430782E-01  0.427E-02    0.49       1.0  T
   4   -161.1443406 -0.380666E-04  0.356E-02    0.50       1.0  T
   5   -161.1445401 -0.199465E-03  0.113E-02    0.49       1.0  T
   6   -161.1445664 -0.263100E-04  0.191E-03    0.49       5.1  T
   7   -161.1445667 -0.297285E-06  0.143E-03    0.49       6.9  T
   8   -161.1445671 -0.408367E-06  0.236E-04    0.49      41.6  T
   9   -161.1445670  0.531230E-07  0.509E-04    0.49      19.3  T
     SCC iter.                  ...        0 min,  0.316 sec
     gradient                   ...        0 min,  0.034 sec
 * total energy  :  -158.6380096 Eh     change       -0.2706912E-03 Eh
   gradient norm :     0.0057627 Eh/α   predicted    -0.2001300E-03 ( -26.07%)
   displ. norm   :     0.5462615 α      lambda       -0.3339211E-03
   maximum displ.:     0.2820958 α      in ANC's #7, #2, #3, ...

........................................................................
.............................. CYCLE   36 ..............................
........................................................................

 iter      E             dE          RMSdq      gap      omega  full diag
   1   -161.1436424 -0.161144E+03  0.680E-02    0.48       0.0  T
   2   -161.0940210  0.496214E-01  0.488E-01    0.38       1.0  T
   3   -161.1441870 -0.501660E-01  0.263E-02    0.48       1.0  T
   4   -161.1441045  0.825403E-04  0.239E-02    0.49       1.0  T
   5   -161.1440693  0.351309E-04  0.248E-02    0.48       1.0  T
   6   -161.1441956 -0.126285E-03  0.631E-03    0.48       1.6  T
   7   -161.1442037 -0.804759E-05  0.157E-03    0.48       6.3  T
   8   -161.1442041 -0.458902E-06  0.359E-04    0.48      27.3  T
   9   -161.1442041 -0.572587E-08  0.229E-04    0.48      42.8  T
     SCC iter.                  ...        0 min,  0.316 sec
     gradient                   ...        0 min,  0.033 sec
 * total energy  :  -158.6382900 Eh     change       -0.2804467E-03 Eh
   gradient norm :     0.0053268 Eh/α   predicted    -0.2167867E-03 ( -22.70%)
   displ. norm   :     0.5472708 α      lambda       -0.3062141E-03
   maximum displ.:     0.2750401 α      in ANC's #7, #2, #3, ...

........................................................................
.............................. CYCLE   37 ..............................
........................................................................

 iter      E             dE          RMSdq      gap      omega  full diag
   1   -161.1433381 -0.161143E+03  0.519E-02    0.47       0.0  T
   2   -161.1115705  0.317676E-01  0.386E-01    0.42       1.0  T
   3   -161.1429443 -0.313738E-01  0.561E-02    0.47       1.0  T
   4   -161.1430933 -0.148932E-03  0.447E-02    0.48       1.0  T
   5   -161.1435083 -0.415079E-03  0.576E-03    0.47       1.7  T
   6   -161.1435140 -0.562018E-05  0.189E-03    0.47       5.2  T
   7   -161.1435146 -0.640528E-06  0.566E-04    0.47      17.3  T
   8   -161.1435146  0.172443E-07  0.571E-04    0.47      17.2  T
     SCC iter.                  ...        0 min,  0.331 sec
     gradient                   ...        0 min,  0.032 sec
 * total energy  :  -158.6385432 Eh     change       -0.2532049E-03 Eh
   gradient norm :     0.0042502 Eh/α   predicted    -0.1989653E-03 ( -21.42%)
   displ. norm   :     0.5130254 α      lambda       -0.2581875E-03
   maximum displ.:     0.2682225 α      in ANC's #2, #7, #3, ...

........................................................................
.............................. CYCLE   38 ..............................
........................................................................

 iter      E             dE          RMSdq      gap      omega  full diag
   1   -161.1428445 -0.161143E+03  0.394E-02    0.46       0.0  T
   2   -161.1427997  0.448310E-04  0.297E-02    0.47       1.0  T
   3   -161.1387911  0.400864E-02  0.139E-01    0.45       1.0  T
   4   -161.1415889 -0.279785E-02  0.769E-02    0.47       1.0  T
   5   -161.1428647 -0.127574E-02  0.399E-03    0.47       2.5  T
   6   -161.1428672 -0.251504E-05  0.127E-03    0.47       7.7  T
   7   -161.1428672 -0.652270E-07  0.944E-04    0.47      10.4  T
   8   -161.1428674 -0.144250E-06  0.404E-04    0.47      24.2  T
     SCC iter.                  ...        0 min,  0.442 sec
     gradient                   ...        0 min,  0.031 sec
 * total energy  :  -158.6387592 Eh     change       -0.2159573E-03 Eh
   gradient norm :     0.0032990 Eh/α   predicted    -0.1630712E-03 ( -24.49%)
   displ. norm   :     0.4644561 α      lambda       -0.2289789E-03
   maximum displ.:     0.2593253 α      in ANC's #2, #7, #3, ...

........................................................................
.............................. CYCLE   39 ..............................
........................................................................

 iter      E             dE          RMSdq      gap      omega  full diag
   1   -161.1430995 -0.161143E+03  0.354E-02    0.46       0.0  T
   2   -161.1396735  0.342604E-02  0.127E-01    0.45       1.0  T
   3   -161.1417853 -0.211184E-02  0.819E-02    0.46       1.0  T
   4   -161.1431023 -0.131692E-02  0.196E-02    0.46       1.0  T
   5   -161.1431376 -0.352954E-04  0.343E-03    0.46       2.9  T
   6   -161.1431391 -0.152929E-05  0.121E-03    0.46       8.1  T
   7   -161.1431391 -0.589682E-07  0.932E-04    0.46      10.5  T
   8   -161.1431393 -0.169440E-06  0.221E-04    0.46      44.5  T
     SCC iter.                  ...        0 min,  0.409 sec
     gradient                   ...        0 min,  0.032 sec
 * total energy  :  -158.6389556 Eh     change       -0.1964034E-03 Eh
   gradient norm :     0.0032836 Eh/α   predicted    -0.1391894E-03 ( -29.13%)
   displ. norm   :     0.4510209 α      lambda       -0.2266016E-03
   maximum displ.:     0.2651979 α      in ANC's #2, #3, #7, ...

........................................................................
.............................. CYCLE   40 ..............................
........................................................................

 iter      E             dE          RMSdq      gap      omega  full diag
   1   -161.1436314 -0.161144E+03  0.333E-02    0.46       0.0  T
   2   -161.1427398  0.891643E-03  0.675E-02    0.46       1.0  T
   3   -161.1394993  0.324050E-02  0.140E-01    0.45       1.0  T
   4   -161.1436261 -0.412684E-02  0.186E-02    0.46       1.0  T
   5   -161.1436580 -0.318749E-04  0.316E-03    0.46       3.1  T
   6   -161.1436592 -0.119291E-05  0.121E-03    0.46       8.1  T
   7   -161.1436593 -0.766705E-07  0.941E-04    0.46      10.4  T
   8   -161.1436594 -0.170932E-06  0.238E-04    0.46      41.3  T
     SCC iter.                  ...        0 min,  0.347 sec
     gradient                   ...        0 min,  0.033 sec
 * total energy  :  -158.6391534 Eh     change       -0.1978214E-03 Eh
   gradient norm :     0.0038513 Eh/α   predicted    -0.1363525E-03 ( -31.07%)
   displ. norm   :     0.4535627 α      lambda       -0.2323127E-03
   maximum displ.:     0.2779093 α      in ANC's #2, #3, #7, ...

........................................................................
.............................. CYCLE   41 ..............................
........................................................................

 iter      E             dE          RMSdq      gap      omega  full diag
   1   -161.1443675 -0.161144E+03  0.338E-02    0.46       0.0  T
   2   -161.1436862  0.681243E-03  0.612E-02    0.46       1.0  T
   3   -161.1397916  0.389459E-02  0.146E-01    0.45       1.0  T
   4   -161.1442555 -0.446391E-02  0.273E-02    0.46       1.0  T
   5   -161.1443860 -0.130459E-03  0.255E-03    0.46       3.8  T
   6   -161.1443867 -0.701810E-06  0.118E-03    0.46       8.3  T
   7   -161.1443867  0.152260E-07  0.102E-03    0.46       9.6  T
   8   -161.1443869 -0.169917E-06  0.467E-04    0.46      21.0  T
   9   -161.1443869 -0.449319E-07  0.756E-05    0.46     129.7  T
     SCC iter.                  ...        0 min,  0.295 sec
     gradient                   ...        0 min,  0.032 sec
 * total energy  :  -158.6393570 Eh     change       -0.2035900E-03 Eh
   gradient norm :     0.0041872 Eh/α   predicted    -0.1400573E-03 ( -31.21%)
   displ. norm   :     0.4511239 α      lambda       -0.2298018E-03
   maximum displ.:     0.2863576 α      in ANC's #2, #3, #7, ...

........................................................................
.............................. CYCLE   42 ..............................
........................................................................

 iter      E             dE          RMSdq      gap      omega  full diag
   1   -161.1448926 -0.161145E+03  0.380E-02    0.47       0.0  T
   2   -161.1320476  0.128450E-01  0.245E-01    0.44       1.0  T
   3   -161.1444215 -0.123739E-01  0.524E-02    0.46       1.0  T
   4   -161.1447214 -0.299860E-03  0.333E-02    0.47       1.0  T
   5   -161.1449441 -0.222731E-03  0.452E-03    0.47       2.2  T
   6   -161.1449480 -0.393785E-05  0.126E-03    0.47       7.8  T
   7   -161.1449482 -0.168549E-06  0.705E-04    0.47      13.9  T
   8   -161.1449483 -0.704175E-07  0.371E-04    0.47      26.5  T
     SCC iter.                  ...        0 min,  0.349 sec
     gradient                   ...        0 min,  0.031 sec
 * total energy  :  -158.6395590 Eh     change       -0.2020499E-03 Eh
   gradient norm :     0.0039484 Eh/α   predicted    -0.1382884E-03 ( -31.56%)
   displ. norm   :     0.4348082 α      lambda       -0.2199604E-03
   maximum displ.:     0.2849674 α      in ANC's #2, #3, #1, ...
 * RMSD in coord.:     0.8622484 α      energy gain  -0.9885254E-02 Eh

generating ANC from model Hessian ...
Using Lindh-Hessian (1995)
 Shifting diagonal of input Hessian by    1.0052690015675844E-002
 Lowest  eigenvalues of input Hessian
    0.010000    0.000000    0.000000    0.000000    0.000000    0.000000
    0.000000    0.010135    0.010324    0.010370    0.010465    0.010517
    0.010550    0.010709    0.010910    0.011178    0.011358    0.011635
 Highest eigenvalues
    2.128492    2.130063    2.184280    2.189420    2.325596    2.340275


........................................................................
.............................. CYCLE   43 ..............................
........................................................................

 iter      E             dE          RMSdq      gap      omega  full diag
   1   -161.1454989 -0.161145E+03  0.386E-02    0.47       0.0  T
   2   -161.1342629  0.112360E-01  0.229E-01    0.45       1.0  T
   3   -161.1449691 -0.107062E-01  0.548E-02    0.47       1.0  T
   4   -161.1452901 -0.321019E-03  0.339E-02    0.47       1.0  T
   5   -161.1455405 -0.250392E-03  0.395E-03    0.47       2.5  T
   6   -161.1455434 -0.287665E-05  0.975E-04    0.47      10.1  T
   7   -161.1455435 -0.105073E-06  0.472E-04    0.47      20.8  T
   8   -161.1455435 -0.294384E-07  0.228E-04    0.47      43.1  T
     SCC iter.                  ...        0 min,  0.608 sec
     gradient                   ...        0 min,  0.042 sec
 * total energy  :  -158.6397538 Eh     change       -0.1947440E-03 Eh
   gradient norm :     0.0033072 Eh/α   predicted     0.0000000E+00 (-100.00%)
   displ. norm   :     0.0692731 α      lambda       -0.6973507E-04
   maximum displ.:     0.0492802 α      in ANC's #2, #3, #7, ...

........................................................................
.............................. CYCLE   44 ..............................
........................................................................

 iter      E             dE          RMSdq      gap      omega  full diag
   1   -161.1456464 -0.161146E+03  0.107E-02    0.47       0.0  T
   2   -161.1446606  0.985832E-03  0.675E-02    0.47       1.0  T
   3   -161.1455592 -0.898581E-03  0.217E-02    0.47       1.0  T
   4   -161.1456493 -0.901035E-04  0.560E-03    0.47       1.8  T
   5   -161.1456521 -0.284048E-05  0.170E-03    0.47       5.8  T
   6   -161.1456527 -0.554630E-06  0.551E-04    0.47      17.8  T
   7   -161.1456527 -0.520967E-07  0.157E-04    0.47      62.3  T
     SCC iter.                  ...        0 min,  0.291 sec
     gradient                   ...        0 min,  0.052 sec
 * total energy  :  -158.6398216 Eh     change       -0.6778333E-04 Eh
   gradient norm :     0.0018071 Eh/α   predicted    -0.3802183E-04 ( -43.91%)
   displ. norm   :     0.3147915 α      lambda       -0.1778909E-03
   maximum displ.:     0.2097204 α      in ANC's #2, #3, #7, ...

........................................................................
.............................. CYCLE   45 ..............................
........................................................................

 iter      E             dE          RMSdq      gap      omega  full diag
   1   -161.1451642 -0.161145E+03  0.484E-02    0.48       0.0  T
   2   -161.1170339  0.281303E-01  0.361E-01    0.43       1.0  T
   3   -161.1447473 -0.277134E-01  0.578E-02    0.47       1.0  T
   4   -161.1452947 -0.547407E-03  0.217E-02    0.47       1.0  T
   5   -161.1453283 -0.336406E-04  0.603E-03    0.47       1.6  T
   6   -161.1453342 -0.588553E-05  0.265E-03    0.47       3.7  T
   7   -161.1453355 -0.133290E-05  0.658E-04    0.47      14.9  T
   8   -161.1453356 -0.461234E-07  0.307E-04    0.47      31.9  T
   9   -161.1453356  0.184278E-07  0.331E-04    0.47      29.7  T
     SCC iter.                  ...        0 min,  0.472 sec
     gradient                   ...        0 min,  0.036 sec
 * total energy  :  -158.6399920 Eh     change       -0.1704708E-03 Eh
   gradient norm :     0.0036226 Eh/α   predicted    -0.9286585E-04 ( -45.52%)
   displ. norm   :     0.1338881 α      lambda       -0.7048518E-04
   maximum displ.:     0.0966493 α      in ANC's #2, #3, #7, ...

........................................................................
.............................. CYCLE   46 ..............................
........................................................................

 iter      E             dE          RMSdq      gap      omega  full diag
   1   -161.1454448 -0.161145E+03  0.129E-02    0.47       0.0  T
   2   -161.1452820  0.162801E-03  0.284E-02    0.48       1.0  T
   3   -161.1450347  0.247298E-03  0.439E-02    0.47       1.0  T
   4   -161.1454390 -0.404290E-03  0.695E-03    0.47       1.4  T
   5   -161.1454460 -0.708002E-05  0.703E-04    0.47      13.9  T
   6   -161.1454461 -0.755153E-07  0.230E-04    0.47      42.6  T
   7   -161.1454461 -0.483735E-08  0.104E-04    0.47      94.5  T
     SCC iter.                  ...        0 min,  0.369 sec
     gradient                   ...        0 min,  0.052 sec
 * total energy  :  -158.6400572 Eh     change       -0.6518372E-04 Eh
   gradient norm :     0.0033854 Eh/α   predicted    -0.3588579E-04 ( -44.95%)
   displ. norm   :     0.1980754 α      lambda       -0.1170424E-03
   maximum displ.:     0.1371048 α      in ANC's #2, #3, #7, ...

........................................................................
.............................. CYCLE   47 ..............................
........................................................................

 iter      E             dE          RMSdq      gap      omega  full diag
   1   -161.1457284 -0.161146E+03  0.169E-02    0.48       0.0  T
   2   -161.1448440  0.884409E-03  0.641E-02    0.47       1.0  T
   3   -161.1455300 -0.685957E-03  0.320E-02    0.48       1.0  T
   4   -161.1457150 -0.185073E-03  0.101E-02    0.48       1.0  T
   5   -161.1457318 -0.167432E-04  0.216E-03    0.47       4.5  T
   6   -161.1457328 -0.979212E-06  0.289E-04    0.47      33.9  T
   7   -161.1457328 -0.493756E-08  0.157E-04    0.47      62.4  T
     SCC iter.                  ...        0 min,  0.537 sec
     gradient                   ...        0 min,  0.030 sec
 * total energy  :  -158.6401638 Eh     change       -0.1065640E-03 Eh
   gradient norm :     0.0020323 Eh/α   predicted    -0.6082201E-04 ( -42.92%)
   displ. norm   :     0.3160995 α      lambda       -0.1702279E-03
   maximum displ.:     0.2153625 α      in ANC's #2, #3, #7, ...

........................................................................
.............................. CYCLE   48 ..............................
........................................................................

 iter      E             dE          RMSdq      gap      omega  full diag
   1   -161.1458383 -0.161146E+03  0.275E-02    0.48       0.0  T
   2   -161.1380859  0.775235E-02  0.189E-01    0.46       1.0  T
   3   -161.1457709 -0.768493E-02  0.262E-02    0.48       1.0  T
   4   -161.1458423 -0.714903E-04  0.144E-02    0.48       1.0  T
   5   -161.1458700 -0.277011E-04  0.367E-03    0.48       2.7  T
   6   -161.1458728 -0.272734E-05  0.733E-04    0.48      13.4  T
   7   -161.1458728 -0.660752E-07  0.369E-04    0.48      26.6  T
   8   -161.1458729 -0.166559E-07  0.162E-04    0.48      60.5  T
     SCC iter.                  ...        0 min,  0.573 sec
     gradient                   ...        0 min,  0.032 sec
 * total energy  :  -158.6403139 Eh     change       -0.1500982E-03 Eh
   gradient norm :     0.0019021 Eh/α   predicted    -0.9361848E-04 ( -37.63%)
   displ. norm   :     0.5756330 α      lambda       -0.1767216E-03
   maximum displ.:     0.3904100 α      in ANC's #2, #3, #7, ...

........................................................................
.............................. CYCLE   49 ..............................
........................................................................

 iter      E             dE          RMSdq      gap      omega  full diag
   1   -161.1453239 -0.161145E+03  0.476E-02    0.49       0.0  T
   2   -161.1273617  0.179622E-01  0.288E-01    0.45       1.0  T
   3   -161.1451339 -0.177721E-01  0.442E-02    0.48       1.0  T
   4   -161.1453598 -0.225906E-03  0.223E-02    0.48       1.0  T
   5   -161.1454154 -0.556182E-04  0.686E-03    0.48       1.4  T
   6   -161.1454252 -0.978313E-05  0.115E-03    0.48       8.6  T
   7   -161.1454253 -0.118406E-06  0.653E-04    0.48      15.0  T
   8   -161.1454253 -0.577228E-07  0.268E-04    0.48      36.5  T
     SCC iter.                  ...        0 min,  0.422 sec
     gradient                   ...        0 min,  0.035 sec
 * total energy  :  -158.6405333 Eh     change       -0.2193895E-03 Eh
   gradient norm :     0.0039024 Eh/α   predicted    -0.1013755E-03 ( -53.79%)
   displ. norm   :     0.3282768 α      lambda       -0.1383814E-03
   maximum displ.:     0.2255630 α      in ANC's #2, #3, #1, ...

........................................................................
.............................. CYCLE   50 ..............................
........................................................................

 iter      E             dE          RMSdq      gap      omega  full diag
   1   -161.1458846 -0.161146E+03  0.241E-02    0.49       0.0  T
   2   -161.1443789  0.150575E-02  0.839E-02    0.48       1.0  T
   3   -161.1454707 -0.109185E-02  0.456E-02    0.49       1.0  T
   4   -161.1458795 -0.408787E-03  0.944E-03    0.49       1.0  T
   5   -161.1458912 -0.116675E-04  0.160E-03    0.48       6.1  T
   6   -161.1458915 -0.366886E-06  0.446E-04    0.48      22.0  T
   7   -161.1458915  0.217676E-07  0.455E-04    0.48      21.6  T
     SCC iter.                  ...        0 min,  0.498 sec
     gradient                   ...        0 min,  0.044 sec
 * total energy  :  -158.6406610 Eh     change       -0.1276990E-03 Eh
[...]
    80   1 H        0.926     0.025     2.664     2.552
    81   1 H        0.926     0.075     2.036     2.231
    82   1 H        0.926     0.017     2.782     2.608
    83   6 C        3.883     0.050    19.686     6.308
    84   6 C        3.885     0.052    19.651     6.302
    85   6 C        3.760    -0.116    22.770     6.803
    86   6 C        3.758    -0.112    22.686     6.791
    87   6 C        3.761    -0.102    22.498     6.762
    88   7 N        2.802     0.136    18.936     6.463
    89   8 O        0.923    -0.530    24.429     6.628
    90   7 N        2.801     0.141    18.856     6.449
    91   8 O        0.923    -0.530    24.425     6.628
    92   1 H        0.925     0.083     1.945     2.181
    93   1 H        0.925     0.054     2.266     2.354
    94   1 H        0.925     0.023     2.692     2.566
    95   1 H        0.925     0.029     2.596     2.520
    96   1 H        0.925     0.032     2.561     2.503
    97   1 H        0.925     0.057     2.229     2.334
    98   6 C        3.759    -0.103    22.512     6.764
    99   1 H        0.925     0.037     2.491     2.468
   100   1 H        0.925     0.063     2.162     2.299
   101   1 H        0.925     0.029     2.601     2.522
   102   1 H        0.925     0.079     1.990     2.206
   103   1 H        0.925     0.038     2.482     2.464
   104   1 H        0.925     0.053     2.285     2.364

 Mol. C6AA /au·bohr⁶  :     134752.009653
 Mol. C8AA /au·bohr⁸  :    3268287.560600
 Mol. α(0) /au        :        576.869663


Wiberg/Mayer (AO) data.
largest (>0.10) Wiberg bond orders for each atom

 ---------------------------------------------------------------------------
     #   Z sym  total        # sym  WBO       # sym  WBO       # sym  WBO
 ---------------------------------------------------------------------------
     1   6 C    3.985 --     4 C    1.335     3 C    1.198     2 C    1.189
     2   6 C    3.987 --    11 C    1.331     5 C    1.260     1 C    1.189
     3   6 C    3.988 --    12 C    1.309     6 C    1.269     1 C    1.198
     4   6 C    3.989 --     1 C    1.335     8 C    1.231     7 C    1.231
     5   6 C    3.985 --    13 C    1.292     2 C    1.260     9 C    1.237
     6   6 C    3.985 --    14 C    1.305     3 C    1.269    10 C    1.227
     7   6 C    3.974 --     9 C    1.606     4 C    1.231    19 H    0.968
     8   6 C    3.986 --    10 C    1.615     4 C    1.231    20 H    0.968
     9   6 C    3.982 --     7 C    1.606     5 C    1.237    21 H    0.968
    10   6 C    3.983 --     8 C    1.615     6 C    1.227    22 H    0.968
    11   6 C    3.981 --    15 C    1.438     2 C    1.331    23 H    0.948
                            13 C    0.100
    12   6 C    3.984 --    16 C    1.520     3 C    1.309    24 H    0.952
                            14 C    0.113
    13   6 C    3.985 --    17 C    1.549     5 C    1.292    25 H    0.967
                            11 C    0.100
    14   6 C    3.985 --    18 C    1.524     6 C    1.305    26 H    0.969
                            12 C    0.113
    15   6 C    3.980 --    11 C    1.438    17 C    1.284    27 C    1.081
    16   6 C    3.986 --    12 C    1.520    18 C    1.349    28 H    0.971
    17   6 C    3.975 --    13 C    1.549    15 C    1.284    29 H    0.958
    18   6 C    3.980 --    14 C    1.524    16 C    1.349    30 H    0.971
    19   1 H    0.999 --     7 C    0.968
    20   1 H    0.999 --     8 C    0.968
    21   1 H    0.998 --     9 C    0.968
    22   1 H    0.998 --    10 C    0.968
    23   1 H    0.992 --    11 C    0.948
    24   1 H    0.993 --    12 C    0.952
    25   1 H    0.998 --    13 C    0.967
    26   1 H    0.999 --    14 C    0.969
    27   6 C    3.951 --    36 N    1.265    38 N    1.261    15 C    1.081
                            37 O    0.139    39 O    0.128
    28   1 H    0.999 --    16 C    0.971
    29   1 H    0.995 --    17 C    0.958
    30   1 H    0.999 --    18 C    0.971
    31   6 C    3.976 --    46 C    0.998    33 C    0.985    32 C    0.960
                            38 N    0.931
    32   6 C    3.975 --    34 C    0.999    35 C    0.986    31 C    0.960
                            36 N    0.925
    33   6 C    3.988 --    31 C    0.985    50 H    0.984    51 H    0.984
                            52 H    0.981
    34   6 C    3.991 --    32 C    0.999    42 H    0.985    40 H    0.982
                            41 H    0.978
    35   6 C    3.987 --    32 C    0.986    44 H    0.984    43 H    0.982
                            45 H    0.981
    36   7 N    3.584 --    27 C    1.265    37 O    1.173    32 C    0.925
    37   8 O    1.501 --    36 N    1.173    27 C    0.139
    38   7 N    3.559 --    27 C    1.261    39 O    1.143    31 C    0.931
    39   8 O    1.470 --    38 N    1.143    27 C    0.128
    40   1 H    0.998 --    34 C    0.982
    41   1 H    0.995 --    34 C    0.978
    42   1 H    0.999 --    34 C    0.985
    43   1 H    0.998 --    35 C    0.982
    44   1 H    0.998 --    35 C    0.984
    45   1 H    0.996 --    35 C    0.981
    46   6 C    3.991 --    31 C    0.998    49 H    0.985    47 H    0.981
                            48 H    0.979
    47   1 H    0.998 --    46 C    0.981
    48   1 H    0.995 --    46 C    0.979
    49   1 H    0.999 --    46 C    0.985
    50   1 H    0.999 --    33 C    0.984
    51   1 H    0.998 --    33 C    0.984
    52   1 H    0.996 --    33 C    0.981
    53   6 C    3.983 --    56 C    1.336    55 C    1.197    54 C    1.190
    54   6 C    3.987 --    63 C    1.332    57 C    1.257    53 C    1.190
    55   6 C    3.988 --    64 C    1.311    58 C    1.269    53 C    1.197
    56   6 C    3.989 --    53 C    1.336    59 C    1.231    60 C    1.230
    57   6 C    3.985 --    65 C    1.294    54 C    1.257    61 C    1.237
    58   6 C    3.985 --    66 C    1.306    55 C    1.269    62 C    1.228
    59   6 C    3.973 --    61 C    1.607    56 C    1.231    71 H    0.968
    60   6 C    3.986 --    62 C    1.617    56 C    1.230    72 H    0.968
    61   6 C    3.982 --    59 C    1.607    57 C    1.237    73 H    0.968
    62   6 C    3.983 --    60 C    1.617    58 C    1.228    74 H    0.968
    63   6 C    3.980 --    67 C    1.433    54 C    1.332    75 H    0.941
                            65 C    0.100
    64   6 C    3.990 --    68 C    1.522    55 C    1.311    76 H    0.960
                            66 C    0.112
    65   6 C    3.985 --    69 C    1.546    57 C    1.294    77 H    0.968
                            63 C    0.100
    66   6 C    3.985 --    70 C    1.526    58 C    1.306    78 H    0.969
                            64 C    0.112
    67   6 C    3.981 --    63 C    1.433    69 C    1.286    79 C    1.086
    68   6 C    3.987 --    64 C    1.522    70 C    1.348    80 H    0.971
    69   6 C    3.974 --    65 C    1.546    67 C    1.286    81 H    0.957
    70   6 C    3.981 --    66 C    1.526    68 C    1.348    82 H    0.971
    71   1 H    0.999 --    59 C    0.968
    72   1 H    0.999 --    60 C    0.968
    73   1 H    0.998 --    61 C    0.968
    74   1 H    0.998 --    62 C    0.968
    75   1 H    0.992 --    63 C    0.941
    76   1 H    0.997 --    64 C    0.960
    77   1 H    0.999 --    65 C    0.968
    78   1 H    0.999 --    66 C    0.969
    79   6 C    3.950 --    90 N    1.263    88 N    1.258    67 C    1.086
                            91 O    0.135    89 O    0.130
    80   1 H    0.999 --    68 C    0.971
    81   1 H    0.993 --    69 C    0.957
    82   1 H    0.999 --    70 C    0.971
    83   6 C    3.971 --    98 C    0.995    85 C    0.986    84 C    0.960
                            90 N    0.926
    84   6 C    3.971 --    86 C    0.998    87 C    0.984    83 C    0.960
                            88 N    0.926
    85   6 C    3.980 --    83 C    0.986   103 H    0.983   104 H    0.981
                           102 H    0.970
    86   6 C    3.984 --    84 C    0.998    94 H    0.985    93 H    0.977
                            92 H    0.965
    87   6 C    3.988 --    95 H    0.985    96 H    0.984    84 C    0.984
                            97 H    0.981
    88   7 N    3.578 --    79 C    1.258    89 O    1.175    84 C    0.926
    89   8 O    1.510 --    88 N    1.175    79 C    0.130
    90   7 N    3.589 --    79 C    1.263    91 O    1.180    83 C    0.926
    91   8 O    1.510 --    90 N    1.180    79 C    0.135
    92   1 H    0.993 --    86 C    0.965
    93   1 H    0.996 --    86 C    0.977
    94   1 H    0.999 --    86 C    0.985
    95   1 H    0.999 --    87 C    0.985
    96   1 H    0.998 --    87 C    0.984
    97   1 H    0.996 --    87 C    0.981
    98   6 C    3.991 --    83 C    0.995   101 H    0.985    99 H    0.983
                           100 H    0.980
    99   1 H    0.999 --    98 C    0.983
   100   1 H    0.995 --    98 C    0.980
   101   1 H    0.999 --    98 C    0.985
   102   1 H    0.994 --    85 C    0.970
   103   1 H    0.998 --    85 C    0.983
   104   1 H    0.997 --    85 C    0.981
 ---------------------------------------------------------------------------

Topologies differ in bond orders
Writing corrected topology to xtbtopo.mol

molecular dipole:
                 x           y           z       tot (Debye)
 q only:        0.762       2.973      -4.916
   full:        0.706       3.044      -4.944      14.866
molecular quadrupole (traceless):
                xx          xy          yy          xz          yz          zz
 q only:       41.621       1.993     -13.397      -9.236      36.577     -28.224
  q+dip:       53.877       5.020      -7.223     -11.521      34.593     -46.654
   full:       47.144       4.881     -13.429     -12.314      39.213     -33.715

           -------------------------------------------------
          |                Geometry Summary                 |
           -------------------------------------------------

      molecular mass/u    :      766.9265020
   center of mass at/Å    :       -0.7106749      -0.6647045       2.7216233
  moments of inertia/u·Å² :        0.6645819E+04   0.1161659E+05   0.1328716E+05
rotational constants/cm⁻¹ :        0.2536577E-02   0.1451169E-02   0.1268716E-02

 * 104 selected distances

     #   Z          #   Z                                           value/Å
     1   6 C        2   6 C                                       1.4353832
     1   6 C        3   6 C                                       1.4335087
     1   6 C        4   6 C                                       1.4046612
     2   6 C        5   6 C                                       1.4180011
     3   6 C        6   6 C                                       1.4178066
     4   6 C        7   6 C                                       1.4183695
     4   6 C        8   6 C                                       1.4182060
     5   6 C        9   6 C                                       1.4163863
     7   6 C        9   6 C                                       1.3565930
     6   6 C       10   6 C                                       1.4186189
     8   6 C       10   6 C                                       1.3552734
     2   6 C       11   6 C                                       1.4017753
     3   6 C       12   6 C                                       1.4082555
     5   6 C       13   6 C                                       1.4064075
     6   6 C       14   6 C                                       1.4048861
    11   6 C       15   6 C                                       1.3828573
    12   6 C       16   6 C                                       1.3713682
    13   6 C       17   6 C                                       1.3655153
    15   6 C       17   6 C                                       1.4100108
    14   6 C       18   6 C                                       1.3691833
    16   6 C       18   6 C                                       1.3970212
     7   6 C       19   1 H                                       1.0818910
     8   6 C       20   1 H                                       1.0821899
     9   6 C       21   1 H                                       1.0814723
    10   6 C       22   1 H                                       1.0821019
    11   6 C       23   1 H                                       1.0773170
    12   6 C       24   1 H                                       1.0785813
    13   6 C       25   1 H                                       1.0815407
    14   6 C       26   1 H                                       1.0825471
    16   6 C       28   1 H                                       1.0801084
    17   6 C       29   1 H                                       1.0787622
    18   6 C       30   1 H                                       1.0817848
    31   6 C       32   6 C                                       1.5424148
    31   6 C       33   6 C                                       1.5357701
    32   6 C       34   6 C                                       1.5247566
    32   6 C       35   6 C                                       1.5344745
    27   6 C       36   7 N                                       1.3393348
    32   6 C       36   7 N                                       1.4786553
    27   6 C       38   7 N                                       1.3402443
    31   6 C       38   7 N                                       1.4735280
    34   6 C       40   1 H                                       1.0854253
    34   6 C       41   1 H                                       1.0877174
    34   6 C       42   1 H                                       1.0874901
    35   6 C       43   1 H                                       1.0872154
    35   6 C       44   1 H                                       1.0873180
    35   6 C       45   1 H                                       1.0882136
    31   6 C       46   6 C                                       1.5254001
    46   6 C       47   1 H                                       1.0849843
    46   6 C       48   1 H                                       1.0879466
    46   6 C       49   1 H                                       1.0874287
    33   6 C       50   1 H                                       1.0878331
    33   6 C       51   1 H                                       1.0871149
    33   6 C       52   1 H                                       1.0884249
    53   6 C       56   6 C                                       1.4059396
    54   6 C       57   6 C                                       1.4195379
    55   6 C       58   6 C                                       1.4187517
    56   6 C       59   6 C                                       1.4182523
    56   6 C       60   6 C                                       1.4182102
    57   6 C       61   6 C                                       1.4155449
    59   6 C       61   6 C                                       1.3555622
    58   6 C       62   6 C                                       1.4175438
    60   6 C       62   6 C                                       1.3540049
    54   6 C       63   6 C                                       1.4020561
    55   6 C       64   6 C                                       1.4081007
    57   6 C       65   6 C                                       1.4062080
    58   6 C       66   6 C                                       1.4050057
    63   6 C       67   6 C                                       1.3854022
    64   6 C       68   6 C                                       1.3709055
    65   6 C       69   6 C                                       1.3653376
    67   6 C       69   6 C                                       1.4089291
    66   6 C       70   6 C                                       1.3684525
    68   6 C       70   6 C                                       1.3965743
    59   6 C       71   1 H                                       1.0820556
    60   6 C       72   1 H                                       1.0819004
    61   6 C       73   1 H                                       1.0819614
    62   6 C       74   1 H                                       1.0815044
    63   6 C       75   1 H                                       1.0768495 (min)
    64   6 C       76   1 H                                       1.0771335
    65   6 C       77   1 H                                       1.0821405
    66   6 C       78   1 H                                       1.0818166
    68   6 C       80   1 H                                       1.0805314
    69   6 C       81   1 H                                       1.0780170
    70   6 C       82   1 H                                       1.0811699
    83   6 C       84   6 C                                       1.5444478 (max)
    83   6 C       85   6 C                                       1.5317389
    84   6 C       86   6 C                                       1.5232723
    84   6 C       87   6 C                                       1.5373944
    79   6 C       88   7 N                                       1.3405768
    84   6 C       88   7 N                                       1.4765062
    79   6 C       90   7 N                                       1.3400796
    83   6 C       90   7 N                                       1.4764907
    86   6 C       92   1 H                                       1.0842564
    86   6 C       93   1 H                                       1.0889617
    86   6 C       94   1 H                                       1.0880122
    87   6 C       95   1 H                                       1.0883274
    87   6 C       96   1 H                                       1.0868902
    87   6 C       97   1 H                                       1.0885822
    83   6 C       98   6 C                                       1.5290283
    98   6 C       99   1 H                                       1.0861405
    98   6 C      100   1 H                                       1.0876135
Note: The following floating-point exceptions are signalling: IEEE_UNDERFLOW_FLAG
normal termination of xtb
    98   6 C      101   1 H                                       1.0870510
    85   6 C      102   1 H                                       1.0860824
    85   6 C      103   1 H                                       1.0868864
    85   6 C      104   1 H                                       1.0884704

 * 3 distinct bonds (by element types)

   Z      Z             #   av. dist./Å        max./Å        min./Å
   1 H    6 C          46     1.0840818     1.0889617     1.0768495
   6 C    6 C          50     1.4255821     1.5444478     1.3540049
   6 C    7 N           8     1.4081770     1.4786553     1.3393348


optimized geometry written to: xtbopt.mol


           -------------------------------------------------
          | TOTAL ENERGY             -158.644052596896 Eh   |
          | GRADIENT NORM               0.000227739377 Eh/α |
          | HOMO-LUMO GAP               0.476961241042 eV   |
           -------------------------------------------------
########################################################################
[WARNING] Runtime exception occurred
-2- restart_readRestart: Multiplicity missmatch in restart file.
-1- restart_readRestart: Number of electron missmatch in restart file.
########################################################################

------------------------------------------------------------------------
 * finished run on 2024/11/14 at 10:34:52.208     
------------------------------------------------------------------------
 total:
 * wall-time:     0 d,  0 h,  0 min, 54.959 sec
 *  cpu-time:     0 d,  0 h,  3 min,  3.780 sec
 * ratio c/w:     3.344 speedup
 SCF:
 * wall-time:     0 d,  0 h,  0 min,  1.755 sec
 *  cpu-time:     0 d,  0 h,  0 min,  6.931 sec
 * ratio c/w:     3.948 speedup
 ANC optimizer:
 * wall-time:     0 d,  0 h,  0 min, 53.177 sec
 *  cpu-time:     0 d,  0 h,  2 min, 56.819 sec
 * ratio c/w:     3.325 speedup

