      -----------------------------------------------------------      
     |                   =====================                   |     
     |                           x T B                           |     
     |                   =====================                   |     
     |                         S. Grimme                         |     
     |          Mulliken Center for Theoretical Chemistry        |     
     |                    University of Bonn                     |     
      -----------------------------------------------------------      

   * xtb version 6.6.1 (8d0f1dd) compiled by 'runner@Mac-1690902418499.local' on 2023-08-01

   xtb is free software: you can redistribute it and/or modify it under
   the terms of the GNU Lesser General Public License as published by
   the Free Software Foundation, either version 3 of the License, or
   (at your option) any later version.
   
   xtb is distributed in the hope that it will be useful,
   but WITHOUT ANY WARRANTY; without even the implied warranty of
   MERCHANTABILITY or FITNESS FOR A PARTICULAR PURPOSE.  See the
   GNU Lesser General Public License for more details.
   
   Cite this work as:
   * C. Bannwarth, E. Caldeweyher, S. Ehlert, A. Hansen, P. Pracht,
     J. Seibert, S. Spicher, S. Grimme, WIREs Comput. Mol. Sci., 2020, 11,
     e01493. DOI: 10.1002/wcms.1493
   
   for GFN2-xTB:
   * C. Bannwarth, S. Ehlert and S. Grimme., J. Chem. Theory Comput., 2019,
     15, 1652-1671. DOI: 10.1021/acs.jctc.8b01176
   for GFN1-xTB:
   * S. Grimme, C. Bannwarth, P. Shushkov, J. Chem. Theory Comput., 2017,
     13, 1989-2009. DOI: 10.1021/acs.jctc.7b00118
   for GFN0-xTB:
   * P. Pracht, E. Caldeweyher, S. Ehlert, S. Grimme, ChemRxiv, 2019, preprint.
     DOI: 10.26434/chemrxiv.8326202.v1
   for GFN-FF:
   * S. Spicher and S. Grimme, Angew. Chem. Int. Ed., 2020, 59, 15665-15673.
     DOI: 10.1002/anie.202004239
   
   for ALPB and GBSA implicit solvation:
   * S. Ehlert, M. Stahn, S. Spicher, S. Grimme, J. Chem. Theory Comput.,
     2021, 17, 4250-4261. DOI: 10.1021/acs.jctc.1c00471
   
   for DFT-D4:
   * E. Caldeweyher, C. Bannwarth and S. Grimme, J. Chem. Phys., 2017,
     147, 034112. DOI: 10.1063/1.4993215
   * E. Caldeweyher, S. Ehlert, A. Hansen, H. Neugebauer, S. Spicher,
     C. Bannwarth and S. Grimme, J. Chem. Phys., 2019, 150, 154122.
     DOI: 10.1063/1.5090222
   * E. Caldeweyher, J.-M. Mewes, S. Ehlert and S. Grimme, Phys. Chem. Chem. Phys.
     2020, 22, 8499-8512. DOI: 10.1039/D0CP00502A
   
   for sTDA-xTB:
   * S. Grimme and C. Bannwarth, J. Chem. Phys., 2016, 145, 054103.
     DOI: 10.1063/1.4959605
   
   in the mass-spec context:
   * V. Asgeirsson, C. Bauer and S. Grimme, Chem. Sci., 2017, 8, 4879.
     DOI: 10.1039/c7sc00601b
   * J. Koopman and S. Grimme, ACS Omega 2019, 4, 12, 15120-15133.
     DOI: 10.1021/acsomega.9b02011
   
   for metadynamics refer to:
   * S. Grimme, J. Chem. Theory Comput., 2019, 155, 2847-2862
     DOI: 10.1021/acs.jctc.9b00143
   
   for SPH calculations refer to:
   * S. Spicher and S. Grimme, J. Chem. Theory Comput., 2021, 17, 1701-1714
     DOI: 10.1021/acs.jctc.0c01306
   
   with help from (in alphabetical order)
   P. Atkinson, C. Bannwarth, F. Bohle, G. Brandenburg, E. Caldeweyher
   M. Checinski, S. Dohm, S. Ehlert, S. Ehrlich, I. Gerasimov, C. Hölzer
   A. Katbashev, J. Koopman, C. Lavigne, S. Lehtola, F. März, M. Müller,
   F. Musil, H. Neugebauer, J. Pisarek, C. Plett, P. Pracht, F. Pultar,
   J. Seibert, P. Shushkov, S. Spicher, M. Stahn, M. Steiner, T. Strunk,
   J. Stückrath, T. Rose, and J. Unsleber
   
 * started run on 2024/11/14 at 10:57:51.809     

           -------------------------------------------------
          |                Calculation Setup                |
           -------------------------------------------------

          program call               : xtb opt_radical_Nitro1.mol --gfn2 --sp --chrg -1 --uhf 0
          coordinate file            : opt_radical_Nitro1.mol
          omp threads                :                     8

   ID    Z sym.   atoms
    1    6 C      1-18, 27, 31-35, 45
    2    1 H      19-26, 28-30, 39-44, 46-51
    3    7 N      36, 37
    4    8 O      38, 52

           -------------------------------------------------
          |                 G F N 2 - x T B                 |
           -------------------------------------------------

        Reference                      10.1021/acs.jctc.8b01176
      * Hamiltonian:
        H0-scaling (s, p, d)           1.850000    2.230000    2.230000
        zeta-weighting                 0.500000
      * Dispersion:
        s8                             2.700000
        a1                             0.520000
        a2                             5.000000
        s9                             5.000000
      * Repulsion:
        kExp                           1.500000    1.000000
        rExp                           1.000000
      * Coulomb:
        alpha                          2.000000
        third order                    shell-resolved
        anisotropic                    true
        a3                             3.000000
        a5                             4.000000
        cn-shift                       1.200000
        cn-exp                         4.000000
        max-rad                        5.000000

q/qsh data taken from xtbrestart
CAMM data taken from xtbrestart

          ...................................................
          :                      SETUP                      :
          :.................................................:
          :  # basis functions                 139          :
          :  # atomic orbitals                 139          :
          :  # shells                           81          :
          :  # electrons                       146          :
          :  max. iterations                   250          :
          :  Hamiltonian                  GFN2-xTB          :
          :  restarted?                       true          :
          :  GBSA solvation                  false          :
          :  PC potential                    false          :
          :  electronic temp.          300.0000000     K    :
          :  accuracy                    1.0000000          :
          :  -> integral cutoff          0.2500000E+02      :
          :  -> integral neglect         0.1000000E-07      :
          :  -> SCF convergence          0.1000000E-05 Eh   :
          :  -> wf. convergence          0.1000000E-03 e    :
          :  Broyden damping             0.4000000          :
          ...................................................

 iter      E             dE          RMSdq      gap      omega  full diag
   1    -80.6175187 -0.806175E+02  0.107E+00    1.42       0.0  T
   2    -80.1617856  0.455733E+00  0.208E+00    0.17       1.0  T
   3    -80.6223283 -0.460543E+00  0.841E-01    1.26       1.0  T
   4    -80.6331453 -0.108170E-01  0.607E-01    0.98       1.0  T
   5    -80.6387132 -0.556786E-02  0.489E-01    0.66       1.0  T
   6    -80.6452641 -0.655091E-02  0.374E-01    0.30       1.0  T
   7    -80.6526273 -0.736323E-02  0.224E-01    0.16       1.0  T
   8    -80.5979847  0.546427E-01  0.725E-01    0.01       1.0  T
   9    -80.6493189 -0.513343E-01  0.289E-01    0.21       1.0  T
  10    -80.6515990 -0.228006E-02  0.233E-01    0.17       1.0  T
  11    -80.6572485 -0.564952E-02  0.427E-02    0.11       1.0  T
  12    -80.6574358 -0.187281E-03  0.828E-03    0.10       1.7  T
  13    -80.6573541  0.817143E-04  0.282E-02    0.09       1.0  T
  14    -80.6574287 -0.745601E-04  0.109E-02    0.10       1.3  T
  15    -80.6574376 -0.891102E-05  0.619E-03    0.10       2.2  T
  16    -80.6574401 -0.258216E-05  0.385E-03    0.10       3.6  T
  17    -80.6574417 -0.159485E-05  0.530E-04    0.10      26.1  T
  18    -80.6574418 -0.304176E-07  0.579E-05    0.10     239.6  T
  19    -80.6574418 -0.289845E-09  0.172E-05    0.10     805.3  T

   *** convergence criteria satisfied after 19 iterations ***

         #    Occupation            Energy/Eh            Energy/eV
      -------------------------------------------------------------
         1        2.0000           -0.5593982             -15.2220
       ...           ...                  ...                  ...
        67        2.0000           -0.2840345              -7.7290
        68        2.0000           -0.2683848              -7.3031
        69        2.0000           -0.2540186              -6.9122
        70        2.0000           -0.2337654              -6.3611
        71        2.0000           -0.2269569              -6.1758
        72        2.0000           -0.2225190              -6.0550
        73        1.7426           -0.1537188              -4.1829 (HOMO)
        74        0.2565           -0.1500813              -4.0839 (LUMO)
        75        0.0008           -0.1445218              -3.9326
        76                         -0.1076185              -2.9284
        77                         -0.1039047              -2.8274
        78                         -0.0727276              -1.9790
       ...                                ...                  ...
       139                          0.8338685              22.6907
      -------------------------------------------------------------
                  HL-Gap            0.0036376 Eh            0.0990 eV
             Fermi-level           -0.1519018 Eh           -4.1335 eV

 SCC (total)                   0 d,  0 h,  0 min,  0.497 sec
 SCC setup                      ...        0 min,  0.000 sec (  0.025%)
 Dispersion                     ...        0 min,  0.001 sec (  0.143%)
 classical contributions        ...        0 min,  0.000 sec (  0.017%)
 integral evaluation            ...        0 min,  0.002 sec (  0.377%)
 iterations                     ...        0 min,  0.473 sec ( 95.095%)
 molecular gradient             ...        0 min,  0.016 sec (  3.224%)
 printout                       ...        0 min,  0.006 sec (  1.117%)

         :::::::::::::::::::::::::::::::::::::::::::::::::::::
         ::                     SUMMARY                     ::
         :::::::::::::::::::::::::::::::::::::::::::::::::::::
         :: total energy             -79.405530129327 Eh    ::
         :: gradient norm              0.082563603853 Eh/a0 ::
         :: HOMO-LUMO gap              0.098983105897 eV    ::
         ::.................................................::
         :: SCC energy               -80.657441769797 Eh    ::
         :: -> isotropic ES            0.171293346281 Eh    ::
         :: -> anisotropic ES          0.015508842054 Eh    ::
         :: -> anisotropic XC          0.025586968228 Eh    ::
         :: -> dispersion             -0.067496924305 Eh    ::
         :: repulsion energy           1.251535538551 Eh    ::
         :: add. restraining           0.000000000000 Eh    ::
         :: total charge              -0.999998872915 e     ::
         :::::::::::::::::::::::::::::::::::::::::::::::::::::

           -------------------------------------------------
          |                Property Printout                |
           -------------------------------------------------

    * Orbital Energies and Occupations

         #    Occupation            Energy/Eh            Energy/eV
      -------------------------------------------------------------
         1        2.0000           -0.5593982             -15.2220
       ...           ...                  ...                  ...
        61        2.0000           -0.3152054              -8.5772
        62        2.0000           -0.3133759              -8.5274
        63        2.0000           -0.3099989              -8.4355
        64        2.0000           -0.2979963              -8.1089
        65        2.0000           -0.2945648              -8.0155
        66        2.0000           -0.2877958              -7.8313
        67        2.0000           -0.2840345              -7.7290
        68        2.0000           -0.2683848              -7.3031
        69        2.0000           -0.2540186              -6.9122
        70        2.0000           -0.2337654              -6.3611
        71        2.0000           -0.2269569              -6.1758
        72        2.0000           -0.2225190              -6.0550
        73        1.7426           -0.1537188              -4.1829 (HOMO)
        74        0.2565           -0.1500813              -4.0839 (LUMO)
        75        0.0008           -0.1445218              -3.9326
        76                         -0.1076185              -2.9284
        77                         -0.1039047              -2.8274
        78                         -0.0727276              -1.9790
        79                         -0.0639017              -1.7389
        80                         -0.0359775              -0.9790
        81                         -0.0011998              -0.0326
        82                          0.0396194               1.0781
        83                          0.0770726               2.0973
        84                          0.0962955               2.6203
       ...                                ...                  ...
       139                          0.8338685              22.6907
      -------------------------------------------------------------
                  HL-Gap            0.0036376 Eh            0.0990 eV
             Fermi-level           -0.1519018 Eh           -4.1335 eV

     #   Z          covCN         q      C6AA      α(0)
     1   6 C        2.979    -0.011    28.291     8.725
     2   6 C        2.980     0.003    27.962     8.674
     3   6 C        2.981     0.008    27.828     8.653
     4   6 C        2.987    -0.004    28.113     8.697
     5   6 C        2.988    -0.001    28.047     8.687
     6   6 C        2.989     0.004    27.927     8.669
     7   6 C        2.918    -0.049    29.205     8.862
     8   6 C        2.917    -0.045    29.123     8.849
     9   6 C        2.915    -0.047    29.172     8.857
    10   6 C        2.916    -0.052    29.296     8.876
    11   6 C        2.924    -0.052    29.282     8.874
    12   6 C        2.919    -0.038    28.955     8.824
    13   6 C        2.920    -0.048    29.185     8.859
    14   6 C        2.922    -0.049    29.212     8.863
    15   6 C        2.970     0.019    27.583     8.615
    16   6 C        2.917    -0.037    28.912     8.817
    17   6 C        2.918    -0.040    28.995     8.830
    18   6 C        2.916    -0.041    29.026     8.835
    19   1 H        0.926     0.001     3.036     2.725
    20   1 H        0.926     0.003     2.998     2.708
    21   1 H        0.926     0.004     2.991     2.704
    22   1 H        0.926     0.002     3.026     2.720
    23   1 H        0.926     0.077     2.006     2.215
    24   1 H        0.926     0.037     2.494     2.470
    25   1 H        0.926     0.006     2.961     2.691
    26   1 H        0.926     0.003     3.005     2.711
    27   6 C        2.892     0.029    27.358     8.576
    28   1 H        0.926     0.011     2.866     2.648
    29   1 H        0.926     0.060     2.197     2.318
    30   1 H        0.926     0.002     3.024     2.719
    31   6 C        3.885     0.049    19.705     6.311
    32   6 C        3.885     0.049    19.704     6.311
    33   6 C        3.760    -0.101    22.485     6.760
    34   6 C        3.758    -0.099    22.446     6.755
    35   6 C        3.760    -0.101    22.485     6.760
    36   7 N        2.806     0.115    19.269     6.520
    37   7 N        2.806     0.114    19.281     6.522
    38   8 O        0.925    -0.573    25.414     6.761
    39   1 H        0.925     0.040     2.451     2.448
    40   1 H        0.925     0.060     2.197     2.318
    41   1 H        0.925     0.019     2.751     2.594
    42   1 H        0.925     0.034     2.526     2.485
    43   1 H        0.925     0.024     2.676     2.558
    44   1 H        0.925     0.053     2.283     2.363
    45   6 C        3.758    -0.099    22.436     6.753
    46   1 H        0.925     0.040     2.443     2.444
    47   1 H        0.925     0.059     2.214     2.327
    48   1 H        0.925     0.019     2.755     2.595
    49   1 H        0.925     0.034     2.528     2.486
    50   1 H        0.925     0.024     2.674     2.557
    51   1 H        0.925     0.051     2.309     2.376
    52   8 O        0.925    -0.566    25.257     6.740

 Mol. C6AA /au·bohr⁶  :      34295.722735
 Mol. C8AA /au·bohr⁸  :     829062.604361
 Mol. α(0) /au        :        291.014460


Wiberg/Mayer (AO) data.
largest (>0.10) Wiberg bond orders for each atom

 ---------------------------------------------------------------------------
     #   Z sym  total        # sym  WBO       # sym  WBO       # sym  WBO
 ---------------------------------------------------------------------------
     1   6 C    3.907 --     4 C    1.302     3 C    1.200     2 C    1.189
     2   6 C    3.987 --    11 C    1.334     5 C    1.258     1 C    1.189
     3   6 C    3.987 --    12 C    1.308     6 C    1.269     1 C    1.200
     4   6 C    3.958 --     1 C    1.302     8 C    1.243     7 C    1.236
     5   6 C    3.980 --    13 C    1.299     2 C    1.258     9 C    1.230
     6   6 C    3.983 --    14 C    1.310     3 C    1.269    10 C    1.223
     7   6 C    3.967 --     9 C    1.597     4 C    1.236    19 H    0.968
     8   6 C    3.969 --    10 C    1.592     4 C    1.243    20 H    0.968
     9   6 C    3.947 --     7 C    1.597     5 C    1.230    21 H    0.968
    10   6 C    3.931 --     8 C    1.592     6 C    1.223    22 H    0.969
    11   6 C    3.951 --    15 C    1.421     2 C    1.334    23 H    0.947
    12   6 C    3.937 --    16 C    1.500     3 C    1.308    24 H    0.962
    13   6 C    3.964 --    17 C    1.532     5 C    1.299    25 H    0.968
    14   6 C    3.936 --    18 C    1.495     6 C    1.310    26 H    0.969
    15   6 C    3.974 --    11 C    1.421    17 C    1.291    27 C    1.090
    16   6 C    3.973 --    12 C    1.500    18 C    1.361    28 H    0.972
    17   6 C    3.961 --    13 C    1.532    15 C    1.291    29 H    0.961
    18   6 C    3.955 --    14 C    1.495    16 C    1.361    30 H    0.972
    19   1 H    0.999 --     7 C    0.968
    20   1 H    0.999 --     8 C    0.968
    21   1 H    0.999 --     9 C    0.968
    22   1 H    0.999 --    10 C    0.969
    23   1 H    0.994 --    11 C    0.947
    24   1 H    0.998 --    12 C    0.962
    25   1 H    0.999 --    13 C    0.968
    26   1 H    0.999 --    14 C    0.969
    27   6 C    3.942 --    37 N    1.245    36 N    1.244    15 C    1.090
                            52 O    0.142    38 O    0.141
    28   1 H    0.999 --    16 C    0.972
    29   1 H    0.995 --    17 C    0.961
    30   1 H    0.999 --    18 C    0.972
    31   6 C    3.981 --    45 C    0.999    33 C    0.987    32 C    0.963
                            37 N    0.924
    32   6 C    3.981 --    34 C    0.999    35 C    0.987    31 C    0.963
                            36 N    0.923
    33   6 C    3.991 --    31 C    0.987    50 H    0.985    49 H    0.985
                            51 H    0.982
    34   6 C    3.994 --    32 C    0.999    41 H    0.986    39 H    0.983
                            40 H    0.980
    35   6 C    3.991 --    32 C    0.987    43 H    0.985    42 H    0.985
                            44 H    0.982
    36   7 N    3.563 --    27 C    1.244    52 O    1.145    32 C    0.923
                            37 N    0.116
    37   7 N    3.560 --    27 C    1.245    38 O    1.142    31 C    0.924
                            36 N    0.116
    38   8 O    1.477 --    37 N    1.142    27 C    0.141
    39   1 H    0.998 --    34 C    0.983
    40   1 H    0.996 --    34 C    0.980
    41   1 H    0.999 --    34 C    0.986
    42   1 H    0.999 --    35 C    0.985
    43   1 H    0.999 --    35 C    0.985
    44   1 H    0.997 --    35 C    0.982
    45   6 C    3.994 --    31 C    0.999    48 H    0.986    46 H    0.983
                            47 H    0.980
    46   1 H    0.998 --    45 C    0.983
    47   1 H    0.996 --    45 C    0.980
    48   1 H    0.999 --    45 C    0.986
    49   1 H    0.999 --    33 C    0.985
    50   1 H    0.999 --    33 C    0.985
    51   1 H    0.997 --    33 C    0.982
    52   8 O    1.489 --    36 N    1.145    27 C    0.142
 ---------------------------------------------------------------------------
Note: The following floating-point exceptions are signalling: IEEE_UNDERFLOW_FLAG
normal termination of xtb

Topologies differ in bond orders
Writing corrected topology to xtbtopo.mol

molecular dipole:
                 x           y           z       tot (Debye)
 q only:        0.897       1.948      -0.306
   full:        0.814       1.905      -0.358       5.344
molecular quadrupole (traceless):
                xx          xy          yy          xz          yz          zz
 q only:       10.350      -2.803     -30.936      -4.954      13.365      20.586
  q+dip:       16.796      -0.062     -27.264      -8.036      12.533      10.468
   full:       13.565       0.196     -30.078      -7.139      14.696      16.512


           -------------------------------------------------
          | TOTAL ENERGY              -79.405530129327 Eh   |
          | GRADIENT NORM               0.082563603853 Eh/α |
          | HOMO-LUMO GAP               0.098983105897 eV   |
           -------------------------------------------------
########################################################################
[WARNING] Runtime exception occurred
-2- restart_readRestart: Multiplicity missmatch in restart file.
-1- restart_readRestart: Number of electron missmatch in restart file.
########################################################################

------------------------------------------------------------------------
 * finished run on 2024/11/14 at 10:57:52.314     
------------------------------------------------------------------------
 total:
 * wall-time:     0 d,  0 h,  0 min,  0.504 sec
 *  cpu-time:     0 d,  0 h,  0 min,  1.805 sec
 * ratio c/w:     3.580 speedup
 SCF:
 * wall-time:     0 d,  0 h,  0 min,  0.497 sec
 *  cpu-time:     0 d,  0 h,  0 min,  1.795 sec
 * ratio c/w:     3.608 speedup

