      -----------------------------------------------------------      
     |                   =====================                   |     
     |                           x T B                           |     
     |                   =====================                   |     
     |                         S. Grimme                         |     
     |          Mulliken Center for Theoretical Chemistry        |     
     |                    University of Bonn                     |     
      -----------------------------------------------------------      

   * xtb version 6.6.1 (8d0f1dd) compiled by 'runner@Mac-1690902418499.local' on 2023-08-01

   xtb is free software: you can redistribute it and/or modify it under
   the terms of the GNU Lesser General Public License as published by
   the Free Software Foundation, either version 3 of the License, or
   (at your option) any later version.
   
   xtb is distributed in the hope that it will be useful,
   but WITHOUT ANY WARRANTY; without even the implied warranty of
   MERCHANTABILITY or FITNESS FOR A PARTICULAR PURPOSE.  See the
   GNU Lesser General Public License for more details.
   
   Cite this work as:
   * C. Bannwarth, E. Caldeweyher, S. Ehlert, A. Hansen, P. Pracht,
     J. Seibert, S. Spicher, S. Grimme, WIREs Comput. Mol. Sci., 2020, 11,
     e01493. DOI: 10.1002/wcms.1493
   
   for GFN2-xTB:
   * C. Bannwarth, S. Ehlert and S. Grimme., J. Chem. Theory Comput., 2019,
     15, 1652-1671. DOI: 10.1021/acs.jctc.8b01176
   for GFN1-xTB:
   * S. Grimme, C. Bannwarth, P. Shushkov, J. Chem. Theory Comput., 2017,
     13, 1989-2009. DOI: 10.1021/acs.jctc.7b00118
   for GFN0-xTB:
   * P. Pracht, E. Caldeweyher, S. Ehlert, S. Grimme, ChemRxiv, 2019, preprint.
     DOI: 10.26434/chemrxiv.8326202.v1
   for GFN-FF:
   * S. Spicher and S. Grimme, Angew. Chem. Int. Ed., 2020, 59, 15665-15673.
     DOI: 10.1002/anie.202004239
   
   for ALPB and GBSA implicit solvation:
   * S. Ehlert, M. Stahn, S. Spicher, S. Grimme, J. Chem. Theory Comput.,
     2021, 17, 4250-4261. DOI: 10.1021/acs.jctc.1c00471
   
   for DFT-D4:
   * E. Caldeweyher, C. Bannwarth and S. Grimme, J. Chem. Phys., 2017,
     147, 034112. DOI: 10.1063/1.4993215
   * E. Caldeweyher, S. Ehlert, A. Hansen, H. Neugebauer, S. Spicher,
     C. Bannwarth and S. Grimme, J. Chem. Phys., 2019, 150, 154122.
     DOI: 10.1063/1.5090222
   * E. Caldeweyher, J.-M. Mewes, S. Ehlert and S. Grimme, Phys. Chem. Chem. Phys.
     2020, 22, 8499-8512. DOI: 10.1039/D0CP00502A
   
   for sTDA-xTB:
   * S. Grimme and C. Bannwarth, J. Chem. Phys., 2016, 145, 054103.
     DOI: 10.1063/1.4959605
   
   in the mass-spec context:
   * V. Asgeirsson, C. Bauer and S. Grimme, Chem. Sci., 2017, 8, 4879.
     DOI: 10.1039/c7sc00601b
   * J. Koopman and S. Grimme, ACS Omega 2019, 4, 12, 15120-15133.
     DOI: 10.1021/acsomega.9b02011
   
   for metadynamics refer to:
   * S. Grimme, J. Chem. Theory Comput., 2019, 155, 2847-2862
     DOI: 10.1021/acs.jctc.9b00143
   
   for SPH calculations refer to:
   * S. Spicher and S. Grimme, J. Chem. Theory Comput., 2021, 17, 1701-1714
     DOI: 10.1021/acs.jctc.0c01306
   
   with help from (in alphabetical order)
   P. Atkinson, C. Bannwarth, F. Bohle, G. Brandenburg, E. Caldeweyher
   M. Checinski, S. Dohm, S. Ehlert, S. Ehrlich, I. Gerasimov, C. Hölzer
   A. Katbashev, J. Koopman, C. Lavigne, S. Lehtola, F. März, M. Müller,
   F. Musil, H. Neugebauer, J. Pisarek, C. Plett, P. Pracht, F. Pultar,
   J. Seibert, P. Shushkov, S. Spicher, M. Stahn, M. Steiner, T. Strunk,
   J. Stückrath, T. Rose, and J. Unsleber
   
 * started run on 2024/11/14 at 10:57:50.956     

           -------------------------------------------------
          |                Calculation Setup                |
           -------------------------------------------------

          program call               : xtb opt_anion_Nitro1.mol --gfn2 --sp --chrg -1 --uhf 0
          coordinate file            : opt_anion_Nitro1.mol
          omp threads                :                     8

   ID    Z sym.   atoms
    1    6 C      1-18, 27, 31-35, 45
    2    1 H      19-26, 28-30, 39-44, 46-51
    3    7 N      36, 37
    4    8 O      38, 52
########################################################################
[WARNING] Please study the warnings concerning your input carefully
-1- prog_main: Charge in sdf/mol input was overwritten
########################################################################

           -------------------------------------------------
          |                 G F N 2 - x T B                 |
           -------------------------------------------------

        Reference                      10.1021/acs.jctc.8b01176
      * Hamiltonian:
        H0-scaling (s, p, d)           1.850000    2.230000    2.230000
        zeta-weighting                 0.500000
      * Dispersion:
        s8                             2.700000
        a1                             0.520000
        a2                             5.000000
        s9                             5.000000
      * Repulsion:
        kExp                           1.500000    1.000000
        rExp                           1.000000
      * Coulomb:
        alpha                          2.000000
        third order                    shell-resolved
        anisotropic                    true
        a3                             3.000000
        a5                             4.000000
        cn-shift                       1.200000
        cn-exp                         4.000000
        max-rad                        5.000000

q/qsh data taken from xtbrestart
CAMM data taken from xtbrestart

          ...................................................
          :                      SETUP                      :
          :.................................................:
          :  # basis functions                 139          :
          :  # atomic orbitals                 139          :
          :  # shells                           81          :
          :  # electrons                       146          :
          :  max. iterations                   250          :
          :  Hamiltonian                  GFN2-xTB          :
          :  restarted?                       true          :
          :  GBSA solvation                  false          :
          :  PC potential                    false          :
          :  electronic temp.          300.0000000     K    :
          :  accuracy                    1.0000000          :
          :  -> integral cutoff          0.2500000E+02      :
          :  -> integral neglect         0.1000000E-07      :
          :  -> SCF convergence          0.1000000E-05 Eh   :
          :  -> wf. convergence          0.1000000E-03 e    :
          :  Broyden damping             0.4000000          :
          ...................................................

 iter      E             dE          RMSdq      gap      omega  full diag
   1    -80.6040012 -0.806040E+02  0.114E+00    1.87       0.0  T
   2    -80.6417246 -0.377234E-01  0.585E-01    0.21       1.0  T
   3    -80.3019061  0.339818E+00  0.186E+00    0.08       1.0  T
   4    -80.6362098 -0.334304E+00  0.508E-01    0.78       1.0  T
   5    -80.6421598 -0.595007E-02  0.328E-01    0.42       1.0  T
   6    -80.6408879  0.127196E-02  0.290E-01    0.42       1.0  T
   7    -80.6422833 -0.139548E-02  0.259E-01    0.38       1.0  T
   8    -80.6432347 -0.951333E-03  0.229E-01    0.34       1.0  T
   9    -80.6437413 -0.506581E-03  0.211E-01    0.30       1.0  T
  10    -80.6449976 -0.125631E-02  0.167E-01    0.23       1.0  T
  11    -80.6474920 -0.249440E-02  0.157E-02    0.14       1.0  T
  12    -80.6468607  0.631277E-03  0.822E-02    0.17       1.0  T
  13    -80.6474267 -0.565959E-03  0.283E-02    0.13       1.0  T
  14    -80.6475011 -0.744364E-04  0.693E-03    0.14       2.0  T
  15    -80.6475040 -0.288671E-05  0.405E-03    0.13       3.4  T
  16    -80.6475049 -0.891845E-06  0.273E-03    0.13       5.1  T
  17    -80.6475056 -0.706418E-06  0.437E-04    0.13      31.7  T
  18    -80.6475056  0.254401E-07  0.675E-04    0.14      20.5  T

   *** convergence criteria satisfied after 18 iterations ***

         #    Occupation            Energy/Eh            Energy/eV
      -------------------------------------------------------------
         1        2.0000           -0.5535025             -15.0616
       ...           ...                  ...                  ...
        67        2.0000           -0.2867093              -7.8018
        68        2.0000           -0.2711617              -7.3787
        69        2.0000           -0.2574258              -7.0049
        70        2.0000           -0.2244585              -6.1078
        71        2.0000           -0.2233162              -6.0767
        72        2.0000           -0.2154092              -5.8616
        73        1.8633           -0.1603729              -4.3640 (HOMO)
        74        0.1365           -0.1554073              -4.2288 (LUMO)
        75        0.0002           -0.1490896              -4.0569
        76                         -0.1121328              -3.0513
        77                         -0.1073593              -2.9214
        78                         -0.0776958              -2.1142
       ...                                ...                  ...
       139                          0.8295403              22.5729
      -------------------------------------------------------------
                  HL-Gap            0.0049656 Eh            0.1351 eV
             Fermi-level           -0.1578908 Eh           -4.2964 eV

 SCC (total)                   0 d,  0 h,  0 min,  0.449 sec
 SCC setup                      ...        0 min,  0.000 sec (  0.032%)
 Dispersion                     ...        0 min,  0.000 sec (  0.090%)
 classical contributions        ...        0 min,  0.000 sec (  0.024%)
 integral evaluation            ...        0 min,  0.002 sec (  0.440%)
 iterations                     ...        0 min,  0.428 sec ( 95.311%)
 molecular gradient             ...        0 min,  0.007 sec (  1.641%)
 printout                       ...        0 min,  0.011 sec (  2.460%)

         :::::::::::::::::::::::::::::::::::::::::::::::::::::
         ::                     SUMMARY                     ::
         :::::::::::::::::::::::::::::::::::::::::::::::::::::
         :: total energy             -79.411628748435 Eh    ::
         :: gradient norm              0.000324011085 Eh/a0 ::
         :: HOMO-LUMO gap              0.135120456497 eV    ::
         ::.................................................::
         :: SCC energy               -80.647505553267 Eh    ::
         :: -> isotropic ES            0.182515651837 Eh    ::
         :: -> anisotropic ES          0.012334041899 Eh    ::
         :: -> anisotropic XC          0.027813028315 Eh    ::
         :: -> dispersion             -0.067567055917 Eh    ::
         :: repulsion energy           1.235602836168 Eh    ::
         :: add. restraining           0.000000000000 Eh    ::
         :: total charge              -1.000001413635 e     ::
         :::::::::::::::::::::::::::::::::::::::::::::::::::::

           -------------------------------------------------
          |                Property Printout                |
           -------------------------------------------------

    * Orbital Energies and Occupations

         #    Occupation            Energy/Eh            Energy/eV
      -------------------------------------------------------------
         1        2.0000           -0.5535025             -15.0616
       ...           ...                  ...                  ...
        61        2.0000           -0.3158799              -8.5955
        62        2.0000           -0.3143446              -8.5538
        63        2.0000           -0.3081309              -8.3847
        64        2.0000           -0.3021422              -8.2217
        65        2.0000           -0.2964657              -8.0672
        66        2.0000           -0.2902587              -7.8983
        67        2.0000           -0.2867093              -7.8018
        68        2.0000           -0.2711617              -7.3787
        69        2.0000           -0.2574258              -7.0049
        70        2.0000           -0.2244585              -6.1078
        71        2.0000           -0.2233162              -6.0767
        72        2.0000           -0.2154092              -5.8616
        73        1.8633           -0.1603729              -4.3640 (HOMO)
        74        0.1365           -0.1554073              -4.2288 (LUMO)
        75        0.0002           -0.1490896              -4.0569
        76                         -0.1121328              -3.0513
        77                         -0.1073593              -2.9214
        78                         -0.0776958              -2.1142
        79                         -0.0677779              -1.8443
        80                         -0.0397832              -1.0826
        81                         -0.0033586              -0.0914
        82                          0.0380477               1.0353
        83                          0.0737134               2.0058
        84                          0.0971524               2.6437
       ...                                ...                  ...
       139                          0.8295403              22.5729
      -------------------------------------------------------------
                  HL-Gap            0.0049656 Eh            0.1351 eV
             Fermi-level           -0.1578908 Eh           -4.2964 eV

     #   Z          covCN         q      C6AA      α(0)
     1   6 C        2.977    -0.007    28.197     8.710
     2   6 C        2.977     0.002    27.972     8.675
     3   6 C        2.979     0.008    27.829     8.653
     4   6 C        2.986    -0.002    28.065     8.690
     5   6 C        2.988    -0.001    28.050     8.688
     6   6 C        2.989     0.004    27.927     8.669
     7   6 C        2.917    -0.049    29.216     8.864
     8   6 C        2.918    -0.044    29.093     8.845
     9   6 C        2.915    -0.044    29.100     8.846
    10   6 C        2.915    -0.050    29.236     8.867
    11   6 C        2.923    -0.056    29.384     8.889
    12   6 C        2.919    -0.034    28.851     8.808
    13   6 C        2.919    -0.046    29.140     8.852
    14   6 C        2.923    -0.047    29.157     8.855
    15   6 C        2.968     0.017    27.631     8.622
    16   6 C        2.917    -0.033    28.819     8.803
    17   6 C        2.919    -0.044    29.099     8.846
    18   6 C        2.915    -0.039    28.963     8.825
    19   1 H        0.925     0.002     3.018     2.717
    20   1 H        0.925     0.005     2.966     2.693
    21   1 H        0.925     0.006     2.956     2.689
    22   1 H        0.925     0.004     2.988     2.703
    23   1 H        0.926     0.088     1.894     2.152
    24   1 H        0.926     0.052     2.292     2.368
    25   1 H        0.925     0.007     2.944     2.683
    26   1 H        0.925     0.005     2.972     2.696
    27   6 C        2.902     0.048    26.919     8.507
    28   1 H        0.926     0.021     2.722     2.580
    29   1 H        0.926     0.078     2.003     2.213
    30   1 H        0.925     0.005     2.971     2.696
    31   6 C        3.891     0.056    19.590     6.292
    32   6 C        3.890     0.056    19.594     6.293
    33   6 C        3.759    -0.101    22.469     6.758
    34   6 C        3.758    -0.102    22.493     6.762
    35   6 C        3.759    -0.100    22.465     6.757
    36   7 N        2.798     0.086    19.742     6.599
    37   7 N        2.797     0.085    19.764     6.603
    38   8 O        0.922    -0.598    26.039     6.843
    39   1 H        0.925     0.037     2.486     2.466
    40   1 H        0.925     0.062     2.172     2.305
    41   1 H        0.925     0.018     2.761     2.599
    42   1 H        0.925     0.031     2.568     2.506
    43   1 H        0.925     0.021     2.720     2.579
    44   1 H        0.925     0.058     2.227     2.334
    45   6 C        3.758    -0.101    22.486     6.761
    46   1 H        0.925     0.037     2.488     2.466
    47   1 H        0.925     0.062     2.180     2.309
    48   1 H        0.925     0.018     2.766     2.601
    49   1 H        0.925     0.032     2.562     2.503
    50   1 H        0.925     0.021     2.721     2.580
    51   1 H        0.925     0.057     2.236     2.339
    52   8 O        0.922    -0.592    25.882     6.823

 Mol. C6AA /au·bohr⁶  :      34248.844154
 Mol. C8AA /au·bohr⁸  :     828391.533925
 Mol. α(0) /au        :        290.779080


Wiberg/Mayer (AO) data.
largest (>0.10) Wiberg bond orders for each atom

 ---------------------------------------------------------------------------
     #   Z sym  total        # sym  WBO       # sym  WBO       # sym  WBO
 ---------------------------------------------------------------------------
     1   6 C    3.940 --     4 C    1.310     3 C    1.202     2 C    1.188
     2   6 C    3.985 --    11 C    1.343     5 C    1.250     1 C    1.188
     3   6 C    3.987 --    12 C    1.313     6 C    1.264     1 C    1.202
     4   6 C    3.971 --     1 C    1.310     8 C    1.243     7 C    1.236
     5   6 C    3.982 --    13 C    1.296     2 C    1.250     9 C    1.238
     6   6 C    3.983 --    14 C    1.312     3 C    1.264    10 C    1.227
     7   6 C    3.965 --     9 C    1.596     4 C    1.236    19 H    0.968
     8   6 C    3.975 --    10 C    1.597     4 C    1.243    20 H    0.968
     9   6 C    3.961 --     7 C    1.596     5 C    1.238    21 H    0.968
    10   6 C    3.951 --     8 C    1.597     6 C    1.227    22 H    0.968
    11   6 C    3.963 --    15 C    1.410     2 C    1.343    23 H    0.939
    12   6 C    3.959 --    16 C    1.505     3 C    1.313    24 H    0.960
                            14 C    0.104
    13   6 C    3.972 --    17 C    1.541     5 C    1.296    25 H    0.968
    14   6 C    3.956 --    18 C    1.502     6 C    1.312    26 H    0.969
                            12 C    0.104
    15   6 C    3.978 --    11 C    1.410    17 C    1.283    27 C    1.110
    16   6 C    3.979 --    12 C    1.505    18 C    1.361    28 H    0.971
    17   6 C    3.964 --    13 C    1.541    15 C    1.283    29 H    0.950
    18   6 C    3.966 --    14 C    1.502    16 C    1.361    30 H    0.972
    19   1 H    0.999 --     7 C    0.968
    20   1 H    0.999 --     8 C    0.968
    21   1 H    0.998 --     9 C    0.968
    22   1 H    0.999 --    10 C    0.968
    23   1 H    0.992 --    11 C    0.939
    24   1 H    0.997 --    12 C    0.960
    25   1 H    0.999 --    13 C    0.968
    26   1 H    0.999 --    14 C    0.969
    27   6 C    3.946 --    37 N    1.251    36 N    1.249    15 C    1.110
                            38 O    0.128    52 O    0.128
    28   1 H    0.999 --    16 C    0.971
    29   1 H    0.993 --    17 C    0.950
    30   1 H    0.999 --    18 C    0.972
    31   6 C    3.980 --    45 C    0.998    33 C    0.986    32 C    0.962
                            37 N    0.936
    32   6 C    3.980 --    34 C    0.998    35 C    0.986    31 C    0.962
                            36 N    0.936
    33   6 C    3.992 --    31 C    0.986    50 H    0.985    49 H    0.985
                            51 H    0.981
    34   6 C    3.993 --    32 C    0.998    41 H    0.986    39 H    0.983
                            40 H    0.979
    35   6 C    3.992 --    32 C    0.986    43 H    0.985    42 H    0.985
                            44 H    0.981
    36   7 N    3.573 --    27 C    1.249    52 O    1.105    32 C    0.936
                            37 N    0.132
    37   7 N    3.571 --    27 C    1.251    38 O    1.101    31 C    0.936
                            36 N    0.132
    38   8 O    1.458 --    37 N    1.101    27 C    0.128
    39   1 H    0.999 --    34 C    0.983
    40   1 H    0.996 --    34 C    0.979
    41   1 H    0.999 --    34 C    0.986
    42   1 H    0.999 --    35 C    0.985
    43   1 H    0.999 --    35 C    0.985
    44   1 H    0.996 --    35 C    0.981
    45   6 C    3.994 --    31 C    0.998    48 H    0.986    46 H    0.983
                            47 H    0.979
    46   1 H    0.999 --    45 C    0.983
    47   1 H    0.996 --    45 C    0.979
    48   1 H    0.999 --    45 C    0.986
    49   1 H    0.999 --    33 C    0.985
Note: The following floating-point exceptions are signalling: IEEE_UNDERFLOW_FLAG
normal termination of xtb
    50   1 H    0.999 --    33 C    0.985
    51   1 H    0.996 --    33 C    0.981
    52   8 O    1.472 --    36 N    1.105    27 C    0.128
 ---------------------------------------------------------------------------

Topologies differ in bond orders
Writing corrected topology to xtbtopo.mol

molecular dipole:
                 x           y           z       tot (Debye)
 q only:        1.150       2.637      -0.312
   full:        1.104       2.626      -0.368       7.302
molecular quadrupole (traceless):
                xx          xy          yy          xz          yz          zz
 q only:        8.560      -2.993     -36.643      -3.205      10.743      28.083
  q+dip:       14.613       0.714     -34.276      -4.690       8.178      19.663
   full:       11.317       0.621     -36.890      -4.444      10.925      25.573


           -------------------------------------------------
          | TOTAL ENERGY              -79.411628748435 Eh   |
          | GRADIENT NORM               0.000324011085 Eh/α |
          | HOMO-LUMO GAP               0.135120456497 eV   |
           -------------------------------------------------
########################################################################
[WARNING] Runtime exception occurred
-2- restart_readRestart: Multiplicity missmatch in restart file.
-1- restart_readRestart: Number of electron missmatch in restart file.
########################################################################

------------------------------------------------------------------------
 * finished run on 2024/11/14 at 10:57:51.414     
------------------------------------------------------------------------
 total:
 * wall-time:     0 d,  0 h,  0 min,  0.457 sec
 *  cpu-time:     0 d,  0 h,  0 min,  1.528 sec
 * ratio c/w:     3.346 speedup
 SCF:
 * wall-time:     0 d,  0 h,  0 min,  0.449 sec
 *  cpu-time:     0 d,  0 h,  0 min,  1.517 sec
 * ratio c/w:     3.378 speedup

