      -----------------------------------------------------------      
     |                   =====================                   |     
     |                           x T B                           |     
     |                   =====================                   |     
     |                         S. Grimme                         |     
     |          Mulliken Center for Theoretical Chemistry        |     
     |                    University of Bonn                     |     
      -----------------------------------------------------------      

   * xtb version 6.6.1 (8d0f1dd) compiled by 'runner@Mac-1690902418499.local' on 2023-08-01

   xtb is free software: you can redistribute it and/or modify it under
   the terms of the GNU Lesser General Public License as published by
   the Free Software Foundation, either version 3 of the License, or
   (at your option) any later version.
   
   xtb is distributed in the hope that it will be useful,
   but WITHOUT ANY WARRANTY; without even the implied warranty of
   MERCHANTABILITY or FITNESS FOR A PARTICULAR PURPOSE.  See the
   GNU Lesser General Public License for more details.
   
   Cite this work as:
   * C. Bannwarth, E. Caldeweyher, S. Ehlert, A. Hansen, P. Pracht,
     J. Seibert, S. Spicher, S. Grimme, WIREs Comput. Mol. Sci., 2020, 11,
     e01493. DOI: 10.1002/wcms.1493
   
   for GFN2-xTB:
   * C. Bannwarth, S. Ehlert and S. Grimme., J. Chem. Theory Comput., 2019,
     15, 1652-1671. DOI: 10.1021/acs.jctc.8b01176
   for GFN1-xTB:
   * S. Grimme, C. Bannwarth, P. Shushkov, J. Chem. Theory Comput., 2017,
     13, 1989-2009. DOI: 10.1021/acs.jctc.7b00118
   for GFN0-xTB:
   * P. Pracht, E. Caldeweyher, S. Ehlert, S. Grimme, ChemRxiv, 2019, preprint.
     DOI: 10.26434/chemrxiv.8326202.v1
   for GFN-FF:
   * S. Spicher and S. Grimme, Angew. Chem. Int. Ed., 2020, 59, 15665-15673.
     DOI: 10.1002/anie.202004239
   
   for ALPB and GBSA implicit solvation:
   * S. Ehlert, M. Stahn, S. Spicher, S. Grimme, J. Chem. Theory Comput.,
     2021, 17, 4250-4261. DOI: 10.1021/acs.jctc.1c00471
   
   for DFT-D4:
   * E. Caldeweyher, C. Bannwarth and S. Grimme, J. Chem. Phys., 2017,
     147, 034112. DOI: 10.1063/1.4993215
   * E. Caldeweyher, S. Ehlert, A. Hansen, H. Neugebauer, S. Spicher,
     C. Bannwarth and S. Grimme, J. Chem. Phys., 2019, 150, 154122.
     DOI: 10.1063/1.5090222
   * E. Caldeweyher, J.-M. Mewes, S. Ehlert and S. Grimme, Phys. Chem. Chem. Phys.
     2020, 22, 8499-8512. DOI: 10.1039/D0CP00502A
   
   for sTDA-xTB:
   * S. Grimme and C. Bannwarth, J. Chem. Phys., 2016, 145, 054103.
     DOI: 10.1063/1.4959605
   
   in the mass-spec context:
   * V. Asgeirsson, C. Bauer and S. Grimme, Chem. Sci., 2017, 8, 4879.
     DOI: 10.1039/c7sc00601b
   * J. Koopman and S. Grimme, ACS Omega 2019, 4, 12, 15120-15133.
     DOI: 10.1021/acsomega.9b02011
   
   for metadynamics refer to:
   * S. Grimme, J. Chem. Theory Comput., 2019, 155, 2847-2862
     DOI: 10.1021/acs.jctc.9b00143
   
   for SPH calculations refer to:
   * S. Spicher and S. Grimme, J. Chem. Theory Comput., 2021, 17, 1701-1714
     DOI: 10.1021/acs.jctc.0c01306
   
   with help from (in alphabetical order)
   P. Atkinson, C. Bannwarth, F. Bohle, G. Brandenburg, E. Caldeweyher
   M. Checinski, S. Dohm, S. Ehlert, S. Ehrlich, I. Gerasimov, C. Hölzer
   A. Katbashev, J. Koopman, C. Lavigne, S. Lehtola, F. März, M. Müller,
   F. Musil, H. Neugebauer, J. Pisarek, C. Plett, P. Pracht, F. Pultar,
   J. Seibert, P. Shushkov, S. Spicher, M. Stahn, M. Steiner, T. Strunk,
   J. Stückrath, T. Rose, and J. Unsleber
   
 * started run on 2024/11/14 at 10:57:51.431     

           -------------------------------------------------
          |                Calculation Setup                |
           -------------------------------------------------

          program call               : xtb opt_anion_Nitro1.mol --gfn2 --sp --chrg 0 --uhf 1
          coordinate file            : opt_anion_Nitro1.mol
          omp threads                :                     8

   ID    Z sym.   atoms
    1    6 C      1-18, 27, 31-35, 45
    2    1 H      19-26, 28-30, 39-44, 46-51
    3    7 N      36, 37
    4    8 O      38, 52
########################################################################
[WARNING] Please study the warnings concerning your input carefully
-1- prog_main: Charge in sdf/mol input was overwritten
########################################################################

           -------------------------------------------------
          |                 G F N 2 - x T B                 |
           -------------------------------------------------

        Reference                      10.1021/acs.jctc.8b01176
      * Hamiltonian:
        H0-scaling (s, p, d)           1.850000    2.230000    2.230000
        zeta-weighting                 0.500000
      * Dispersion:
        s8                             2.700000
        a1                             0.520000
        a2                             5.000000
        s9                             5.000000
      * Repulsion:
        kExp                           1.500000    1.000000
        rExp                           1.000000
      * Coulomb:
        alpha                          2.000000
        third order                    shell-resolved
        anisotropic                    true
        a3                             3.000000
        a5                             4.000000
        cn-shift                       1.200000
        cn-exp                         4.000000
        max-rad                        5.000000

q/qsh data taken from xtbrestart
CAMM data taken from xtbrestart

          ...................................................
          :                      SETUP                      :
          :.................................................:
          :  # basis functions                 139          :
          :  # atomic orbitals                 139          :
          :  # shells                           81          :
          :  # electrons                       145          :
          :  max. iterations                   250          :
          :  Hamiltonian                  GFN2-xTB          :
          :  restarted?                       true          :
          :  GBSA solvation                  false          :
          :  PC potential                    false          :
          :  electronic temp.          300.0000000     K    :
          :  accuracy                    1.0000000          :
          :  -> integral cutoff          0.2500000E+02      :
          :  -> integral neglect         0.1000000E-07      :
          :  -> SCF convergence          0.1000000E-05 Eh   :
          :  -> wf. convergence          0.1000000E-03 e    :
          :  Broyden damping             0.4000000          :
          ...................................................

 iter      E             dE          RMSdq      gap      omega  full diag
   1    -80.3617567 -0.803618E+02  0.890E-01    0.13       0.0  T
   2    -80.3969316 -0.351750E-01  0.455E-01    1.66       1.0  T
   3    -80.3994071 -0.247549E-02  0.286E-01    1.69       1.0  T
   4    -80.4000032 -0.596023E-03  0.198E-01    1.78       1.0  T
   5    -80.4004456 -0.442432E-03  0.644E-02    1.81       1.0  T
   6    -80.4005349 -0.893431E-04  0.257E-02    1.79       1.0  T
   7    -80.4005567 -0.217379E-04  0.130E-02    1.79       1.1  T
   8    -80.4005619 -0.527285E-05  0.736E-03    1.78       1.9  T
   9    -80.4005633 -0.134114E-05  0.361E-03    1.78       3.8  T
  10    -80.4005639 -0.609347E-06  0.112E-03    1.78      12.4  T
  11    -80.4005639 -0.350356E-07  0.506E-04    1.78      27.4  T
  12    -80.4005639 -0.298076E-08  0.209E-04    1.78      66.2  T

   *** convergence criteria satisfied after 12 iterations ***

         #    Occupation            Energy/Eh            Energy/eV
      -------------------------------------------------------------
         1        2.0000           -0.7187673             -19.5587
       ...           ...                  ...                  ...
        67        2.0000           -0.4003907             -10.8952
        68        2.0000           -0.3978814             -10.8269
        69        2.0000           -0.3958450             -10.7715
        70        2.0000           -0.3881522             -10.5622
        71        2.0000           -0.3745090             -10.1909
        72        2.0000           -0.3663688              -9.9694
        73        1.0000           -0.3432535              -9.3404 (HOMO)
        74                         -0.2777135              -7.5570 (LUMO)
        75                         -0.2610619              -7.1039
        76                         -0.2380321              -6.4772
        77                         -0.2205986              -6.0028
        78                         -0.1982377              -5.3943
       ...                                ...                  ...
       139                          0.7178006              19.5323
      -------------------------------------------------------------
                  HL-Gap            0.0655400 Eh            1.7834 eV
             Fermi-level           -0.3326473 Eh           -9.0518 eV

 SCC (total)                   0 d,  0 h,  0 min,  0.355 sec
 SCC setup                      ...        0 min,  0.000 sec (  0.037%)
 Dispersion                     ...        0 min,  0.000 sec (  0.101%)
 classical contributions        ...        0 min,  0.000 sec (  0.022%)
 integral evaluation            ...        0 min,  0.002 sec (  0.607%)
 iterations                     ...        0 min,  0.336 sec ( 94.587%)
 molecular gradient             ...        0 min,  0.008 sec (  2.233%)
 printout                       ...        0 min,  0.009 sec (  2.410%)

         :::::::::::::::::::::::::::::::::::::::::::::::::::::
         ::                     SUMMARY                     ::
         :::::::::::::::::::::::::::::::::::::::::::::::::::::
         :: total energy             -79.164687122111 Eh    ::
         :: gradient norm              0.080194192478 Eh/a0 ::
         :: HOMO-LUMO gap              1.783434382149 eV    ::
         ::.................................................::
         :: SCC energy               -80.400563926942 Eh    ::
         :: -> isotropic ES            0.070058619369 Eh    ::
         :: -> anisotropic ES          0.004116643313 Eh    ::
         :: -> anisotropic XC          0.032919624285 Eh    ::
         :: -> dispersion             -0.065386025376 Eh    ::
         :: repulsion energy           1.235602836168 Eh    ::
         :: add. restraining           0.000000000000 Eh    ::
         :: total charge               0.000012756220 e     ::
         :::::::::::::::::::::::::::::::::::::::::::::::::::::

           -------------------------------------------------
          |                Property Printout                |
           -------------------------------------------------

    * Orbital Energies and Occupations

         #    Occupation            Energy/Eh            Energy/eV
      -------------------------------------------------------------
         1        2.0000           -0.7187673             -19.5587
       ...           ...                  ...                  ...
        61        2.0000           -0.4331765             -11.7873
        62        2.0000           -0.4302650             -11.7081
        63        2.0000           -0.4251360             -11.5685
        64        2.0000           -0.4186305             -11.3915
        65        2.0000           -0.4114967             -11.1974
        66        2.0000           -0.4089240             -11.1274
        67        2.0000           -0.4003907             -10.8952
        68        2.0000           -0.3978814             -10.8269
        69        2.0000           -0.3958450             -10.7715
        70        2.0000           -0.3881522             -10.5622
        71        2.0000           -0.3745090             -10.1909
        72        2.0000           -0.3663688              -9.9694
        73        1.0000           -0.3432535              -9.3404 (HOMO)
        74                         -0.2777135              -7.5570 (LUMO)
        75                         -0.2610619              -7.1039
        76                         -0.2380321              -6.4772
        77                         -0.2205986              -6.0028
        78                         -0.1982377              -5.3943
        79                         -0.1785485              -4.8586
        80                         -0.1600774              -4.3559
        81                         -0.1203293              -3.2743
        82                         -0.0769645              -2.0943
        83                         -0.0681082              -1.8533
        84                         -0.0389244              -1.0592
       ...                                ...                  ...
       139                          0.7178006              19.5323
      -------------------------------------------------------------
                  HL-Gap            0.0655400 Eh            1.7834 eV
             Fermi-level           -0.3326473 Eh           -9.0518 eV

     #   Z          covCN         q      C6AA      α(0)
     1   6 C        2.977     0.002    27.971     8.675
     2   6 C        2.977     0.010    27.788     8.647
     3   6 C        2.979     0.010    27.796     8.648
     4   6 C        2.986     0.010    27.777     8.645
     5   6 C        2.988     0.014    27.693     8.632
     6   6 C        2.989     0.012    27.735     8.639
     7   6 C        2.917    -0.034    28.846     8.807
     8   6 C        2.918    -0.037    28.931     8.820
     9   6 C        2.915    -0.037    28.931     8.820
    10   6 C        2.915    -0.037    28.908     8.817
    11   6 C        2.923    -0.044    29.086     8.844
    12   6 C        2.919    -0.033    28.822     8.804
    13   6 C        2.919    -0.035    28.880     8.813
    14   6 C        2.923    -0.036    28.894     8.815
    15   6 C        2.968     0.007    27.865     8.659
    16   6 C        2.917    -0.028    28.696     8.784
    17   6 C        2.919    -0.041    29.020     8.834
    18   6 C        2.915    -0.029    28.727     8.789
    19   1 H        0.925     0.032     2.557     2.501
    20   1 H        0.925     0.030     2.587     2.515
    21   1 H        0.925     0.032     2.560     2.502
    22   1 H        0.925     0.030     2.580     2.512
    23   1 H        0.926     0.090     1.875     2.141
    24   1 H        0.926     0.046     2.364     2.404
    25   1 H        0.925     0.036     2.504     2.475
    26   1 H        0.925     0.029     2.599     2.521
    27   6 C        2.902     0.065    26.546     8.448
    28   1 H        0.926     0.033     2.545     2.495
    29   1 H        0.926     0.081     1.971     2.195
    30   1 H        0.925     0.029     2.603     2.523
    31   6 C        3.891     0.051    19.666     6.304
    32   6 C        3.890     0.051    19.665     6.304
    33   6 C        3.759    -0.113    22.711     6.794
    34   6 C        3.758    -0.116    22.765     6.802
    35   6 C        3.759    -0.113    22.703     6.793
    36   7 N        2.798     0.168    18.431     6.376
    37   7 N        2.797     0.169    18.411     6.373
    38   8 O        0.922    -0.449    22.661     6.384
    39   1 H        0.925     0.054     2.271     2.357
    40   1 H        0.925     0.078     2.000     2.211
    41   1 H        0.925     0.050     2.318     2.381
    42   1 H        0.925     0.043     2.403     2.424
    43   1 H        0.925     0.056     2.247     2.344
    44   1 H        0.925     0.073     2.050     2.239
    45   6 C        3.758    -0.116    22.764     6.802
    46   1 H        0.925     0.054     2.272     2.357
    47   1 H        0.925     0.078     1.995     2.209
    48   1 H        0.925     0.050     2.319     2.382
    49   1 H        0.925     0.044     2.398     2.422
    50   1 H        0.925     0.056     2.247     2.344
    51   1 H        0.925     0.074     2.043     2.235
    52   8 O        0.922    -0.452    22.704     6.390

 Mol. C6AA /au·bohr⁶  :      33090.066296
 Mol. C8AA /au·bohr⁸  :     805890.595055
 Mol. α(0) /au        :        285.952408


Wiberg/Mayer (AO) data.
largest (>0.10) Wiberg bond orders for each atom

 ---------------------------------------------------------------------------
     #   Z sym  total        # sym  WBO       # sym  WBO       # sym  WBO
 ---------------------------------------------------------------------------
     1   6 C    3.984 --     4 C    1.331     3 C    1.201     2 C    1.188
     2   6 C    3.988 --    11 C    1.340     5 C    1.255     1 C    1.188
     3   6 C    3.988 --    12 C    1.314     6 C    1.264     1 C    1.201
     4   6 C    3.990 --     1 C    1.331     8 C    1.234     7 C    1.234
     5   6 C    3.985 --    13 C    1.296     2 C    1.255     9 C    1.237
     6   6 C    3.985 --    14 C    1.310     3 C    1.264    10 C    1.230
     7   6 C    3.973 --     9 C    1.608     4 C    1.234    19 H    0.967
     8   6 C    3.986 --    10 C    1.615     4 C    1.234    20 H    0.967
     9   6 C    3.982 --     7 C    1.608     5 C    1.237    21 H    0.967
    10   6 C    3.983 --     8 C    1.615     6 C    1.230    22 H    0.967
    11   6 C    3.978 --    15 C    1.417     2 C    1.340    23 H    0.941
    12   6 C    3.990 --    16 C    1.517     3 C    1.314    24 H    0.960
                            14 C    0.114
    13   6 C    3.985 --    17 C    1.548     5 C    1.296    25 H    0.967
    14   6 C    3.985 --    18 C    1.520     6 C    1.310    26 H    0.968
                            12 C    0.114
    15   6 C    3.973 --    11 C    1.417    17 C    1.279    27 C    1.099
    16   6 C    3.987 --    12 C    1.517    18 C    1.354    28 H    0.970
    17   6 C    3.972 --    13 C    1.548    15 C    1.279    29 H    0.952
    18   6 C    3.980 --    14 C    1.520    16 C    1.354    30 H    0.971
    19   1 H    0.998 --     7 C    0.967
    20   1 H    0.998 --     8 C    0.967
    21   1 H    0.998 --     9 C    0.967
    22   1 H    0.998 --    10 C    0.967
    23   1 H    0.991 --    11 C    0.941
    24   1 H    0.997 --    12 C    0.960
    25   1 H    0.998 --    13 C    0.967
    26   1 H    0.999 --    14 C    0.968
    27   6 C    3.945 --    37 N    1.258    36 N    1.257    15 C    1.099
                            52 O    0.124    38 O    0.124
    28   1 H    0.998 --    16 C    0.970
    29   1 H    0.993 --    17 C    0.952
    30   1 H    0.998 --    18 C    0.971
    31   6 C    3.964 --    45 C    0.995    33 C    0.978    32 C    0.959
                            37 N    0.926
    32   6 C    3.964 --    34 C    0.995    35 C    0.978    31 C    0.959
                            36 N    0.925
    33   6 C    3.987 --    49 H    0.983    50 H    0.981    31 C    0.978
                            51 H    0.978
    34   6 C    3.987 --    32 C    0.995    41 H    0.983    39 H    0.981
                            40 H    0.976
    35   6 C    3.988 --    42 H    0.983    43 H    0.981    32 C    0.978
                            44 H    0.978
    36   7 N    3.693 --    52 O    1.269    27 C    1.257    32 C    0.925
    37   7 N    3.692 --    38 O    1.270    27 C    1.258    31 C    0.926
    38   8 O    1.708 --    37 N    1.270    27 C    0.124    52 O    0.107
    39   1 H    0.997 --    34 C    0.981
    40   1 H    0.993 --    34 C    0.976
    41   1 H    0.997 --    34 C    0.983
    42   1 H    0.998 --    35 C    0.983
    43   1 H    0.996 --    35 C    0.981
    44   1 H    0.994 --    35 C    0.978
    45   6 C    3.987 --    31 C    0.995    48 H    0.983    46 H    0.981
                            47 H    0.976
    46   1 H    0.997 --    45 C    0.981
    47   1 H    0.993 --    45 C    0.976
    48   1 H    0.997 --    45 C    0.983
    49   1 H    0.998 --    33 C    0.983
    50   1 H    0.996 --    33 C    0.981
    51   1 H    0.994 --    33 C    0.978
    52   8 O    1.710 --    36 N    1.269    27 C    0.124    38 O    0.107
 ---------------------------------------------------------------------------

Topologies differ in bond orders
Writing corrected topology to xtbtopo.mol

molecular dipole:
                 x           y           z       tot (Debye)
 q only:       -1.015      -0.438      -0.079
   full:       -0.979      -0.427      -0.102       2.726
Note: The following floating-point exceptions are signalling: IEEE_UNDERFLOW_FLAG
normal termination of xtb
molecular quadrupole (traceless):
                xx          xy          yy          xz          yz          zz
 q only:       10.434      24.478      -1.313      -2.521       4.875      -9.121
  q+dip:       15.222      25.820       0.936      -3.893       2.025     -16.158
   full:       11.495      25.785      -2.113      -3.812       5.091      -9.381


           -------------------------------------------------
          | TOTAL ENERGY              -79.164687122111 Eh   |
          | GRADIENT NORM               0.080194192478 Eh/α |
          | HOMO-LUMO GAP               1.783434382149 eV   |
           -------------------------------------------------
########################################################################
[WARNING] Runtime exception occurred
-2- restart_readRestart: Multiplicity missmatch in restart file.
-1- restart_readRestart: Number of electron missmatch in restart file.
########################################################################

------------------------------------------------------------------------
 * finished run on 2024/11/14 at 10:57:51.793     
------------------------------------------------------------------------
 total:
 * wall-time:     0 d,  0 h,  0 min,  0.362 sec
 *  cpu-time:     0 d,  0 h,  0 min,  1.306 sec
 * ratio c/w:     3.610 speedup
 SCF:
 * wall-time:     0 d,  0 h,  0 min,  0.355 sec
 *  cpu-time:     0 d,  0 h,  0 min,  1.294 sec
 * ratio c/w:     3.647 speedup

