      -----------------------------------------------------------      
     |                   =====================                   |     
     |                           x T B                           |     
     |                   =====================                   |     
     |                         S. Grimme                         |     
     |          Mulliken Center for Theoretical Chemistry        |     
     |                    University of Bonn                     |     
      -----------------------------------------------------------      

   * xtb version 6.6.1 (8d0f1dd) compiled by 'runner@Mac-1690902418499.local' on 2023-08-01

   xtb is free software: you can redistribute it and/or modify it under
   the terms of the GNU Lesser General Public License as published by
   the Free Software Foundation, either version 3 of the License, or
   (at your option) any later version.
   
   xtb is distributed in the hope that it will be useful,
   but WITHOUT ANY WARRANTY; without even the implied warranty of
   MERCHANTABILITY or FITNESS FOR A PARTICULAR PURPOSE.  See the
   GNU Lesser General Public License for more details.
   
   Cite this work as:
   * C. Bannwarth, E. Caldeweyher, S. Ehlert, A. Hansen, P. Pracht,
     J. Seibert, S. Spicher, S. Grimme, WIREs Comput. Mol. Sci., 2020, 11,
     e01493. DOI: 10.1002/wcms.1493
   
   for GFN2-xTB:
   * C. Bannwarth, S. Ehlert and S. Grimme., J. Chem. Theory Comput., 2019,
     15, 1652-1671. DOI: 10.1021/acs.jctc.8b01176
   for GFN1-xTB:
   * S. Grimme, C. Bannwarth, P. Shushkov, J. Chem. Theory Comput., 2017,
     13, 1989-2009. DOI: 10.1021/acs.jctc.7b00118
   for GFN0-xTB:
   * P. Pracht, E. Caldeweyher, S. Ehlert, S. Grimme, ChemRxiv, 2019, preprint.
     DOI: 10.26434/chemrxiv.8326202.v1
   for GFN-FF:
   * S. Spicher and S. Grimme, Angew. Chem. Int. Ed., 2020, 59, 15665-15673.
     DOI: 10.1002/anie.202004239
   
   for ALPB and GBSA implicit solvation:
   * S. Ehlert, M. Stahn, S. Spicher, S. Grimme, J. Chem. Theory Comput.,
     2021, 17, 4250-4261. DOI: 10.1021/acs.jctc.1c00471
   
   for DFT-D4:
   * E. Caldeweyher, C. Bannwarth and S. Grimme, J. Chem. Phys., 2017,
     147, 034112. DOI: 10.1063/1.4993215
   * E. Caldeweyher, S. Ehlert, A. Hansen, H. Neugebauer, S. Spicher,
     C. Bannwarth and S. Grimme, J. Chem. Phys., 2019, 150, 154122.
     DOI: 10.1063/1.5090222
   * E. Caldeweyher, J.-M. Mewes, S. Ehlert and S. Grimme, Phys. Chem. Chem. Phys.
     2020, 22, 8499-8512. DOI: 10.1039/D0CP00502A
   
   for sTDA-xTB:
   * S. Grimme and C. Bannwarth, J. Chem. Phys., 2016, 145, 054103.
     DOI: 10.1063/1.4959605
   
   in the mass-spec context:
   * V. Asgeirsson, C. Bauer and S. Grimme, Chem. Sci., 2017, 8, 4879.
     DOI: 10.1039/c7sc00601b
   * J. Koopman and S. Grimme, ACS Omega 2019, 4, 12, 15120-15133.
     DOI: 10.1021/acsomega.9b02011
   
   for metadynamics refer to:
   * S. Grimme, J. Chem. Theory Comput., 2019, 155, 2847-2862
     DOI: 10.1021/acs.jctc.9b00143
   
   for SPH calculations refer to:
   * S. Spicher and S. Grimme, J. Chem. Theory Comput., 2021, 17, 1701-1714
     DOI: 10.1021/acs.jctc.0c01306
   
   with help from (in alphabetical order)
   P. Atkinson, C. Bannwarth, F. Bohle, G. Brandenburg, E. Caldeweyher
   M. Checinski, S. Dohm, S. Ehlert, S. Ehrlich, I. Gerasimov, C. Hölzer
   A. Katbashev, J. Koopman, C. Lavigne, S. Lehtola, F. März, M. Müller,
   F. Musil, H. Neugebauer, J. Pisarek, C. Plett, P. Pracht, F. Pultar,
   J. Seibert, P. Shushkov, S. Spicher, M. Stahn, M. Steiner, T. Strunk,
   J. Stückrath, T. Rose, and J. Unsleber
   
 * started run on 2024/11/14 at 10:57:50.558     

           -------------------------------------------------
          |                Calculation Setup                |
           -------------------------------------------------

          program call               : xtb opt_radical_Nitro1.mol --gfn2 --sp --chrg 0 --uhf 1
          coordinate file            : opt_radical_Nitro1.mol
          omp threads                :                     8

   ID    Z sym.   atoms
    1    6 C      1-18, 27, 31-35, 45
    2    1 H      19-26, 28-30, 39-44, 46-51
    3    7 N      36, 37
    4    8 O      38, 52

           -------------------------------------------------
          |                 G F N 2 - x T B                 |
           -------------------------------------------------

        Reference                      10.1021/acs.jctc.8b01176
      * Hamiltonian:
        H0-scaling (s, p, d)           1.850000    2.230000    2.230000
        zeta-weighting                 0.500000
      * Dispersion:
        s8                             2.700000
        a1                             0.520000
        a2                             5.000000
        s9                             5.000000
      * Repulsion:
        kExp                           1.500000    1.000000
        rExp                           1.000000
      * Coulomb:
        alpha                          2.000000
        third order                    shell-resolved
        anisotropic                    true
        a3                             3.000000
        a5                             4.000000
        cn-shift                       1.200000
        cn-exp                         4.000000
        max-rad                        5.000000

q/qsh data taken from xtbrestart
CAMM data taken from xtbrestart

          ...................................................
          :                      SETUP                      :
          :.................................................:
          :  # basis functions                 139          :
          :  # atomic orbitals                 139          :
          :  # shells                           81          :
          :  # electrons                       145          :
          :  max. iterations                   250          :
          :  Hamiltonian                  GFN2-xTB          :
          :  restarted?                       true          :
          :  GBSA solvation                  false          :
          :  PC potential                    false          :
          :  electronic temp.          300.0000000     K    :
          :  accuracy                    1.0000000          :
          :  -> integral cutoff          0.2500000E+02      :
          :  -> integral neglect         0.1000000E-07      :
          :  -> SCF convergence          0.1000000E-05 Eh   :
          :  -> wf. convergence          0.1000000E-03 e    :
          :  Broyden damping             0.4000000          :
          ...................................................

 iter      E             dE          RMSdq      gap      omega  full diag
   1    -80.1878731 -0.801879E+02  0.149E+00    2.10       0.0  T
   2    -80.0156469  0.172226E+00  0.197E+00    0.39       1.0  T
   3    -80.4206452 -0.404998E+00  0.368E-01    1.28       1.0  T
   4    -80.4228281 -0.218285E-02  0.249E-01    1.35       1.0  T
   5    -80.4230412 -0.213078E-03  0.184E-01    1.44       1.0  T
   6    -80.4233238 -0.282620E-03  0.850E-02    1.49       1.0  T
   7    -80.4236659 -0.342124E-03  0.285E-02    1.51       1.0  T
   8    -80.4236993 -0.334142E-04  0.143E-02    1.52       1.0  T
   9    -80.4237044 -0.510597E-05  0.749E-03    1.53       1.9  T
  10    -80.4237056 -0.115005E-05  0.448E-03    1.53       3.1  T
  11    -80.4237063 -0.656005E-06  0.177E-03    1.54       7.8  T
  12    -80.4237063 -0.484824E-07  0.720E-04    1.54      19.3  T
  13    -80.4237063 -0.569952E-08  0.221E-04    1.54      62.6  T

   *** convergence criteria satisfied after 13 iterations ***

         #    Occupation            Energy/Eh            Energy/eV
      -------------------------------------------------------------
         1        2.0000           -0.7174055             -19.5216
       ...           ...                  ...                  ...
        67        2.0000           -0.4029271             -10.9642
        68        2.0000           -0.3977389             -10.8230
        69        2.0000           -0.3952606             -10.7556
        70        2.0000           -0.3897784             -10.6064
        71        2.0000           -0.3737976             -10.1716
        72        2.0000           -0.3671571              -9.9909
        73        1.0000           -0.3281447              -8.9293 (HOMO)
        74                         -0.2714661              -7.3870 (LUMO)
        75                         -0.2604139              -7.0862
        76                         -0.2349558              -6.3935
        77                         -0.2211619              -6.0181
        78                         -0.1972790              -5.3682
       ...                                ...                  ...
       139                          0.7180243              19.5384
      -------------------------------------------------------------
                  HL-Gap            0.0566786 Eh            1.5423 eV
             Fermi-level           -0.3237279 Eh           -8.8091 eV

 SCC (total)                   0 d,  0 h,  0 min,  0.373 sec
 SCC setup                      ...        0 min,  0.000 sec (  0.046%)
 Dispersion                     ...        0 min,  0.000 sec (  0.106%)
 classical contributions        ...        0 min,  0.000 sec (  0.031%)
 integral evaluation            ...        0 min,  0.002 sec (  0.604%)
 iterations                     ...        0 min,  0.318 sec ( 85.309%)
 molecular gradient             ...        0 min,  0.018 sec (  4.854%)
 printout                       ...        0 min,  0.034 sec (  9.046%)

         :::::::::::::::::::::::::::::::::::::::::::::::::::::
         ::                     SUMMARY                     ::
         :::::::::::::::::::::::::::::::::::::::::::::::::::::
         :: total energy             -79.171794664949 Eh    ::
         :: gradient norm              0.000382906773 Eh/a0 ::
         :: HOMO-LUMO gap              1.542302611143 eV    ::
         ::.................................................::
         :: SCC energy               -80.423706305419 Eh    ::
         :: -> isotropic ES            0.067307506344 Eh    ::
         :: -> anisotropic ES          0.006091666776 Eh    ::
         :: -> anisotropic XC          0.031069484144 Eh    ::
         :: -> dispersion             -0.065305681357 Eh    ::
         :: repulsion energy           1.251535538551 Eh    ::
         :: add. restraining           0.000000000000 Eh    ::
         :: total charge               0.000001596223 e     ::
         :::::::::::::::::::::::::::::::::::::::::::::::::::::

           -------------------------------------------------
          |                Property Printout                |
           -------------------------------------------------

    * Orbital Energies and Occupations

         #    Occupation            Energy/Eh            Energy/eV
      -------------------------------------------------------------
         1        2.0000           -0.7174055             -19.5216
       ...           ...                  ...                  ...
        61        2.0000           -0.4314149             -11.7394
        62        2.0000           -0.4299414             -11.6993
        63        2.0000           -0.4250674             -11.5667
        64        2.0000           -0.4178395             -11.3700
        65        2.0000           -0.4120978             -11.2138
        66        2.0000           -0.4079985             -11.1022
        67        2.0000           -0.4029271             -10.9642
        68        2.0000           -0.3977389             -10.8230
        69        2.0000           -0.3952606             -10.7556
        70        2.0000           -0.3897784             -10.6064
        71        2.0000           -0.3737976             -10.1716
        72        2.0000           -0.3671571              -9.9909
        73        1.0000           -0.3281447              -8.9293 (HOMO)
        74                         -0.2714661              -7.3870 (LUMO)
        75                         -0.2604139              -7.0862
        76                         -0.2349558              -6.3935
        77                         -0.2211619              -6.0181
        78                         -0.1972790              -5.3682
        79                         -0.1788787              -4.8675
        80                         -0.1603284              -4.3628
        81                         -0.1214294              -3.3043
        82                         -0.0782133              -2.1283
        83                         -0.0578399              -1.5739
        84                         -0.0390910              -1.0637
       ...                                ...                  ...
       139                          0.7180243              19.5384
      -------------------------------------------------------------
                  HL-Gap            0.0566786 Eh            1.5423 eV
             Fermi-level           -0.3237279 Eh           -8.8091 eV

     #   Z          covCN         q      C6AA      α(0)
     1   6 C        2.979     0.003    27.961     8.674
     2   6 C        2.980     0.010    27.791     8.647
     3   6 C        2.981     0.010    27.778     8.645
     4   6 C        2.987     0.011    27.772     8.645
     5   6 C        2.988     0.013    27.715     8.636
     6   6 C        2.989     0.012    27.728     8.638
     7   6 C        2.918    -0.035    28.872     8.811
     8   6 C        2.917    -0.037    28.925     8.819
     9   6 C        2.915    -0.037    28.925     8.819
    10   6 C        2.916    -0.036    28.904     8.816
    11   6 C        2.924    -0.041    29.010     8.833
    12   6 C        2.919    -0.033    28.827     8.805
    13   6 C        2.920    -0.036    28.891     8.814
    14   6 C        2.922    -0.035    28.878     8.812
    15   6 C        2.970     0.012    27.745     8.640
    16   6 C        2.917    -0.030    28.741     8.791
    17   6 C        2.918    -0.035    28.878     8.812
    18   6 C        2.916    -0.029    28.736     8.790
    19   1 H        0.926     0.032     2.557     2.500
    20   1 H        0.926     0.031     2.574     2.509
    21   1 H        0.926     0.032     2.555     2.499
    22   1 H        0.926     0.031     2.572     2.508
    23   1 H        0.926     0.081     1.970     2.195
    24   1 H        0.926     0.039     2.464     2.455
    25   1 H        0.926     0.036     2.504     2.475
    26   1 H        0.926     0.030     2.583     2.513
    27   6 C        2.892     0.043    27.040     8.526
    28   1 H        0.926     0.029     2.597     2.520
    29   1 H        0.926     0.069     2.101     2.267
    30   1 H        0.926     0.029     2.599     2.521
    31   6 C        3.885     0.046    19.761     6.320
    32   6 C        3.885     0.046    19.756     6.319
    33   6 C        3.760    -0.113    22.719     6.795
    34   6 C        3.758    -0.113    22.721     6.796
    35   6 C        3.760    -0.113    22.711     6.794
    36   7 N        2.806     0.188    18.112     6.321
    37   7 N        2.806     0.190    18.083     6.316
    38   8 O        0.925    -0.440    22.462     6.356
    39   1 H        0.925     0.055     2.260     2.351
    40   1 H        0.925     0.076     2.024     2.225
    41   1 H        0.925     0.049     2.334     2.389
    42   1 H        0.925     0.044     2.393     2.419
    43   1 H        0.925     0.056     2.245     2.343
    44   1 H        0.925     0.068     2.104     2.269
    45   6 C        3.758    -0.113    22.718     6.795
    46   1 H        0.925     0.055     2.261     2.351
    47   1 H        0.925     0.076     2.023     2.224
    48   1 H        0.925     0.049     2.335     2.390
    49   1 H        0.925     0.045     2.386     2.415
    50   1 H        0.925     0.056     2.244     2.343
    51   1 H        0.925     0.068     2.103     2.268
    52   8 O        0.925    -0.441    22.492     6.360

 Mol. C6AA /au·bohr⁶  :      33119.758112
 Mol. C8AA /au·bohr⁸  :     806273.043758
 Mol. α(0) /au        :        286.094687


Wiberg/Mayer (AO) data.
largest (>0.10) Wiberg bond orders for each atom

 ---------------------------------------------------------------------------
     #   Z sym  total        # sym  WBO       # sym  WBO       # sym  WBO
 ---------------------------------------------------------------------------
     1   6 C    3.985 --     4 C    1.337     3 C    1.197     2 C    1.190
     2   6 C    3.988 --    11 C    1.331     5 C    1.261     1 C    1.190
     3   6 C    3.988 --    12 C    1.311     6 C    1.269     1 C    1.197
     4   6 C    3.990 --     1 C    1.337     7 C    1.231     8 C    1.229
     5   6 C    3.985 --    13 C    1.295     2 C    1.261     9 C    1.234
     6   6 C    3.985 --    14 C    1.306     3 C    1.269    10 C    1.228
     7   6 C    3.976 --     9 C    1.612     4 C    1.231    19 H    0.967
     8   6 C    3.987 --    10 C    1.619     4 C    1.229    20 H    0.967
     9   6 C    3.982 --     7 C    1.612     5 C    1.234    21 H    0.967
    10   6 C    3.984 --     8 C    1.619     6 C    1.228    22 H    0.967
    11   6 C    3.983 --    15 C    1.435     2 C    1.331    23 H    0.948
                            13 C    0.101
    12   6 C    3.991 --    16 C    1.522     3 C    1.311    24 H    0.961
                            14 C    0.112
    13   6 C    3.986 --    17 C    1.547     5 C    1.295    25 H    0.967
                            11 C    0.101
    14   6 C    3.986 --    18 C    1.527     6 C    1.306    26 H    0.968
                            12 C    0.112
    15   6 C    3.975 --    11 C    1.435    17 C    1.284    27 C    1.078
    16   6 C    3.987 --    12 C    1.522    18 C    1.348    28 H    0.971
    17   6 C    3.976 --    13 C    1.547    15 C    1.284    29 H    0.960
    18   6 C    3.981 --    14 C    1.527    16 C    1.348    30 H    0.971
    19   1 H    0.998 --     7 C    0.967
    20   1 H    0.998 --     8 C    0.967
    21   1 H    0.997 --     9 C    0.967
    22   1 H    0.998 --    10 C    0.967
    23   1 H    0.993 --    11 C    0.948
    24   1 H    0.998 --    12 C    0.961
    25   1 H    0.998 --    13 C    0.967
    26   1 H    0.999 --    14 C    0.968
    27   6 C    3.943 --    37 N    1.252    36 N    1.251    15 C    1.078
                            38 O    0.141    52 O    0.140
    28   1 H    0.999 --    16 C    0.971
    29   1 H    0.994 --    17 C    0.960
    30   1 H    0.998 --    18 C    0.971
    31   6 C    3.967 --    45 C    0.998    33 C    0.981    32 C    0.959
                            37 N    0.914
    32   6 C    3.966 --    34 C    0.998    35 C    0.981    31 C    0.959
                            36 N    0.914
    33   6 C    3.988 --    49 H    0.983    31 C    0.981    50 H    0.981
                            51 H    0.980
    34   6 C    3.988 --    32 C    0.998    41 H    0.982    39 H    0.981
                            40 H    0.977
    35   6 C    3.989 --    42 H    0.984    32 C    0.981    43 H    0.981
                            44 H    0.980
    36   7 N    3.708 --    52 O    1.305    27 C    1.251    32 C    0.914
    37   7 N    3.709 --    38 O    1.307    27 C    1.252    31 C    0.914
    38   8 O    1.741 --    37 N    1.307    27 C    0.141
    39   1 H    0.997 --    34 C    0.981
    40   1 H    0.994 --    34 C    0.977
    41   1 H    0.997 --    34 C    0.982
    42   1 H    0.998 --    35 C    0.984
    43   1 H    0.996 --    35 C    0.981
    44   1 H    0.995 --    35 C    0.980
    45   6 C    3.988 --    31 C    0.998    48 H    0.982    46 H    0.981
                            47 H    0.977
    46   1 H    0.997 --    45 C    0.981
    47   1 H    0.994 --    45 C    0.977
    48   1 H    0.997 --    45 C    0.982
    49   1 H    0.998 --    33 C    0.983
    50   1 H    0.996 --    33 C    0.981
    51   1 H    0.995 --    33 C    0.980
    52   8 O    1.743 --    36 N    1.305    27 C    0.140
 ---------------------------------------------------------------------------

Topologies differ in bond orders
Writing corrected topology to xtbtopo.mol

molecular dipole:
                 x           y           z       tot (Debye)
 q only:       -1.014      -0.484      -0.081
   full:       -1.013      -0.493      -0.104       2.875
molecular quadrupole (traceless):
                xx          xy          yy          xz          yz          zz
Note: The following floating-point exceptions are signalling: IEEE_UNDERFLOW_FLAG
normal termination of xtb
 q only:       11.882      22.026       2.322      -4.516       7.902     -14.204
  q+dip:       17.025      22.740       5.656      -7.336       6.658     -22.681
   full:       13.410      22.967       2.520      -6.603       9.319     -15.930


           -------------------------------------------------
          | TOTAL ENERGY              -79.171794664949 Eh   |
          | GRADIENT NORM               0.000382906773 Eh/α |
          | HOMO-LUMO GAP               1.542302611143 eV   |
           -------------------------------------------------
########################################################################
[WARNING] Runtime exception occurred
-2- restart_readRestart: Multiplicity missmatch in restart file.
-1- restart_readRestart: Number of electron missmatch in restart file.
########################################################################

------------------------------------------------------------------------
 * finished run on 2024/11/14 at 10:57:50.940     
------------------------------------------------------------------------
 total:
 * wall-time:     0 d,  0 h,  0 min,  0.381 sec
 *  cpu-time:     0 d,  0 h,  0 min,  1.392 sec
 * ratio c/w:     3.657 speedup
 SCF:
 * wall-time:     0 d,  0 h,  0 min,  0.373 sec
 *  cpu-time:     0 d,  0 h,  0 min,  1.381 sec
 * ratio c/w:     3.703 speedup

