      -----------------------------------------------------------      
     |                   =====================                   |     
     |                           x T B                           |     
     |                   =====================                   |     
     |                         S. Grimme                         |     
     |          Mulliken Center for Theoretical Chemistry        |     
     |                    University of Bonn                     |     
      -----------------------------------------------------------      

   * xtb version 6.6.1 (8d0f1dd) compiled by 'runner@Mac-1690902418499.local' on 2023-08-01

   xtb is free software: you can redistribute it and/or modify it under
   the terms of the GNU Lesser General Public License as published by
   the Free Software Foundation, either version 3 of the License, or
   (at your option) any later version.
   
   xtb is distributed in the hope that it will be useful,
   but WITHOUT ANY WARRANTY; without even the implied warranty of
   MERCHANTABILITY or FITNESS FOR A PARTICULAR PURPOSE.  See the
   GNU Lesser General Public License for more details.
   
   Cite this work as:
   * C. Bannwarth, E. Caldeweyher, S. Ehlert, A. Hansen, P. Pracht,
     J. Seibert, S. Spicher, S. Grimme, WIREs Comput. Mol. Sci., 2020, 11,
     e01493. DOI: 10.1002/wcms.1493
   
   for GFN2-xTB:
   * C. Bannwarth, S. Ehlert and S. Grimme., J. Chem. Theory Comput., 2019,
     15, 1652-1671. DOI: 10.1021/acs.jctc.8b01176
   for GFN1-xTB:
   * S. Grimme, C. Bannwarth, P. Shushkov, J. Chem. Theory Comput., 2017,
     13, 1989-2009. DOI: 10.1021/acs.jctc.7b00118
   for GFN0-xTB:
   * P. Pracht, E. Caldeweyher, S. Ehlert, S. Grimme, ChemRxiv, 2019, preprint.
     DOI: 10.26434/chemrxiv.8326202.v1
   for GFN-FF:
   * S. Spicher and S. Grimme, Angew. Chem. Int. Ed., 2020, 59, 15665-15673.
     DOI: 10.1002/anie.202004239
   
   for ALPB and GBSA implicit solvation:
   * S. Ehlert, M. Stahn, S. Spicher, S. Grimme, J. Chem. Theory Comput.,
     2021, 17, 4250-4261. DOI: 10.1021/acs.jctc.1c00471
   
   for DFT-D4:
   * E. Caldeweyher, C. Bannwarth and S. Grimme, J. Chem. Phys., 2017,
     147, 034112. DOI: 10.1063/1.4993215
   * E. Caldeweyher, S. Ehlert, A. Hansen, H. Neugebauer, S. Spicher,
     C. Bannwarth and S. Grimme, J. Chem. Phys., 2019, 150, 154122.
     DOI: 10.1063/1.5090222
   * E. Caldeweyher, J.-M. Mewes, S. Ehlert and S. Grimme, Phys. Chem. Chem. Phys.
     2020, 22, 8499-8512. DOI: 10.1039/D0CP00502A
   
   for sTDA-xTB:
   * S. Grimme and C. Bannwarth, J. Chem. Phys., 2016, 145, 054103.
     DOI: 10.1063/1.4959605
   
   in the mass-spec context:
   * V. Asgeirsson, C. Bauer and S. Grimme, Chem. Sci., 2017, 8, 4879.
     DOI: 10.1039/c7sc00601b
   * J. Koopman and S. Grimme, ACS Omega 2019, 4, 12, 15120-15133.
     DOI: 10.1021/acsomega.9b02011
   
   for metadynamics refer to:
   * S. Grimme, J. Chem. Theory Comput., 2019, 155, 2847-2862
     DOI: 10.1021/acs.jctc.9b00143
   
   for SPH calculations refer to:
   * S. Spicher and S. Grimme, J. Chem. Theory Comput., 2021, 17, 1701-1714
     DOI: 10.1021/acs.jctc.0c01306
   
   with help from (in alphabetical order)
   P. Atkinson, C. Bannwarth, F. Bohle, G. Brandenburg, E. Caldeweyher
   M. Checinski, S. Dohm, S. Ehlert, S. Ehrlich, I. Gerasimov, C. Hölzer
   A. Katbashev, J. Koopman, C. Lavigne, S. Lehtola, F. März, M. Müller,
   F. Musil, H. Neugebauer, J. Pisarek, C. Plett, P. Pracht, F. Pultar,
   J. Seibert, P. Shushkov, S. Spicher, M. Stahn, M. Steiner, T. Strunk,
   J. Stückrath, T. Rose, and J. Unsleber
   
 * started run on 2024/11/14 at 10:33:28.714     

           -------------------------------------------------
          |                Calculation Setup                |
           -------------------------------------------------

          program call               : xtb stacked_dimer_Nitro1.mol --opt --gfn2 --chrg 0 --uhf 2 --tight
          coordinate file            : stacked_dimer_Nitro1.mol
          omp threads                :                     8

   ID    Z sym.   atoms
    1    6 C      1-18, 27, 31-35, 46, 53-70, 79, 83-87, 98
    2    1 H      19-26, 28-30, 40-45, 47-52, 71-78, 80-82, 92-97, 99-104
    3    7 N      36, 38, 88, 90
    4    8 O      37, 39, 89, 91

molecular fragmentation (1/2 indicates fragments):
111111111111111111111111111111111111111111111111111122222222222222222222
22222222222222222222222222222222
# atoms in fragment 1/2:    52    52
 fragment masses (1/2) :      383.46      383.46
CMA distance (Bohr)    :   9.449
constraining FC (au)   :  0.0500
########################################################################
[WARNING] Please study the warnings concerning your input carefully
-1- prog_main_parseArguments: Unknown option '--tight' provided
########################################################################

           -------------------------------------------------
          |                 G F N 2 - x T B                 |
           -------------------------------------------------

        Reference                      10.1021/acs.jctc.8b01176
      * Hamiltonian:
        H0-scaling (s, p, d)           1.850000    2.230000    2.230000
        zeta-weighting                 0.500000
      * Dispersion:
        s8                             2.700000
        a1                             0.520000
        a2                             5.000000
        s9                             5.000000
      * Repulsion:
        kExp                           1.500000    1.000000
        rExp                           1.000000
      * Coulomb:
        alpha                          2.000000
        third order                    shell-resolved
        anisotropic                    true
        a3                             3.000000
        a5                             4.000000
        cn-shift                       1.200000
        cn-exp                         4.000000
        max-rad                        5.000000


          ...................................................
          :                      SETUP                      :
          :.................................................:
          :  # basis functions                 278          :
          :  # atomic orbitals                 278          :
          :  # shells                          162          :
          :  # electrons                       290          :
          :  max. iterations                   250          :
          :  Hamiltonian                  GFN2-xTB          :
          :  restarted?                      false          :
          :  GBSA solvation                  false          :
          :  PC potential                    false          :
          :  electronic temp.          300.0000000     K    :
          :  accuracy                    1.0000000          :
          :  -> integral cutoff          0.2500000E+02      :
          :  -> integral neglect         0.1000000E-07      :
          :  -> SCF convergence          0.1000000E-05 Eh   :
          :  -> wf. convergence          0.1000000E-03 e    :
          :  Broyden damping             0.4000000          :
          ...................................................

 iter      E             dE          RMSdq      gap      omega  full diag
   1   -160.3934012 -0.160393E+03  0.424E+00    0.40       0.0  T
   2   -160.7635662 -0.370165E+00  0.240E+00    1.55       1.0  T
   3   -160.7541502  0.941605E-02  0.122E+00    1.41       1.0  T
   4   -160.7271498  0.270004E-01  0.687E-01    1.58       1.0  T
   5   -160.7884915 -0.613417E-01  0.163E-01    1.59       1.0  T
   6   -160.7910845 -0.259309E-02  0.772E-02    1.58       1.0  T
   7   -160.7913611 -0.276563E-03  0.442E-02    1.59       1.0  T
   8   -160.7915183 -0.157176E-03  0.186E-02    1.59       1.0  T
   9   -160.7915229 -0.466349E-05  0.110E-02    1.59       1.0  T
  10   -160.7915363 -0.133319E-04  0.308E-03    1.59       3.2  T
  11   -160.7915369 -0.599343E-06  0.147E-03    1.59       6.7  T
  12   -160.7915370 -0.857600E-07  0.688E-04    1.59      14.2  T
  13   -160.7915370 -0.191795E-07  0.266E-04    1.59      36.9  T

   *** convergence criteria satisfied after 13 iterations ***

         #    Occupation            Energy/Eh            Energy/eV
      -------------------------------------------------------------
         1        2.0000           -0.7179041             -19.5352
       ...           ...                  ...                  ...
       140        2.0000           -0.3876240             -10.5478
       141        2.0000           -0.3717786             -10.1166
       142        2.0000           -0.3695548             -10.0561
       143        2.0000           -0.3650222              -9.9328
       144        2.0000           -0.3621921              -9.8557
       145        1.0000           -0.3285787              -8.9411
       146        1.0000           -0.3280929              -8.9279 (HOMO)
       147                         -0.2696426              -7.3373 (LUMO)
       148                         -0.2679120              -7.2903
       149                         -0.2581841              -7.0255
       150                         -0.2556641              -6.9570
       151                         -0.2333185              -6.3489
       ...                                ...                  ...
       278                          0.7726450              21.0247
      -------------------------------------------------------------
                  HL-Gap            0.0584503 Eh            1.5905 eV
             Fermi-level           -0.3221143 Eh           -8.7652 eV

 transition dipole moment (au) for excitation:         145         146
     X       Y       Z   
   0.0053   0.0031   0.0149  total (au/Debye):    0.016   0.041
 dE (eV)             :    0.013
 oscillator strength :  0.11965E-06

 SCC (total)                   0 d,  0 h,  0 min,  0.723 sec
 SCC setup                      ...        0 min,  0.001 sec (  0.154%)
 Dispersion                     ...        0 min,  0.002 sec (  0.263%)
 classical contributions        ...        0 min,  0.000 sec (  0.065%)
 integral evaluation            ...        0 min,  0.009 sec (  1.232%)
 iterations                     ...        0 min,  0.654 sec ( 90.529%)
 molecular gradient             ...        0 min,  0.032 sec (  4.460%)
 printout                       ...        0 min,  0.024 sec (  3.295%)

         :::::::::::::::::::::::::::::::::::::::::::::::::::::
         ::                     SUMMARY                     ::
         :::::::::::::::::::::::::::::::::::::::::::::::::::::
         :: total energy            -158.270007866309 Eh    ::
         :: gradient norm              0.100212054967 Eh/a0 ::
         :: HOMO-LUMO gap              1.590514243337 eV    ::
         ::.................................................::
         :: SCC energy              -160.791536982439 Eh    ::
         :: -> isotropic ES            0.139892975166 Eh    ::
         :: -> anisotropic ES          0.010602544065 Eh    ::
         :: -> anisotropic XC          0.063155174081 Eh    ::
         :: -> dispersion             -0.146043689747 Eh    ::
         :: repulsion energy           2.512185005021 Eh    ::
         :: add. restraining           0.000000000000 Eh    ::
         :: total charge              -0.000000000162 e     ::
         :::::::::::::::::::::::::::::::::::::::::::::::::::::

      ----------------------------------------------------------- 
     |                   =====================                   |
     |                        A N C O P T                        |
     |                   =====================                   |
     |               Approximate Normal Coordinate               |
     |                Rational Function Optimizer                |
      ----------------------------------------------------------- 

          ...................................................
          :                      SETUP                      :
          :.................................................:
          :   optimization level            normal          :
          :   max. optcycles                   312          :
          :   ANC micro-cycles                  20          :
          :   degrees of freedom               306          :
          :.................................................:
          :   RF solver                   davidson          :
          :   write xtbopt.log                true          :
          :   linear?                        false          :
          :   energy convergence         0.5000000E-05 Eh   :
          :   grad. convergence          0.1000000E-02 Eh/α :
          :   maxmium RF displ.          1.0000000          :
          :   Hlow (freq-cutoff)         0.1000000E-01      :
          :   Hmax (freq-cutoff)         5.0000000          :
          :   S6 in model hess.         20.0000000          :
          ...................................................

generating ANC from model Hessian ...
Using Lindh-Hessian (1995)
 Shifting diagonal of input Hessian by    1.2510469256584111E-002
 Lowest  eigenvalues of input Hessian
    0.010000    0.000000    0.000000    0.000000    0.000000    0.000000
    0.000000    0.012516    0.012591    0.012656    0.012698    0.012719
    0.012832    0.012918    0.013135    0.013224    0.013359    0.013626
 Highest eigenvalues
    2.144925    2.144929    2.196739    2.196749    2.385874    2.385896


........................................................................
.............................. CYCLE    1 ..............................
........................................................................

 iter      E             dE          RMSdq      gap      omega  full diag
   1   -160.7915370 -0.160792E+03  0.118E-04    1.59       0.0  T
   2   -160.7915370 -0.277311E-09  0.774E-05    1.59     126.7  T
   3   -160.7915370 -0.371557E-09  0.435E-05    1.59     225.3  T
     SCC iter.                  ...        0 min,  0.147 sec
     gradient                   ...        0 min,  0.032 sec
 * total energy  :  -158.2700079 Eh     change       -0.2927948E-08 Eh
   gradient norm :     0.1002104 Eh/α   predicted     0.0000000E+00 (-100.00%)
   displ. norm   :     0.6816957 α      lambda       -0.5670562E-01
   maximum displ.:     0.2223848 α      in ANC's #1, #68, #47, ...

........................................................................
.............................. CYCLE    2 ..............................
........................................................................

 iter      E             dE          RMSdq      gap      omega  full diag
   1   -160.8386499 -0.160839E+03  0.175E-01    1.59       0.0  T
   2   -160.8389985 -0.348604E-03  0.104E-01    1.59       1.0  T
   3   -160.8386328  0.365654E-03  0.752E-02    1.59       1.0  T
   4   -160.8391809 -0.548026E-03  0.256E-02    1.59       1.0  T
   5   -160.8392164 -0.354949E-04  0.832E-03    1.59       1.2  T
   6   -160.8392171 -0.776989E-06  0.469E-03    1.59       2.1  T
   7   -160.8392196 -0.245252E-05  0.138E-03    1.59       7.1  T
   8   -160.8392198 -0.237869E-06  0.546E-04    1.59      18.0  T
   9   -160.8392198 -0.165399E-07  0.296E-04    1.59      33.2  T
     SCC iter.                  ...        0 min,  0.507 sec
     gradient                   ...        0 min,  0.032 sec
 * total energy  :  -158.3074611 Eh     change       -0.3745320E-01 Eh
   gradient norm :     0.0336019 Eh/α   predicted    -0.4152866E-01 (  10.88%)
   displ. norm   :     0.6456161 α      lambda       -0.1816467E-01
   maximum displ.:     0.3409972 α      in ANC's #1, #22, #47, ...

........................................................................
.............................. CYCLE    3 ..............................
........................................................................

 iter      E             dE          RMSdq      gap      omega  full diag
   1   -160.8493476 -0.160849E+03  0.837E-02    1.59       0.0  T
   2   -160.8494267 -0.790848E-04  0.512E-02    1.58       1.0  T
   3   -160.8493446  0.820858E-04  0.364E-02    1.58       1.0  T
   4   -160.8494615 -0.116886E-03  0.130E-02    1.58       1.0  T
   5   -160.8494727 -0.111650E-04  0.363E-03    1.58       2.7  T
   6   -160.8494729 -0.186915E-06  0.200E-03    1.58       4.9  T
   7   -160.8494733 -0.426947E-06  0.518E-04    1.58      18.9  T
   8   -160.8494733 -0.186422E-07  0.296E-04    1.58      33.1  T
     SCC iter.                  ...        0 min,  0.378 sec
     gradient                   ...        0 min,  0.031 sec
 * total energy  :  -158.3222210 Eh     change       -0.1475993E-01 Eh
   gradient norm :     0.0204873 Eh/α   predicted    -0.1286804E-01 ( -12.82%)
   displ. norm   :     0.7134313 α      lambda       -0.1290359E-01
   maximum displ.:     0.3248705 α      in ANC's #1, #22, #12, ...

........................................................................
.............................. CYCLE    4 ..............................
........................................................................

 iter      E             dE          RMSdq      gap      omega  full diag
   1   -160.8529189 -0.160853E+03  0.860E-02    1.57       0.0  T
   2   -160.8529712 -0.522766E-04  0.503E-02    1.57       1.0  T
   3   -160.8529361  0.351202E-04  0.224E-02    1.57       1.0  T
   4   -160.8529649 -0.288334E-04  0.116E-02    1.57       1.0  T
   5   -160.8529811 -0.161668E-04  0.279E-03    1.57       3.5  T
   6   -160.8529812 -0.179037E-06  0.142E-03    1.57       6.9  T
   7   -160.8529814 -0.202804E-06  0.394E-04    1.57      24.9  T
   8   -160.8529814 -0.661601E-08  0.256E-04    1.57      38.3  T
     SCC iter.                  ...        0 min,  0.313 sec
     gradient                   ...        0 min,  0.031 sec
 * total energy  :  -158.3327065 Eh     change       -0.1048554E-01 Eh
   gradient norm :     0.0140932 Eh/α   predicted    -0.9735669E-02 (  -7.15%)
   displ. norm   :     0.7337977 α      lambda       -0.8585853E-02
   maximum displ.:     0.3612549 α      in ANC's #1, #22, #12, ...

........................................................................
.............................. CYCLE    5 ..............................
........................................................................

 iter      E             dE          RMSdq      gap      omega  full diag
   1   -160.8552906 -0.160855E+03  0.744E-02    1.56       0.0  T
   2   -160.8553150 -0.244976E-04  0.435E-02    1.56       1.0  T
   3   -160.8552761  0.389690E-04  0.200E-02    1.56       1.0  T
   4   -160.8553143 -0.381980E-04  0.801E-03    1.55       1.2  T
   5   -160.8553219 -0.759273E-05  0.196E-03    1.56       5.0  T
   6   -160.8553219 -0.340079E-07  0.120E-03    1.55       8.2  T
   7   -160.8553220 -0.127161E-06  0.419E-04    1.56      23.4  T
   8   -160.8553220 -0.174871E-07  0.200E-04    1.55      49.0  T
     SCC iter.                  ...        0 min,  0.352 sec
     gradient                   ...        0 min,  0.031 sec
 * total energy  :  -158.3398173 Eh     change       -0.7110760E-02 Eh
   gradient norm :     0.0110996 Eh/α   predicted    -0.6604503E-02 (  -7.12%)
   displ. norm   :     0.7436595 α      lambda       -0.6035197E-02
   maximum displ.:     0.3390936 α      in ANC's #1, #22, #12, ...

........................................................................
.............................. CYCLE    6 ..............................
........................................................................

 iter      E             dE          RMSdq      gap      omega  full diag
   1   -160.8574617 -0.160857E+03  0.667E-02    1.54       0.0  T
   2   -160.8574705 -0.882180E-05  0.406E-02    1.54       1.0  T
   3   -160.8573725  0.980737E-04  0.317E-02    1.54       1.0  T
   4   -160.8574946 -0.122102E-03  0.468E-03    1.54       2.1  T
   5   -160.8574961 -0.151643E-05  0.193E-03    1.54       5.1  T
   6   -160.8574963 -0.211761E-06  0.989E-04    1.54       9.9  T
   7   -160.8574963 -0.398072E-07  0.404E-04    1.54      24.3  T
     SCC iter.                  ...        0 min,  0.373 sec
     gradient                   ...        0 min,  0.030 sec
 * total energy  :  -158.3448561 Eh     change       -0.5038848E-02 Eh
   gradient norm :     0.0088384 Eh/α   predicted    -0.4686422E-02 (  -6.99%)
   displ. norm   :     0.7442617 α      lambda       -0.4334342E-02
   maximum displ.:     0.3241504 α      in ANC's #1, #22, #12, ...

........................................................................
.............................. CYCLE    7 ..............................
........................................................................

 iter      E             dE          RMSdq      gap      omega  full diag
   1   -160.8601639 -0.160860E+03  0.594E-02    1.53       0.0  T
   2   -160.8601655 -0.158041E-05  0.372E-02    1.53       1.0  T
   3   -160.8600875  0.779314E-04  0.301E-02    1.53       1.0  T
   4   -160.8601949 -0.107310E-03  0.371E-03    1.53       2.6  T
   5   -160.8601957 -0.893294E-06  0.174E-03    1.53       5.6  T
   6   -160.8601959 -0.182986E-06  0.882E-04    1.53      11.1  T
   7   -160.8601960 -0.221810E-07  0.376E-04    1.53      26.1  T
     SCC iter.                  ...        0 min,  0.285 sec
     gradient                   ...        0 min,  0.039 sec
 * total energy  :  -158.3484763 Eh     change       -0.3620133E-02 Eh
   gradient norm :     0.0073767 Eh/α   predicted    -0.3367624E-02 (  -6.98%)
   displ. norm   :     0.7361855 α      lambda       -0.3114734E-02
   maximum displ.:     0.3071323 α      in ANC's #1, #22, #12, ...

........................................................................
.............................. CYCLE    8 ..............................
........................................................................

 iter      E             dE          RMSdq      gap      omega  full diag
   1   -160.8631341 -0.160863E+03  0.541E-02    1.52       0.0  T
   2   -160.8631358 -0.173689E-05  0.332E-02    1.52       1.0  T
   3   -160.8630608  0.749777E-04  0.264E-02    1.52       1.0  T
   4   -160.8631518 -0.909565E-04  0.294E-03    1.52       3.3  T
   5   -160.8631524 -0.546607E-06  0.145E-03    1.52       6.8  T
   6   -160.8631524 -0.945486E-07  0.785E-04    1.52      12.5  T
   7   -160.8631525 -0.190096E-07  0.328E-04    1.52      29.9  T
     SCC iter.                  ...        0 min,  0.366 sec
     gradient                   ...        0 min,  0.030 sec
 * total energy  :  -158.3510708 Eh     change       -0.2594560E-02 Eh
   gradient norm :     0.0068027 Eh/α   predicted    -0.2401413E-02 (  -7.44%)
   displ. norm   :     0.7235126 α      lambda       -0.2261756E-02
   maximum displ.:     0.2937095 α      in ANC's #5, #1, #12, ...

........................................................................
.............................. CYCLE    9 ..............................
........................................................................

 iter      E             dE          RMSdq      gap      omega  full diag
   1   -160.8661350 -0.160866E+03  0.505E-02    1.51       0.0  T
   2   -160.8661379 -0.291490E-05  0.301E-02    1.51       1.0  T
   3   -160.8660945  0.433716E-04  0.182E-02    1.51       1.0  T
   4   -160.8661424 -0.478529E-04  0.259E-03    1.51       3.8  T
   5   -160.8661429 -0.504176E-06  0.125E-03    1.51       7.9  T
   6   -160.8661429 -0.455444E-07  0.728E-04    1.51      13.5  T
   7   -160.8661430 -0.176283E-07  0.372E-04    1.51      26.4  T
     SCC iter.                  ...        0 min,  0.393 sec
     gradient                   ...        0 min,  0.030 sec
 * total energy  :  -158.3529570 Eh     change       -0.1886151E-02 Eh
   gradient norm :     0.0057914 Eh/α   predicted    -0.1722860E-02 (  -8.66%)
   displ. norm   :     0.7181289 α      lambda       -0.1719922E-02
   maximum displ.:     0.3496326 α      in ANC's #5, #1, #12, ...

........................................................................
.............................. CYCLE   10 ..............................
........................................................................

 iter      E             dE          RMSdq      gap      omega  full diag
   1   -160.8688191 -0.160869E+03  0.493E-02    1.50       0.0  T
   2   -160.8688220 -0.292646E-05  0.291E-02    1.50       1.0  T
   3   -160.8688095  0.125128E-04  0.963E-03    1.50       1.0  T
   4   -160.8688224 -0.129164E-04  0.297E-03    1.50       3.3  T
   5   -160.8688235 -0.109838E-05  0.112E-03    1.50       8.8  T
   6   -160.8688236 -0.425525E-07  0.611E-04    1.50      16.0  T
   7   -160.8688236 -0.987453E-08  0.271E-04    1.50      36.2  T
     SCC iter.                  ...        0 min,  0.260 sec
     gradient                   ...        0 min,  0.030 sec
 * total energy  :  -158.3544140 Eh     change       -0.1457038E-02 Eh
   gradient norm :     0.0044847 Eh/α   predicted    -0.1303455E-02 ( -10.54%)
   displ. norm   :     0.7360396 α      lambda       -0.1462966E-02
   maximum displ.:     0.4202103 α      in ANC's #5, #12, #1, ...

........................................................................
.............................. CYCLE   11 ..............................
........................................................................

 iter      E             dE          RMSdq      gap      omega  full diag
   1   -160.8709859 -0.160871E+03  0.510E-02    1.49       0.0  T
   2   -160.8709884 -0.250383E-05  0.302E-02    1.50       1.0  T
   3   -160.8709782  0.102734E-04  0.864E-03    1.50       1.1  T
   4   -160.8709886 -0.104520E-04  0.284E-03    1.50       3.5  T
   5   -160.8709897 -0.104787E-05  0.103E-03    1.50       9.5  T
   6   -160.8709897 -0.382338E-07  0.558E-04    1.50      17.6  T
   7   -160.8709897 -0.878555E-08  0.239E-04    1.50      41.0  T
     SCC iter.                  ...        0 min,  0.294 sec
     gradient                   ...        0 min,  0.032 sec
 * total energy  :  -158.3556950 Eh     change       -0.1280955E-02 Eh
   gradient norm :     0.0039025 Eh/α   predicted    -0.1127773E-02 ( -11.96%)
   displ. norm   :     0.7324265 α      lambda       -0.1345828E-02
   maximum displ.:     0.4662833 α      in ANC's #5, #12, #1, ...

........................................................................
.............................. CYCLE   12 ..............................
........................................................................

 iter      E             dE          RMSdq      gap      omega  full diag
   1   -160.8725603 -0.160873E+03  0.520E-02    1.49       0.0  T
   2   -160.8725622 -0.196869E-05  0.308E-02    1.49       1.0  T
   3   -160.8725465  0.157639E-04  0.104E-02    1.49       1.0  T
   4   -160.8725630 -0.165119E-04  0.247E-03    1.49       4.0  T
   5   -160.8725637 -0.732965E-06  0.932E-04    1.49      10.5  T
   6   -160.8725638 -0.303870E-07  0.522E-04    1.49      18.8  T
     SCC iter.                  ...        0 min,  0.241 sec
     gradient                   ...        0 min,  0.032 sec
 * total energy  :  -158.3569182 Eh     change       -0.1223177E-02 Eh
   gradient norm :     0.0052944 Eh/α   predicted    -0.1033898E-02 ( -15.47%)
   displ. norm   :     0.7038392 α      lambda       -0.1302614E-02
   maximum displ.:     0.4776885 α      in ANC's #5, #12, #1, ...

........................................................................
.............................. CYCLE   13 ..............................
........................................................................

 iter      E             dE          RMSdq      gap      omega  full diag
   1   -160.8735570 -0.160874E+03  0.512E-02    1.48       0.0  T
   2   -160.8735584 -0.135498E-05  0.303E-02    1.48       1.0  T
   3   -160.8735338  0.246048E-04  0.127E-02    1.48       1.0  T
   4   -160.8735599 -0.261260E-04  0.209E-03    1.48       4.7  T
   5   -160.8735604 -0.470148E-06  0.857E-04    1.48      11.4  T
   6   -160.8735604 -0.306826E-07  0.469E-04    1.48      20.9  T
     SCC iter.                  ...        0 min,  0.203 sec
     gradient                   ...        0 min,  0.031 sec
 * total energy  :  -158.3581256 Eh     change       -0.1207486E-02 Eh
   gradient norm :     0.0078015 Eh/α   predicted    -0.9739621E-03 ( -19.34%)
   displ. norm   :     0.6948625 α      lambda       -0.1351804E-02
   maximum displ.:     0.4900066 α      in ANC's #5, #12, #8, ...

........................................................................
.............................. CYCLE   14 ..............................
........................................................................

 iter      E             dE          RMSdq      gap      omega  full diag
   1   -160.8742694 -0.160874E+03  0.502E-02    1.48       0.0  T
   2   -160.8742701 -0.755280E-06  0.298E-02    1.48       1.0  T
   3   -160.8742409  0.292644E-04  0.136E-02    1.48       1.0  T
   4   -160.8742721 -0.312211E-04  0.172E-03    1.48       5.7  T
   5   -160.8742723 -0.262287E-06  0.809E-04    1.48      12.1  T
   6   -160.8742724 -0.295910E-07  0.413E-04    1.48      23.7  T
     SCC iter.                  ...        0 min,  0.313 sec
     gradient                   ...        0 min,  0.032 sec
 * total energy  :  -158.3593992 Eh     change       -0.1273523E-02 Eh
   gradient norm :     0.0093359 Eh/α   predicted    -0.1002250E-02 ( -21.30%)
   displ. norm   :     0.7065171 α      lambda       -0.1506402E-02
   maximum displ.:     0.5089770 α      in ANC's #5, #6, #8, ...

........................................................................
.............................. CYCLE   15 ..............................
........................................................................

 iter      E             dE          RMSdq      gap      omega  full diag
   1   -160.8757167 -0.160876E+03  0.495E-02    1.48       0.0  T
   2   -160.8757167 -0.686046E-08  0.295E-02    1.48       1.0  T
   3   -160.8756674  0.493218E-04  0.182E-02    1.48       1.0  T
   4   -160.8757207 -0.533098E-04  0.187E-03    1.48       5.2  T
   5   -160.8757210 -0.322112E-06  0.867E-04    1.48      11.3  T
   6   -160.8757210 -0.183254E-07  0.475E-04    1.48      20.6  T
     SCC iter.                  ...        0 min,  0.223 sec
     gradient                   ...        0 min,  0.031 sec
 * total energy  :  -158.3608391 Eh     change       -0.1439944E-02 Eh
   gradient norm :     0.0081847 Eh/α   predicted    -0.1129174E-02 ( -21.58%)
   displ. norm   :     0.7608374 α      lambda       -0.1712848E-02
   maximum displ.:     0.5543308 α      in ANC's #5, #6, #8, ...

........................................................................
.............................. CYCLE   16 ..............................
........................................................................

 iter      E             dE          RMSdq      gap      omega  full diag
   1   -160.8774520 -0.160877E+03  0.506E-02    1.48       0.0  T
   2   -160.8774518  0.254728E-06  0.306E-02    1.48       1.0  T
   3   -160.8773879  0.639245E-04  0.221E-02    1.48       1.0  T
   4   -160.8774593 -0.713975E-04  0.241E-03    1.48       4.1  T
   5   -160.8774599 -0.608393E-06  0.998E-04    1.48       9.8  T
   6   -160.8774599 -0.121763E-07  0.598E-04    1.48      16.4  T
     SCC iter.                  ...        0 min,  0.230 sec
     gradient                   ...        0 min,  0.032 sec
 * total energy  :  -158.3624784 Eh     change       -0.1639284E-02 Eh
   gradient norm :     0.0063406 Eh/α   predicted    -0.1352239E-02 ( -17.51%)
   displ. norm   :     0.8094150 α      lambda       -0.1797814E-02
   maximum displ.:     0.5930700 α      in ANC's #5, #6, #8, ...

........................................................................
.............................. CYCLE   17 ..............................
........................................................................

 iter      E             dE          RMSdq      gap      omega  full diag
   1   -160.8791970 -0.160879E+03  0.508E-02    1.48       0.0  T
   2   -160.8791975 -0.546912E-06  0.305E-02    1.48       1.0  T
   3   -160.8791418  0.557676E-04  0.208E-02    1.48       1.0  T
   4   -160.8792038 -0.620243E-04  0.282E-03    1.48       3.5  T
   5   -160.8792048 -0.985847E-06  0.966E-04    1.48      10.2  T
   6   -160.8792048 -0.667177E-08  0.601E-04    1.48      16.3  T
     SCC iter.                  ...        0 min,  0.315 sec
     gradient                   ...        0 min,  0.032 sec
 * total energy  :  -158.3642138 Eh     change       -0.1735420E-02 Eh
   gradient norm :     0.0069654 Eh/α   predicted    -0.1487829E-02 ( -14.27%)
   displ. norm   :     0.8071255 α      lambda       -0.1800450E-02
   maximum displ.:     0.5975829 α      in ANC's #5, #6, #8, ...

........................................................................
.............................. CYCLE   18 ..............................
........................................................................

 iter      E             dE          RMSdq      gap      omega  full diag
   1   -160.8800390 -0.160880E+03  0.479E-02    1.48       0.0  T
   2   -160.8800403 -0.125847E-05  0.287E-02    1.48       1.0  T
   3   -160.8800029  0.373629E-04  0.171E-02    1.48       1.0  T
   4   -160.8800440 -0.411231E-04  0.256E-03    1.48       3.8  T
   5   -160.8800449 -0.848217E-06  0.859E-04    1.48      11.4  T
   6   -160.8800449 -0.162399E-07  0.472E-04    1.48      20.8  T
     SCC iter.                  ...        0 min,  0.166 sec
     gradient                   ...        0 min,  0.033 sec
 * total energy  :  -158.3659411 Eh     change       -0.1727258E-02 Eh
   gradient norm :     0.0084986 Eh/α   predicted    -0.1486680E-02 ( -13.93%)
   displ. norm   :     0.7748406 α      lambda       -0.1739414E-02
   maximum displ.:     0.5773703 α      in ANC's #5, #6, #8, ...

........................................................................
.............................. CYCLE   19 ..............................
........................................................................

 iter      E             dE          RMSdq      gap      omega  full diag
   1   -160.8836683 -0.160884E+03  0.437E-02    1.48       0.0  T
   2   -160.8836700 -0.172576E-05  0.259E-02    1.48       1.0  T
   3   -160.8836502  0.197511E-04  0.121E-02    1.48       1.0  T
   4   -160.8836714 -0.211807E-04  0.250E-03    1.48       3.9  T
   5   -160.8836722 -0.828368E-06  0.832E-04    1.48      11.8  T
   6   -160.8836723 -0.369442E-07  0.437E-04    1.48      22.4  T
     SCC iter.                  ...        0 min,  0.185 sec
     gradient                   ...        0 min,  0.035 sec
 * total energy  :  -158.3675824 Eh     change       -0.1641279E-02 Eh
   gradient norm :     0.0089445 Eh/α   predicted    -0.1391863E-02 ( -15.20%)
   displ. norm   :     0.7530540 α      lambda       -0.1666608E-02
   maximum displ.:     0.5702500 α      in ANC's #5, #6, #8, ...

........................................................................
.............................. CYCLE   20 ..............................
........................................................................

 iter      E             dE          RMSdq      gap      omega  full diag
   1   -160.8846275 -0.160885E+03  0.410E-02    1.48       0.0  T
   2   -160.8846274  0.100688E-06  0.248E-02    1.48       1.0  T
   3   -160.8845846  0.427937E-04  0.184E-02    1.48       1.0  T
   4   -160.8846330 -0.484640E-04  0.215E-03    1.48       4.6  T
   5   -160.8846336 -0.574873E-06  0.740E-04    1.48      13.3  T
   6   -160.8846336 -0.235618E-07  0.418E-04    1.48      23.5  T
     SCC iter.                  ...        0 min,  0.337 sec
     gradient                   ...        0 min,  0.031 sec
 * total energy  :  -158.3691388 Eh     change       -0.1556407E-02 Eh
   gradient norm :     0.0077170 Eh/α   predicted    -0.1305868E-02 ( -16.10%)
   displ. norm   :     0.6976477 α      lambda       -0.1475742E-02
   maximum displ.:     0.5356032 α      in ANC's #5, #6, #4, ...
 * RMSD in coord.:     1.1170210 α      energy gain  -0.9913090E-01 Eh

generating ANC from model Hessian ...
Using Lindh-Hessian (1995)
 Shifting diagonal of input Hessian by    1.0033284448914026E-002
 Lowest  eigenvalues of input Hessian
    0.010000    0.010029    0.000000    0.000000    0.000000    0.000000
    0.000000    0.000000    0.010173    0.010194    0.010324    0.010382
    0.010416    0.010485    0.010703    0.010735    0.011001    0.011270
 Highest eigenvalues
    2.138368    2.142986    2.194276    2.196317    2.380820    2.385121


........................................................................
.............................. CYCLE   21 ..............................
........................................................................

 iter      E             dE          RMSdq      gap      omega  full diag
   1   -160.8875020 -0.160888E+03  0.362E-02    1.48       0.0  T
   2   -160.8875008  0.121378E-05  0.222E-02    1.48       1.0  T
   3   -160.8874648  0.360030E-04  0.183E-02    1.48       1.0  T
   4   -160.8875089 -0.440946E-04  0.184E-03    1.48       5.3  T
   5   -160.8875093 -0.397030E-06  0.655E-04    1.48      15.0  T
   6   -160.8875093 -0.207705E-07  0.372E-04    1.48      26.4  T
     SCC iter.                  ...        0 min,  0.192 sec
     gradient                   ...        0 min,  0.031 sec
 * total energy  :  -158.3705123 Eh     change       -0.1373493E-02 Eh
   gradient norm :     0.0062858 Eh/α   predicted     0.0000000E+00 (-100.00%)
   displ. norm   :     0.2001511 α      lambda       -0.5459698E-03
   maximum displ.:     0.1218571 α      in ANC's #10, #9, #12, ...

........................................................................
.............................. CYCLE   22 ..............................
........................................................................

 iter      E             dE          RMSdq      gap      omega  full diag
   1   -160.8876376 -0.160888E+03  0.192E-02    1.48       0.0  T
   2   -160.8876368  0.774811E-06  0.123E-02    1.48       1.0  T
   3   -160.8876303  0.657928E-05  0.100E-02    1.48       1.0  T
   4   -160.8876414 -0.111577E-04  0.132E-03    1.48       7.4  T
   5   -160.8876416 -0.187910E-06  0.520E-04    1.48      18.8  T
   6   -160.8876416 -0.207941E-07  0.274E-04    1.48      35.8  T
     SCC iter.                  ...        0 min,  0.199 sec
     gradient                   ...        0 min,  0.035 sec
 * total energy  :  -158.3710278 Eh     change       -0.5155111E-03 Eh
   gradient norm :     0.0034592 Eh/α   predicted    -0.2839698E-03 ( -44.91%)
   displ. norm   :     0.6429325 α      lambda       -0.1544680E-02
   maximum displ.:     0.3607579 α      in ANC's #10, #9, #12, ...

........................................................................
.............................. CYCLE   23 ..............................
........................................................................

 iter      E             dE          RMSdq      gap      omega  full diag
   1   -160.8877952 -0.160888E+03  0.563E-02    1.48       0.0  T
   2   -160.8877926  0.260537E-05  0.346E-02    1.47       1.0  T
   3   -160.8877078  0.848788E-04  0.285E-02    1.48       1.0  T
   4   -160.8878129 -0.105134E-03  0.310E-03    1.47       3.2  T
   5   -160.8878140 -0.108511E-05  0.121E-03    1.47       8.1  T
   6   -160.8878141 -0.681297E-07  0.713E-04    1.47      13.8  T
   7   -160.8878141 -0.197798E-07  0.403E-04    1.47      24.3  T
     SCC iter.                  ...        0 min,  0.297 sec
     gradient                   ...        0 min,  0.032 sec
 * total energy  :  -158.3723917 Eh     change       -0.1363884E-02 Eh
   gradient norm :     0.0054147 Eh/α   predicted    -0.1091596E-02 ( -19.96%)
   displ. norm   :     0.7552556 α      lambda       -0.1483252E-02
   maximum displ.:     0.4298605 α      in ANC's #10, #9, #12, ...

........................................................................
.............................. CYCLE   24 ..............................
........................................................................

 iter      E             dE          RMSdq      gap      omega  full diag
   1   -160.8879832 -0.160888E+03  0.621E-02    1.47       0.0  T
   2   -160.8879851 -0.184119E-05  0.369E-02    1.46       1.0  T
   3   -160.8879241  0.610112E-04  0.216E-02    1.47       1.0  T
   4   -160.8879907 -0.666033E-04  0.298E-03    1.46       3.3  T
   5   -160.8879918 -0.109589E-05  0.111E-03    1.46       8.8  T
   6   -160.8879918 -0.395409E-07  0.599E-04    1.46      16.4  T
   7   -160.8879918 -0.313167E-08  0.362E-04    1.46      27.1  T
     SCC iter.                  ...        0 min,  0.400 sec
     gradient                   ...        0 min,  0.033 sec
 * total energy  :  -158.3737081 Eh     change       -0.1316442E-02 Eh
   gradient norm :     0.0085742 Eh/α   predicted    -0.1164665E-02 ( -11.53%)
   displ. norm   :     0.7322920 α      lambda       -0.1289200E-02
   maximum displ.:     0.4248499 α      in ANC's #10, #9, #12, ...

........................................................................
.............................. CYCLE   25 ..............................
........................................................................

 iter      E             dE          RMSdq      gap      omega  full diag
   1   -160.8899103 -0.160890E+03  0.586E-02    1.46       0.0  T
   2   -160.8899130 -0.272982E-05  0.345E-02    1.45       1.0  T
   3   -160.8898934  0.195975E-04  0.128E-02    1.46       1.0  T
   4   -160.8899146 -0.212235E-04  0.257E-03    1.45       3.8  T
   5   -160.8899154 -0.834492E-06  0.997E-04    1.45       9.8  T
   6   -160.8899155 -0.523822E-07  0.472E-04    1.45      20.8  T
     SCC iter.                  ...        0 min,  0.302 sec
     gradient                   ...        0 min,  0.030 sec
 * total energy  :  -158.3748429 Eh     change       -0.1134855E-02 Eh
   gradient norm :     0.0076288 Eh/α   predicted    -0.9902677E-03 ( -12.74%)
   displ. norm   :     0.6737731 α      lambda       -0.1069538E-02
   maximum displ.:     0.4012289 α      in ANC's #10, #9, #12, ...

........................................................................
.............................. CYCLE   26 ..............................
........................................................................

 iter      E             dE          RMSdq      gap      omega  full diag
   1   -160.8934306 -0.160893E+03  0.547E-02    1.45       0.0  T
   2   -160.8934329 -0.231499E-05  0.322E-02    1.44       1.0  T
   3   -160.8934175  0.153845E-04  0.114E-02    1.45       1.0  T
   4   -160.8934342 -0.167211E-04  0.222E-03    1.44       4.4  T
   5   -160.8934348 -0.616998E-06  0.872E-04    1.44      11.2  T
   6   -160.8934349 -0.464065E-07  0.401E-04    1.44      24.4  T
     SCC iter.                  ...        0 min,  0.226 sec
     gradient                   ...        0 min,  0.032 sec
 * total energy  :  -158.3757315 Eh     change       -0.8885223E-03 Eh
   gradient norm :     0.0051056 Eh/α   predicted    -0.7775379E-03 ( -12.49%)
   displ. norm   :     0.5805720 α      lambda       -0.7465414E-03
   maximum displ.:     0.3532474 α      in ANC's #10, #9, #8, ...

........................................................................
.............................. CYCLE   27 ..............................
........................................................................

 iter      E             dE          RMSdq      gap      omega  full diag
   1   -160.8962825 -0.160896E+03  0.510E-02    1.44       0.0  T
   2   -160.8962843 -0.173537E-05  0.300E-02    1.43       1.0  T
   3   -160.8962753  0.895359E-05  0.906E-03    1.43       1.1  T
   4   -160.8962853 -0.100079E-04  0.151E-03    1.43       6.5  T
   5   -160.8962856 -0.240974E-06  0.712E-04    1.43      13.8  T
   6   -160.8962856 -0.340486E-07  0.321E-04    1.43      30.6  T
     SCC iter.                  ...        0 min,  0.295 sec
     gradient                   ...        0 min,  0.031 sec
 * total energy  :  -158.3763199 Eh     change       -0.5883925E-03 Eh
   gradient norm :     0.0044342 Eh/α   predicted    -0.4990873E-03 ( -15.18%)
   displ. norm   :     0.4768566 α      lambda       -0.5236804E-03
   maximum displ.:     0.2851512 α      in ANC's #10, #9, #8, ...

........................................................................
.............................. CYCLE   28 ..............................
........................................................................

 iter      E             dE          RMSdq      gap      omega  full diag
   1   -160.8980818 -0.160898E+03  0.490E-02    1.43       0.0  T
   2   -160.8980832 -0.148799E-05  0.289E-02    1.42       1.0  T
   3   -160.8980770  0.620304E-05  0.752E-03    1.43       1.3  T
   4   -160.8980841 -0.705368E-05  0.123E-03    1.43       8.0  T
   5   -160.8980842 -0.137370E-06  0.688E-04    1.42      14.3  T
   6   -160.8980843 -0.322351E-07  0.299E-04    1.42      32.8  T
     SCC iter.                  ...        0 min,  0.195 sec
     gradient                   ...        0 min,  0.034 sec
 * total energy  :  -158.3767408 Eh     change       -0.4208885E-03 Eh
   gradient norm :     0.0046656 Eh/α   predicted    -0.3213841E-03 ( -23.64%)
   displ. norm   :     0.4918411 α      lambda       -0.5290475E-03
   maximum displ.:     0.2640067 α      in ANC's #10, #9, #8, ...

........................................................................
.............................. CYCLE   29 ..............................
........................................................................

 iter      E             dE          RMSdq      gap      omega  full diag
   1   -160.8985534 -0.160899E+03  0.589E-02    1.42       0.0  T
   2   -160.8985555 -0.202628E-05  0.348E-02    1.42       1.0  T
   3   -160.8985319  0.235566E-04  0.131E-02    1.42       1.0  T
   4   -160.8985570 -0.250645E-04  0.266E-03    1.42       3.7  T
   5   -160.8985580 -0.101307E-05  0.830E-04    1.42      11.8  T
   6   -160.8985580 -0.180550E-07  0.446E-04    1.42      22.0  T
   7   -160.8985580 -0.759707E-08  0.223E-04    1.42      44.0  T
     SCC iter.                  ...        0 min,  0.234 sec
     gradient                   ...        0 min,  0.031 sec
 * total energy  :  -158.3771639 Eh     change       -0.4231817E-03 Eh
   gradient norm :     0.0050293 Eh/α   predicted    -0.3285201E-03 ( -22.37%)
   displ. norm   :     0.4853230 α      lambda       -0.4676723E-03
   maximum displ.:     0.2211694 α      in ANC's #10, #8, #9, ...

........................................................................
.............................. CYCLE   30 ..............................
........................................................................

 iter      E             dE          RMSdq      gap      omega  full diag
   1   -160.8970347 -0.160897E+03  0.617E-02    1.41       0.0  T
   2   -160.8970373 -0.253777E-05  0.364E-02    1.42       1.0  T
   3   -160.8970091  0.281588E-04  0.143E-02    1.41       1.0  T
   4   -160.8970391 -0.299908E-04  0.295E-03    1.42       3.3  T
   5   -160.8970403 -0.124901E-05  0.934E-04    1.42      10.5  T
   6   -160.8970404 -0.384330E-07  0.508E-04    1.42      19.3  T
   7   -160.8970404 -0.936515E-08  0.243E-04    1.42      40.4  T
     SCC iter.                  ...        0 min,  0.228 sec
     gradient                   ...        0 min,  0.032 sec
 * total energy  :  -158.3775224 Eh     change       -0.3584788E-03 Eh
   gradient norm :     0.0054985 Eh/α   predicted    -0.2889185E-03 ( -19.40%)
   displ. norm   :     0.4054766 α      lambda       -0.3325498E-03
   maximum displ.:     0.1817582 α      in ANC's #8, #12, #10, ...

........................................................................
.............................. CYCLE   31 ..............................
........................................................................

 iter      E             dE          RMSdq      gap      omega  full diag
   1   -160.8957981 -0.160896E+03  0.519E-02    1.41       0.0  T
   2   -160.8957999 -0.179437E-05  0.307E-02    1.41       1.0  T
   3   -160.8957750  0.248762E-04  0.141E-02    1.41       1.0  T
   4   -160.8958023 -0.272545E-04  0.210E-03    1.41       4.7  T
   5   -160.8958028 -0.559555E-06  0.702E-04    1.41      14.0  T
   6   -160.8958029 -0.280004E-07  0.380E-04    1.41      25.8  T
     SCC iter.                  ...        0 min,  0.200 sec
     gradient                   ...        0 min,  0.033 sec
 * total energy  :  -158.3777766 Eh     change       -0.2541877E-03 Eh
   gradient norm :     0.0052044 Eh/α   predicted    -0.1936138E-03 ( -23.83%)
   displ. norm   :     0.3607536 α      lambda       -0.2692560E-03
   maximum displ.:     0.1674695 α      in ANC's #8, #12, #10, ...

........................................................................
.............................. CYCLE   32 ..............................
........................................................................

 iter      E             dE          RMSdq      gap      omega  full diag
   1   -160.8957680 -0.160896E+03  0.458E-02    1.41       0.0  T
   2   -160.8957678  0.180404E-06  0.279E-02    1.41       1.0  T
   3   -160.8957174  0.504093E-04  0.213E-02    1.42       1.0  T
   4   -160.8957769 -0.594663E-04  0.269E-03    1.41       3.6  T
   5   -160.8957779 -0.106065E-05  0.675E-04    1.41      14.5  T
   6   -160.8957780 -0.350615E-07  0.350E-04    1.41      28.0  T
   7   -160.8957780 -0.277177E-08  0.223E-04    1.41      44.0  T
     SCC iter.                  ...        0 min,  0.285 sec
     gradient                   ...        0 min,  0.034 sec
 * total energy  :  -158.3779840 Eh     change       -0.2073884E-03 Eh
   gradient norm :     0.0037099 Eh/α   predicted    -0.1521493E-03 ( -26.64%)
   displ. norm   :     0.3671059 α      lambda       -0.2331833E-03
   maximum displ.:     0.1758018 α      in ANC's #8, #12, #10, ...

........................................................................
.............................. CYCLE   33 ..............................
........................................................................

 iter      E             dE          RMSdq      gap      omega  full diag
   1   -160.8965811 -0.160897E+03  0.452E-02    1.41       0.0  T
   2   -160.8965807  0.432451E-06  0.280E-02    1.41       1.0  T
   3   -160.8965342  0.464936E-04  0.220E-02    1.41       1.0  T
   4   -160.8965933 -0.591660E-04  0.313E-03    1.41       3.1  T
   5   -160.8965948 -0.143653E-05  0.769E-04    1.41      12.7  T
   6   -160.8965948 -0.473964E-07  0.396E-04    1.41      24.8  T
   7   -160.8965948 -0.350298E-08  0.257E-04    1.41      38.1  T
     SCC iter.                  ...        0 min,  0.299 sec
     gradient                   ...        0 min,  0.033 sec
 * total energy  :  -158.3781606 Eh     change       -0.1766039E-03 Eh
   gradient norm :     0.0030178 Eh/α   predicted    -0.1323078E-03 ( -25.08%)
   displ. norm   :     0.3576811 α      lambda       -0.1806853E-03
   maximum displ.:     0.1738238 α      in ANC's #8, #10, #5, ...

........................................................................
.............................. CYCLE   34 ..............................
........................................................................

 iter      E             dE          RMSdq      gap      omega  full diag
   1   -160.8976373 -0.160898E+03  0.414E-02    1.41       0.0  T
   2   -160.8976391 -0.174287E-05  0.249E-02    1.41       1.0  T
   3   -160.8976069  0.321490E-04  0.173E-02    1.41       1.0  T
   4   -160.8976443 -0.373445E-04  0.282E-03    1.41       3.5  T
   5   -160.8976454 -0.117091E-05  0.713E-04    1.41      13.8  T
   6   -160.8976455 -0.362733E-07  0.371E-04    1.41      26.5  T
   7   -160.8976455 -0.192040E-08  0.221E-04    1.41      44.5  T
     SCC iter.                  ...        0 min,  0.273 sec
     gradient                   ...        0 min,  0.033 sec
 * total energy  :  -158.3782988 Eh     change       -0.1382118E-03 Eh
   gradient norm :     0.0034288 Eh/α   predicted    -0.1019018E-03 ( -26.27%)
   displ. norm   :     0.3417907 α      lambda       -0.1472997E-03
   maximum displ.:     0.1643025 α      in ANC's #8, #10, #5, ...

........................................................................
.............................. CYCLE   35 ..............................
........................................................................

 iter      E             dE          RMSdq      gap      omega  full diag
   1   -160.8987935 -0.160899E+03  0.374E-02    1.41       0.0  T
   2   -160.8987959 -0.240081E-05  0.220E-02    1.41       1.0  T
   3   -160.8987863  0.968033E-05  0.963E-03    1.41       1.0  T
   4   -160.8987976 -0.113600E-04  0.135E-03    1.41       7.3  T
   5   -160.8987978 -0.180698E-06  0.639E-04    1.41      15.4  T
   6   -160.8987978 -0.303729E-07  0.323E-04    1.41      30.4  T
     SCC iter.                  ...        0 min,  0.272 sec
     gradient                   ...        0 min,  0.035 sec
 * total energy  :  -158.3784103 Eh     change       -0.1114983E-03 Eh
   gradient norm :     0.0031456 Eh/α   predicted    -0.8225801E-04 ( -26.22%)
   displ. norm   :     0.3011138 α      lambda       -0.1109598E-03
   maximum displ.:     0.1403162 α      in ANC's #8, #4, #5, ...

........................................................................
.............................. CYCLE   36 ..............................
........................................................................

 iter      E             dE          RMSdq      gap      omega  full diag
   1   -160.8996740 -0.160900E+03  0.317E-02    1.40       0.0  T
   2   -160.8996750 -0.107382E-05  0.188E-02    1.40       1.0  T
   3   -160.8996597  0.152997E-04  0.107E-02    1.40       1.0  T
   4   -160.8996765 -0.167905E-04  0.192E-03    1.40       5.1  T
   5   -160.8996770 -0.504635E-06  0.516E-04    1.40      19.0  T
   6   -160.8996770 -0.167311E-07  0.256E-04    1.40      38.4  T
     SCC iter.                  ...        0 min,  0.229 sec
     gradient                   ...        0 min,  0.036 sec
 * total energy  :  -158.3784931 Eh     change       -0.8277852E-04 Eh
   gradient norm :     0.0023388 Eh/α   predicted    -0.6051416E-04 ( -26.90%)
   displ. norm   :     0.2418922 α      lambda       -0.7961026E-04
   maximum displ.:     0.1064337 α      in ANC's #8, #4, #5, ...

........................................................................
.............................. CYCLE   37 ..............................
........................................................................

 iter      E             dE          RMSdq      gap      omega  full diag
   1   -160.9001047 -0.160900E+03  0.248E-02    1.40       0.0  T
   2   -160.9001043  0.333744E-06  0.151E-02    1.40       1.0  T
   3   -160.9000861  0.182929E-04  0.121E-02    1.40       1.0  T
   4   -160.9001074 -0.213051E-04  0.114E-03    1.40       8.6  T
   5   -160.9001075 -0.146598E-06  0.373E-04    1.40      26.3  T
   6   -160.9001075 -0.688078E-08  0.203E-04    1.40      48.4  T
     SCC iter.                  ...        0 min,  0.227 sec
     gradient                   ...        0 min,  0.031 sec
 * total energy  :  -158.3785535 Eh     change       -0.6046777E-04 Eh
   gradient norm :     0.0017693 Eh/α   predicted    -0.4213620E-04 ( -30.32%)
   displ. norm   :     0.3057228 α      lambda       -0.6555744E-04
   maximum displ.:     0.1525170 α      in ANC's #4, #8, #5, ...

........................................................................
.............................. CYCLE   38 ..............................
........................................................................

 iter      E             dE          RMSdq      gap      omega  full diag
   1   -160.9000386 -0.160900E+03  0.308E-02    1.39       0.0  T
   2   -160.9000361  0.245683E-05  0.195E-02    1.39       1.0  T
   3   -160.9000104  0.257620E-04  0.165E-02    1.39       1.0  T
   4   -160.9000459 -0.355270E-04  0.126E-03    1.39       7.8  T
   5   -160.9000460 -0.151203E-06  0.529E-04    1.39      18.5  T
   6   -160.9000461 -0.126544E-07  0.301E-04    1.39      32.5  T
     SCC iter.                  ...        0 min,  0.220 sec
     gradient                   ...        0 min,  0.032 sec
 * total energy  :  -158.3786176 Eh     change       -0.6401906E-04 Eh
   gradient norm :     0.0019033 Eh/α   predicted    -0.3414108E-04 ( -46.67%)
   displ. norm   :     0.1598260 α      lambda       -0.3536019E-04
   maximum displ.:     0.0872458 α      in ANC's #4, #7, #5, ...

........................................................................
.............................. CYCLE   39 ..............................
........................................................................

 iter      E             dE          RMSdq      gap      omega  full diag
   1   -160.8996328 -0.160900E+03  0.151E-02    1.39       0.0  T
   2   -160.8996323  0.503090E-06  0.949E-03    1.39       1.0  T
   3   -160.8996254  0.685229E-05  0.804E-03    1.39       1.2  T
   4   -160.8996343 -0.889297E-05  0.653E-04    1.39      15.0  T
   5   -160.8996343 -0.392302E-07  0.301E-04    1.39      32.6  T
   6   -160.8996343 -0.426570E-08  0.170E-04    1.39      57.6  T
     SCC iter.                  ...        0 min,  0.257 sec
     gradient                   ...        0 min,  0.034 sec
 * total energy  :  -158.3786613 Eh     change       -0.4375937E-04 Eh
   gradient norm :     0.0017135 Eh/α   predicted    -0.1788181E-04 ( -59.14%)
   displ. norm   :     0.2793702 α      lambda       -0.5895989E-04
   maximum displ.:     0.1441354 α      in ANC's #4, #2, #7, ...

........................................................................
.............................. CYCLE   40 ..............................
........................................................................

 iter      E             dE          RMSdq      gap      omega  full diag
   1   -160.8991863 -0.160899E+03  0.262E-02    1.40       0.0  T
   2   -160.8991856  0.717008E-06  0.160E-02    1.40       1.0  T
   3   -160.8991622  0.233856E-04  0.130E-02    1.40       1.0  T
   4   -160.8991888 -0.266241E-04  0.102E-03    1.40       9.6  T
   5   -160.8991890 -0.110925E-06  0.408E-04    1.40      24.1  T
   6   -160.8991890 -0.912982E-08  0.231E-04    1.40      42.4  T
     SCC iter.                  ...        0 min,  0.189 sec
     gradient                   ...        0 min,  0.032 sec
 * total energy  :  -158.3787306 Eh     change       -0.6930494E-04 Eh
   gradient norm :     0.0017269 Eh/α   predicted    -0.3050602E-04 ( -55.98%)
   displ. norm   :     0.4018234 α      lambda       -0.6571796E-04
   maximum displ.:     0.2023636 α      in ANC's #4, #2, #7, ...

........................................................................
.............................. CYCLE   41 ..............................
........................................................................

 iter      E             dE          RMSdq      gap      omega  full diag
   1   -160.8984046 -0.160898E+03  0.369E-02    1.40       0.0  T
   2   -160.8984036  0.103169E-05  0.223E-02    1.40       1.0  T
   3   -160.8983594  0.441901E-04  0.170E-02    1.40       1.0  T
   4   -160.8984080 -0.486027E-04  0.116E-03    1.40       8.5  T
   5   -160.8984081 -0.141913E-06  0.453E-04    1.40      21.7  T
   6   -160.8984082 -0.103803E-07  0.256E-04    1.40      38.3  T
     SCC iter.                  ...        0 min,  0.200 sec
     gradient                   ...        0 min,  0.035 sec
 * total energy  :  -158.3788094 Eh     change       -0.7877577E-04 Eh
   gradient norm :     0.0021824 Eh/α   predicted    -0.3522169E-04 ( -55.29%)
   displ. norm   :     0.3421417 α      lambda       -0.7600751E-04
   maximum displ.:     0.1677951 α      in ANC's #4, #2, #1, ...

........................................................................
.............................. CYCLE   42 ..............................
........................................................................

 iter      E             dE          RMSdq      gap      omega  full diag
   1   -160.8989252 -0.160899E+03  0.304E-02    1.40       0.0  T
   2   -160.8989246  0.662183E-06  0.184E-02    1.40       1.0  T
   3   -160.8988947  0.298526E-04  0.139E-02    1.40       1.0  T
   4   -160.8989274 -0.327113E-04  0.978E-04    1.40      10.0  T
   5   -160.8989275 -0.103403E-06  0.368E-04    1.40      26.6  T
   6   -160.8989276 -0.517019E-08  0.205E-04    1.40      47.8  T
     SCC iter.                  ...        0 min,  0.192 sec
     gradient                   ...        0 min,  0.033 sec
 * total energy  :  -158.3788755 Eh     change       -0.6609224E-04 Eh
   gradient norm :     0.0021508 Eh/α   predicted    -0.4245355E-04 ( -35.77%)
   displ. norm   :     0.3729334 α      lambda       -0.8583768E-04
   maximum displ.:     0.1853124 α      in ANC's #2, #4, #1, ...
 * RMSD in coord.:     0.6741205 α      energy gain  -0.9736737E-02 Eh

generating ANC from model Hessian ...
Using Lindh-Hessian (1995)
 Shifting diagonal of input Hessian by    1.0059475617920461E-002
 Lowest  eigenvalues of input Hessian
    0.010000    0.000000    0.000000    0.000000    0.000000    0.000000
    0.000000    0.010133    0.010300    0.010354    0.010378    0.010451
    0.010540    0.010725    0.010825    0.011242    0.011449    0.011635
 Highest eigenvalues
    2.140864    2.147228    2.197221    2.200081    2.385013    2.388800


........................................................................
.............................. CYCLE   43 ..............................
........................................................................

 iter      E             dE          RMSdq      gap      omega  full diag
   1   -160.8990452 -0.160899E+03  0.331E-02    1.40       0.0  T
   2   -160.8990446  0.598870E-06  0.199E-02    1.40       1.0  T
   3   -160.8990115  0.331290E-04  0.145E-02    1.40       1.0  T
   4   -160.8990475 -0.360246E-04  0.993E-04    1.40       9.9  T
   5   -160.8990476 -0.945599E-07  0.434E-04    1.40      22.6  T
   6   -160.8990476 -0.737128E-08  0.225E-04    1.40      43.6  T
     SCC iter.                  ...        0 min,  0.320 sec
     gradient                   ...        0 min,  0.033 sec
 * total energy  :  -158.3789493 Eh     change       -0.7377378E-04 Eh
   gradient norm :     0.0016776 Eh/α   predicted     0.0000000E+00 (-100.00%)
   displ. norm   :     0.0628477 α      lambda       -0.2538478E-04
   maximum displ.:     0.0472780 α      in ANC's #2, #4, #8, ...

........................................................................
.............................. CYCLE   44 ..............................
........................................................................

 iter      E             dE          RMSdq      gap      omega  full diag
   1   -160.9001568 -0.160900E+03  0.727E-03    1.40       0.0  T
   2   -160.9001568 -0.306890E-07  0.435E-03    1.40       2.3  T
   3   -160.9001557  0.115434E-05  0.290E-03    1.40       3.4  T
   4   -160.9001569 -0.127245E-05  0.361E-04    1.40      27.2  T
   5   -160.9001570 -0.141090E-07  0.145E-04    1.40      67.5  T
   6   -160.9001570 -0.919187E-09  0.780E-05    1.40     125.7  T
     SCC iter.                  ...        0 min,  0.273 sec
     gradient                   ...        0 min,  0.033 sec
 * total energy  :  -158.3789819 Eh     change       -0.3266831E-04 Eh
   gradient norm :     0.0006679 Eh/α   predicted    -0.1282241E-04 ( -60.75%)
   displ. norm   :     0.1417514 α      lambda       -0.4145643E-04
   maximum displ.:     0.1000638 α      in ANC's #2, #4, #1, ...

........................................................................
.............................. CYCLE   45 ..............................
........................................................................

 iter      E             dE          RMSdq      gap      omega  full diag
   1   -160.9005825 -0.160901E+03  0.143E-02    1.39       0.0  T
   2   -160.9005825 -0.322598E-07  0.854E-03    1.39       1.1  T
   3   -160.9005783  0.417869E-05  0.534E-03    1.40       1.8  T
   4   -160.9005829 -0.454559E-05  0.575E-04    1.39      17.1  T
   5   -160.9005829 -0.306988E-07  0.267E-04    1.39      36.7  T
   6   -160.9005829 -0.232052E-08  0.138E-04    1.39      70.9  T
     SCC iter.                  ...        0 min,  0.294 sec
     gradient                   ...        0 min,  0.032 sec
 * total energy  :  -158.3790309 Eh     change       -0.4895731E-04 Eh
   gradient norm :     0.0010923 Eh/α   predicted    -0.2091353E-04 ( -57.28%)
   displ. norm   :     0.1585189 α      lambda       -0.3253548E-04
   maximum displ.:     0.1132292 α      in ANC's #2, #4, #1, ...

........................................................................
.............................. CYCLE   46 ..............................
........................................................................

 iter      E             dE          RMSdq      gap      omega  full diag
   1   -160.9007345 -0.160901E+03  0.144E-02    1.39       0.0  T
   2   -160.9007345 -0.905058E-08  0.858E-03    1.39       1.1  T
   3   -160.9007304  0.415967E-05  0.526E-03    1.39       1.9  T
   4   -160.9007349 -0.449755E-05  0.571E-04    1.39      17.2  T
   5   -160.9007349 -0.342896E-07  0.242E-04    1.39      40.4  T
   6   -160.9007349 -0.156618E-08  0.125E-04    1.39      78.3  T
     SCC iter.                  ...        0 min,  0.231 sec
     gradient                   ...        0 min,  0.032 sec
 * total energy  :  -158.3790715 Eh     change       -0.4061911E-04 Eh
   gradient norm :     0.0014794 Eh/α   predicted    -0.1645672E-04 ( -59.49%)
   displ. norm   :     0.1610220 α      lambda       -0.2981030E-04
   maximum displ.:     0.1138019 α      in ANC's #2, #1, #4, ...

........................................................................
.............................. CYCLE   47 ..............................
........................................................................

 iter      E             dE          RMSdq      gap      omega  full diag
   1   -160.9007396 -0.160901E+03  0.131E-02    1.39       0.0  T
   2   -160.9007396  0.473740E-07  0.783E-03    1.39       1.3  T
   3   -160.9007351  0.443338E-05  0.550E-03    1.39       1.8  T
   4   -160.9007400 -0.484012E-05  0.514E-04    1.39      19.1  T
   5   -160.9007400 -0.279191E-07  0.216E-04    1.39      45.3  T
   6   -160.9007400 -0.140946E-08  0.115E-04    1.39      85.2  T
     SCC iter.                  ...        0 min,  0.323 sec
     gradient                   ...        0 min,  0.032 sec
 * total energy  :  -158.3791114 Eh     change       -0.3983752E-04 Eh
   gradient norm :     0.0012581 Eh/α   predicted    -0.1508558E-04 ( -62.13%)
   displ. norm   :     0.1997467 α      lambda       -0.3730358E-04
   maximum displ.:     0.1389455 α      in ANC's #2, #1, #3, ...

........................................................................
.............................. CYCLE   48 ..............................
........................................................................

 iter      E             dE          RMSdq      gap      omega  full diag
   1   -160.9005613 -0.160901E+03  0.160E-02    1.39       0.0  T
   2   -160.9005612  0.100816E-06  0.958E-03    1.39       1.0  T
   3   -160.9005541  0.705747E-05  0.693E-03    1.39       1.4  T
   4   -160.9005618 -0.772310E-05  0.630E-04    1.39      15.6  T
   5   -160.9005619 -0.420987E-07  0.255E-04    1.39      38.5  T
   6   -160.9005619 -0.187597E-08  0.136E-04    1.39      72.2  T
     SCC iter.                  ...        0 min,  0.232 sec
     gradient                   ...        0 min,  0.032 sec
 * total energy  :  -158.3791617 Eh     change       -0.5032499E-04 Eh
   gradient norm :     0.0007696 Eh/α   predicted    -0.1898305E-04 ( -62.28%)
   displ. norm   :     0.2673801 α      lambda       -0.4796571E-04
   maximum displ.:     0.1833337 α      in ANC's #2, #1, #3, ...

........................................................................
.............................. CYCLE   49 ..............................
........................................................................

 iter      E             dE          RMSdq      gap      omega  full diag
   1   -160.9002853 -0.160900E+03  0.203E-02    1.39       0.0  T
   2   -160.9002852  0.833030E-07  0.121E-02    1.39       1.0  T
   3   -160.9002744  0.108075E-04  0.861E-03    1.39       1.1  T
   4   -160.9002862 -0.118132E-04  0.921E-04    1.39      10.7  T
   5   -160.9002863 -0.979405E-07  0.339E-04    1.39      28.9  T
   6   -160.9002863 -0.326503E-08  0.179E-04    1.39      54.7  T
     SCC iter.                  ...        0 min,  0.199 sec
     gradient                   ...        0 min,  0.031 sec
 * total energy  :  -158.3792259 Eh     change       -0.6423738E-04 Eh
   gradient norm :     0.0007926 Eh/α   predicted    -0.2474903E-04 ( -61.47%)
   displ. norm   :     0.3410937 α      lambda       -0.5739541E-04
   maximum displ.:     0.2329482 α      in ANC's #2, #3, #1, ...

........................................................................
.............................. CYCLE   50 ..............................
........................................................................

 iter      E             dE          RMSdq      gap      omega  full diag
   1   -160.9000524 -0.160900E+03  0.248E-02    1.39       0.0  T
   2   -160.9000523  0.482515E-07  0.148E-02    1.39       1.0  T
   3   -160.9000364  0.159448E-04  0.105E-02    1.40       1.0  T
   4   -160.9000538 -0.174213E-04  0.125E-03    1.39       7.9  T
   5   -160.9000540 -0.189293E-06  0.424E-04    1.39      23.1  T
   6   -160.9000540 -0.573579E-08  0.215E-04    1.39      45.5  T
     SCC iter.                  ...        0 min,  0.196 sec
     gradient                   ...        0 min,  0.033 sec
 * total energy  :  -158.3793032 Eh     change       -0.7732103E-04 Eh
   gradient norm :     0.0012684 Eh/α   predicted    -0.3018615E-04 ( -60.96%)
   displ. norm   :     0.4009615 α      lambda       -0.6558944E-04
   maximum displ.:     0.2720520 α      in ANC's #2, #3, #1, ...

........................................................................
.............................. CYCLE   51 ..............................
........................................................................

 iter      E             dE          RMSdq      gap      omega  full diag
   1   -160.8997870 -0.160900E+03  0.265E-02    1.40       0.0  T
   2   -160.8997870 -0.230273E-08  0.158E-02    1.40       1.0  T
   3   -160.8997680  0.190661E-04  0.117E-02    1.40       1.0  T
   4   -160.8997890 -0.210361E-04  0.159E-03    1.40       6.2  T
   5   -160.8997893 -0.333086E-06  0.475E-04    1.40      20.6  T
   6   -160.8997893 -0.788560E-08  0.241E-04    1.40      40.7  T
     SCC iter.                  ...        0 min,  0.201 sec
     gradient                   ...        0 min,  0.030 sec
 * total energy  :  -158.3793934 Eh     change       -0.9012580E-04 Eh
   gradient norm :     0.0016203 Eh/α   predicted    -0.3513979E-04 ( -61.01%)
   displ. norm   :     0.4844597 α      lambda       -0.8131601E-04
   maximum displ.:     0.3280783 α      in ANC's #2, #3, #1, ...

........................................................................
.............................. CYCLE   52 ..............................
........................................................................

 iter      E             dE          RMSdq      gap      omega  full diag
   1   -160.8997607 -0.160900E+03  0.299E-02    1.40       0.0  T
   2   -160.8997607  0.106850E-07  0.179E-02    1.40       1.0  T
   3   -160.8997353  0.254330E-04  0.137E-02    1.40       1.0  T
   4   -160.8997636 -0.283191E-04  0.193E-03    1.40       5.1  T
   5   -160.8997641 -0.505550E-06  0.546E-04    1.40      18.0  T
   6   -160.8997641 -0.105491E-07  0.278E-04    1.40      35.2  T
     SCC iter.                  ...        0 min,  0.248 sec
     gradient                   ...        0 min,  0.031 sec
 * total energy  :  -158.3795066 Eh     change       -0.1132536E-03 Eh
   gradient norm :     0.0016246 Eh/α   predicted    -0.4490013E-04 ( -60.35%)
   displ. norm   :     0.5818746 α      lambda       -0.1016836E-03
   maximum displ.:     0.3918606 α      in ANC's #2, #3, #1, ...

........................................................................
.............................. CYCLE   53 ..............................
........................................................................

 iter      E             dE          RMSdq      gap      omega  full diag
   1   -160.8996919 -0.160900E+03  0.334E-02    1.40       0.0  T
   2   -160.8996918  0.100900E-06  0.201E-02    1.40       1.0  T
   3   -160.8996590  0.328415E-04  0.158E-02    1.40       1.0  T
   4   -160.8996961 -0.371118E-04  0.232E-03    1.40       4.2  T
   5   -160.8996968 -0.754552E-06  0.621E-04    1.40      15.8  T
   6   -160.8996969 -0.140455E-07  0.324E-04    1.40      30.3  T
     SCC iter.                  ...        0 min,  0.283 sec
     gradient                   ...        0 min,  0.042 sec
 * total energy  :  -158.3796488 Eh     change       -0.1422067E-03 Eh
   gradient norm :     0.0014264 Eh/α   predicted    -0.5849362E-04 ( -58.87%)
   displ. norm   :     0.6988280 α      lambda       -0.1253379E-03
   maximum displ.:     0.4695652 α      in ANC's #2, #3, #1, ...

........................................................................
.............................. CYCLE   54 ..............................
........................................................................

 iter      E             dE          RMSdq      gap      omega  full diag
   1   -160.8996843 -0.160900E+03  0.394E-02    1.40       0.0  T
   2   -160.8996841  0.205439E-06  0.238E-02    1.40       1.0  T
   3   -160.8996385  0.456104E-04  0.187E-02    1.40       1.0  T
   4   -160.8996902 -0.516968E-04  0.269E-03    1.40       3.6  T
   5   -160.8996912 -0.102392E-05  0.717E-04    1.40      13.7  T
   6   -160.8996912 -0.193957E-07  0.388E-04    1.40      25.3  T
   7   -160.8996912 -0.292923E-08  0.215E-04    1.40      45.5  T
     SCC iter.                  ...        0 min,  0.286 sec
     gradient                   ...        0 min,  0.033 sec
 * total energy  :  -158.3798214 Eh     change       -0.1726228E-03 Eh
   gradient norm :     0.0011410 Eh/α   predicted    -0.7627373E-04 ( -55.81%)
   displ. norm   :     0.7657572 α      lambda       -0.1360784E-03
   maximum displ.:     0.5133882 α      in ANC's #2, #3, #1, ...

........................................................................
.............................. CYCLE   55 ..............................
........................................................................

 iter      E             dE          RMSdq      gap      omega  full diag
   1   -160.8997923 -0.160900E+03  0.430E-02    1.40       0.0  T
   2   -160.8997919  0.438896E-06  0.260E-02    1.40       1.0  T
   3   -160.8997373  0.546347E-04  0.204E-02    1.41       1.0  T
   4   -160.8997992 -0.619573E-04  0.276E-03    1.40       3.6  T
   5   -160.8998003 -0.106343E-05  0.763E-04    1.40      12.9  T
   6   -160.8998003 -0.247444E-07  0.420E-04    1.40      23.4  T
   7   -160.8998003 -0.470922E-08  0.239E-04    1.40      41.0  T
     SCC iter.                  ...        0 min,  0.378 sec
     gradient                   ...        0 min,  0.031 sec
 * total energy  :  -158.3800030 Eh     change       -0.1815198E-03 Eh
   gradient norm :     0.0010519 Eh/α   predicted    -0.8577228E-04 ( -52.75%)
   displ. norm   :     0.7470275 α      lambda       -0.1253799E-03
   maximum displ.:     0.5008040 α      in ANC's #2, #1, #3, ...

........................................................................
.............................. CYCLE   56 ..............................
........................................................................

 iter      E             dE          RMSdq      gap      omega  full diag
   1   -160.8999616 -0.160900E+03  0.432E-02    1.41       0.0  T
   2   -160.8999612  0.440989E-06  0.261E-02    1.41       1.0  T
   3   -160.8999078  0.533745E-04  0.201E-02    1.41       1.0  T
   4   -160.8999681 -0.603300E-04  0.250E-03    1.41       3.9  T
   5   -160.8999690 -0.873500E-06  0.732E-04    1.41      13.4  T
   6   -160.8999690 -0.266197E-07  0.410E-04    1.41      23.9  T
     SCC iter.                  ...        0 min,  0.248 sec
     gradient                   ...        0 min,  0.033 sec
 * total energy  :  -158.3801649 Eh     change       -0.1619655E-03 Eh
   gradient norm :     0.0011660 Eh/α   predicted    -0.7823921E-04 ( -51.69%)
   displ. norm   :     0.6462926 α      lambda       -0.1020544E-03
   maximum displ.:     0.4342914 α      in ANC's #2, #1, #3, ...

........................................................................
.............................. CYCLE   57 ..............................
........................................................................

 iter      E             dE          RMSdq      gap      omega  full diag
   1   -160.9005320 -0.160901E+03  0.390E-02    1.41       0.0  T
   2   -160.9005316  0.381406E-06  0.236E-02    1.41       1.0  T
   3   -160.9004900  0.416752E-04  0.176E-02    1.41       1.0  T
   4   -160.9005367 -0.467504E-04  0.198E-03    1.41       5.0  T
   5   -160.9005373 -0.530763E-06  0.602E-04    1.41      16.3  T
   6   -160.9005373 -0.177589E-07  0.338E-04    1.41      29.0  T
     SCC iter.                  ...        0 min,  0.217 sec
     gradient                   ...        0 min,  0.031 sec
 * total energy  :  -158.3802957 Eh     change       -0.1307566E-03 Eh
   gradient norm :     0.0013427 Eh/α   predicted    -0.6050118E-04 ( -53.73%)
   displ. norm   :     0.5467089 α      lambda       -0.8625809E-04
   maximum displ.:     0.3672151 α      in ANC's #2, #1, #3, ...

........................................................................
.............................. CYCLE   58 ..............................
........................................................................

 iter      E             dE          RMSdq      gap      omega  full diag
   1   -160.9008888 -0.160901E+03  0.353E-02    1.42       0.0  T
   2   -160.9008888 -0.130066E-08  0.211E-02    1.41       1.0  T
   3   -160.9008627  0.261688E-04  0.134E-02    1.42       1.0  T
   4   -160.9008911 -0.284293E-04  0.145E-03    1.41       6.8  T
   5   -160.9008914 -0.267958E-06  0.497E-04    1.41      19.7  T
   6   -160.9008914 -0.103287E-07  0.281E-04    1.41      34.9  T
     SCC iter.                  ...        0 min,  0.208 sec
     gradient                   ...        0 min,  0.032 sec
 * total energy  :  -158.3804084 Eh     change       -0.1127416E-03 Eh
   gradient norm :     0.0012877 Eh/α   predicted    -0.4886077E-04 ( -56.66%)
   displ. norm   :     0.5180202 α      lambda       -0.8774025E-04
   maximum displ.:     0.3446413 α      in ANC's #2, #1, #3, ...

........................................................................
.............................. CYCLE   59 ..............................
........................................................................

 iter      E             dE          RMSdq      gap      omega  full diag
[...]
    83   6 C        3.886     0.045    19.764     6.320
    84   6 C        3.890     0.048    19.713     6.312
    85   6 C        3.760    -0.123    22.912     6.824
    86   6 C        3.758    -0.117    22.784     6.805
    87   6 C        3.761    -0.111    22.663     6.787
    88   7 N        2.806     0.188    18.118     6.322
    89   8 O        0.924    -0.459    22.856     6.411
    90   7 N        2.807     0.197    17.988     6.299
    91   8 O        0.925    -0.439    22.441     6.353
    92   1 H        0.925     0.084     1.936     2.176
    93   1 H        0.925     0.057     2.236     2.339
    94   1 H        0.925     0.043     2.415     2.430
    95   1 H        0.925     0.040     2.445     2.445
    96   1 H        0.925     0.054     2.270     2.356
    97   1 H        0.925     0.063     2.164     2.301
    98   6 C        3.758    -0.112    22.688     6.791
    99   1 H        0.925     0.051     2.310     2.377
   100   1 H        0.925     0.074     2.040     2.234
   101   1 H        0.925     0.047     2.357     2.401
   102   1 H        0.925     0.078     1.996     2.209
   103   1 H        0.925     0.055     2.256     2.349
   104   1 H        0.925     0.063     2.163     2.300

 Mol. C6AA /au·bohr⁶  :     132494.321349
 Mol. C8AA /au·bohr⁸  :    3225008.828422
 Mol. α(0) /au        :        572.197609


Wiberg/Mayer (AO) data.
largest (>0.10) Wiberg bond orders for each atom

 ---------------------------------------------------------------------------
     #   Z sym  total        # sym  WBO       # sym  WBO       # sym  WBO
 ---------------------------------------------------------------------------
     1   6 C    3.984 --     4 C    1.337     3 C    1.198     2 C    1.187
     2   6 C    3.988 --    11 C    1.331     5 C    1.262     1 C    1.187
     3   6 C    3.988 --    12 C    1.309     6 C    1.270     1 C    1.198
     4   6 C    3.989 --     1 C    1.337     7 C    1.231     8 C    1.229
     5   6 C    3.984 --    13 C    1.292     2 C    1.262     9 C    1.236
     6   6 C    3.985 --    14 C    1.305     3 C    1.270    10 C    1.227
     7   6 C    3.975 --     9 C    1.608     4 C    1.231    19 H    0.967
     8   6 C    3.986 --    10 C    1.619     4 C    1.229    20 H    0.967
     9   6 C    3.982 --     7 C    1.608     5 C    1.236    21 H    0.967
    10   6 C    3.983 --     8 C    1.619     6 C    1.227    22 H    0.967
    11   6 C    3.982 --    15 C    1.435     2 C    1.331    23 H    0.950
    12   6 C    3.988 --    16 C    1.522     3 C    1.309    24 H    0.957
                            14 C    0.112
    13   6 C    3.985 --    17 C    1.549     5 C    1.292    25 H    0.967
    14   6 C    3.986 --    18 C    1.526     6 C    1.305    26 H    0.968
                            12 C    0.112
    15   6 C    3.974 --    11 C    1.435    17 C    1.282    27 C    1.077
    16   6 C    3.987 --    12 C    1.522    18 C    1.347    28 H    0.971
    17   6 C    3.977 --    13 C    1.549    15 C    1.282    29 H    0.963
    18   6 C    3.980 --    14 C    1.526    16 C    1.347    30 H    0.971
    19   1 H    0.998 --     7 C    0.967
    20   1 H    0.998 --     8 C    0.967
    21   1 H    0.998 --     9 C    0.967
    22   1 H    0.998 --    10 C    0.967
    23   1 H    0.993 --    11 C    0.950
    24   1 H    0.996 --    12 C    0.957
    25   1 H    0.998 --    13 C    0.967
    26   1 H    0.999 --    14 C    0.968
    27   6 C    3.946 --    38 N    1.264    36 N    1.249    15 C    1.077
                            37 O    0.138    39 O    0.135
    28   1 H    0.999 --    16 C    0.971
    29   1 H    0.996 --    17 C    0.963
    30   1 H    0.998 --    18 C    0.971
    31   6 C    3.967 --    46 C    0.999    33 C    0.980    32 C    0.958
                            38 N    0.917
    32   6 C    3.966 --    34 C    0.999    35 C    0.980    31 C    0.958
                            36 N    0.913
    33   6 C    3.988 --    50 H    0.984    51 H    0.981    52 H    0.980
                            31 C    0.980
    34   6 C    3.988 --    32 C    0.999    42 H    0.982    40 H    0.981
                            41 H    0.977
    35   6 C    3.988 --    43 H    0.981    44 H    0.980    32 C    0.980
                            45 H    0.980
    36   7 N    3.713 --    37 O    1.318    27 C    1.249    32 C    0.913
    37   8 O    1.750 --    36 N    1.318    27 C    0.138
    38   7 N    3.699 --    39 O    1.272    27 C    1.264    31 C    0.917
    39   8 O    1.713 --    38 N    1.272    27 C    0.135
    40   1 H    0.997 --    34 C    0.981
    41   1 H    0.994 --    34 C    0.977
    42   1 H    0.997 --    34 C    0.982
    43   1 H    0.997 --    35 C    0.981
    44   1 H    0.996 --    35 C    0.980
    45   1 H    0.995 --    35 C    0.980
    46   6 C    3.988 --    31 C    0.999    49 H    0.982    47 H    0.979
                            48 H    0.978
    47   1 H    0.997 --    46 C    0.979
    48   1 H    0.994 --    46 C    0.978
    49   1 H    0.997 --    46 C    0.982
    50   1 H    0.998 --    33 C    0.984
    51   1 H    0.996 --    33 C    0.981
    52   1 H    0.995 --    33 C    0.980
    53   6 C    3.983 --    56 C    1.338    55 C    1.196    54 C    1.189
    54   6 C    3.988 --    63 C    1.329    57 C    1.262    53 C    1.189
    55   6 C    3.988 --    64 C    1.310    58 C    1.269    53 C    1.196
    56   6 C    3.989 --    53 C    1.338    59 C    1.230    60 C    1.229
    57   6 C    3.985 --    65 C    1.297    54 C    1.262    61 C    1.233
    58   6 C    3.985 --    66 C    1.305    55 C    1.269    62 C    1.228
    59   6 C    3.976 --    61 C    1.613    56 C    1.230    71 H    0.967
    60   6 C    3.987 --    62 C    1.617    56 C    1.229    72 H    0.967
    61   6 C    3.982 --    59 C    1.613    57 C    1.233    73 H    0.967
    62   6 C    3.983 --    60 C    1.617    58 C    1.228    74 H    0.967
    63   6 C    3.983 --    67 C    1.438    54 C    1.329    75 H    0.950
                            65 C    0.103
    64   6 C    3.989 --    68 C    1.523    55 C    1.310    76 H    0.961
                            66 C    0.112
    65   6 C    3.984 --    69 C    1.542    57 C    1.297    77 H    0.967
                            63 C    0.103
    66   6 C    3.985 --    70 C    1.527    58 C    1.305    78 H    0.968
                            64 C    0.112
    67   6 C    3.976 --    63 C    1.438    69 C    1.290    79 C    1.071
    68   6 C    3.987 --    64 C    1.523    70 C    1.347    80 H    0.971
    69   6 C    3.976 --    65 C    1.542    67 C    1.290    81 H    0.962
    70   6 C    3.981 --    66 C    1.527    68 C    1.347    82 H    0.971
    71   1 H    0.998 --    59 C    0.967
    72   1 H    0.998 --    60 C    0.967
    73   1 H    0.997 --    61 C    0.967
    74   1 H    0.998 --    62 C    0.967
    75   1 H    0.994 --    63 C    0.950
    76   1 H    0.998 --    64 C    0.961
    77   1 H    0.998 --    65 C    0.967
    78   1 H    0.999 --    66 C    0.968
    79   6 C    3.945 --    90 N    1.258    88 N    1.254    67 C    1.071
                            91 O    0.143    89 O    0.137
    80   1 H    0.999 --    68 C    0.971
    81   1 H    0.995 --    69 C    0.962
    82   1 H    0.998 --    70 C    0.971
    83   6 C    3.964 --    98 C    0.996    85 C    0.980    84 C    0.958
                            90 N    0.914
    84   6 C    3.965 --    86 C    0.999    87 C    0.979    83 C    0.958
                            88 N    0.915
    85   6 C    3.982 --   103 H    0.980   104 H    0.980    83 C    0.980
                           102 H    0.972
    86   6 C    3.984 --    84 C    0.999    94 H    0.983    93 H    0.978
                            92 H    0.963
    87   6 C    3.990 --    95 H    0.984    96 H    0.981    97 H    0.981
                            84 C    0.979
    88   7 N    3.702 --    89 O    1.296    79 C    1.254    84 C    0.915
    89   8 O    1.720 --    88 N    1.296    79 C    0.137
    90   7 N    3.717 --    91 O    1.311    79 C    1.258    83 C    0.914
    91   8 O    1.744 --    90 N    1.311    79 C    0.143
    92   1 H    0.993 --    86 C    0.963
    93   1 H    0.996 --    86 C    0.978
    94   1 H    0.998 --    86 C    0.983
    95   1 H    0.998 --    87 C    0.984
    96   1 H    0.996 --    87 C    0.981
    97   1 H    0.996 --    87 C    0.981
    98   6 C    3.989 --    83 C    0.996   101 H    0.982    99 H    0.981
                           100 H    0.978
    99   1 H    0.997 --    98 C    0.981
   100   1 H    0.994 --    98 C    0.978
   101   1 H    0.997 --    98 C    0.982
   102   1 H    0.994 --    85 C    0.972
   103   1 H    0.996 --    85 C    0.980
   104   1 H    0.996 --    85 C    0.980
 ---------------------------------------------------------------------------

Topologies differ in bond orders
Writing corrected topology to xtbtopo.mol

molecular dipole:
                 x           y           z       tot (Debye)
 q only:       -1.867      -0.797      -0.400
   full:       -1.868      -0.747      -0.405       5.217
molecular quadrupole (traceless):
                xx          xy          yy          xz          yz          zz
 q only:       21.578      34.106       2.391     -13.904      10.758     -23.969
  q+dip:       32.370      34.428       9.479     -16.790       8.877     -41.850
   full:       25.260      34.360       3.064     -17.338      13.928     -28.324

           -------------------------------------------------
          |                Geometry Summary                 |
           -------------------------------------------------

      molecular mass/u    :      766.9265020
   center of mass at/Å    :       -0.7110153      -0.6684720       2.7024176
  moments of inertia/u·Å² :        0.6799801E+04   0.1138365E+05   0.1290445E+05
rotational constants/cm⁻¹ :        0.2479136E-02   0.1480863E-02   0.1306342E-02

 * 106 selected distances

     #   Z          #   Z                                           value/Å
     1   6 C        2   6 C                                       1.4351399
     1   6 C        3   6 C                                       1.4339686
     1   6 C        4   6 C                                       1.4041330
     2   6 C        5   6 C                                       1.4175875
     3   6 C        6   6 C                                       1.4176318
     4   6 C        7   6 C                                       1.4188305
     4   6 C        8   6 C                                       1.4186865
     5   6 C        9   6 C                                       1.4164478
     7   6 C        9   6 C                                       1.3567257
     6   6 C       10   6 C                                       1.4188896
     8   6 C       10   6 C                                       1.3551694
     2   6 C       11   6 C                                       1.4009477
     3   6 C       12   6 C                                       1.4084756
     5   6 C       13   6 C                                       1.4070321
     6   6 C       14   6 C                                       1.4052706
    11   6 C       15   6 C                                       1.3822625
    12   6 C       16   6 C                                       1.3710449
    13   6 C       17   6 C                                       1.3659011
    15   6 C       17   6 C                                       1.4100423
    14   6 C       18   6 C                                       1.3691057
    16   6 C       18   6 C                                       1.3970569
     7   6 C       19   1 H                                       1.0807505
     8   6 C       20   1 H                                       1.0809210
     9   6 C       21   1 H                                       1.0804077
    10   6 C       22   1 H                                       1.0808190
    11   6 C       23   1 H                                       1.0763157 (min)
    12   6 C       24   1 H                                       1.0782310
    13   6 C       25   1 H                                       1.0805500
    14   6 C       26   1 H                                       1.0811746
    16   6 C       28   1 H                                       1.0799950
    17   6 C       29   1 H                                       1.0784299
    18   6 C       30   1 H                                       1.0803638
    31   6 C       32   6 C                                       1.5409199
    31   6 C       33   6 C                                       1.5342350
    32   6 C       34   6 C                                       1.5219432
    32   6 C       35   6 C                                       1.5333344
    27   6 C       36   7 N                                       1.3426802
    32   6 C       36   7 N                                       1.4798958
    36   7 N       37   8 O                                       1.2592636
    27   6 C       38   7 N                                       1.3389842
    31   6 C       38   7 N                                       1.4773432
    34   6 C       40   1 H                                       1.0854781
    34   6 C       41   1 H                                       1.0872612
    34   6 C       42   1 H                                       1.0864130
    35   6 C       43   1 H                                       1.0877716
    35   6 C       44   1 H                                       1.0861074
    35   6 C       45   1 H                                       1.0880834
    31   6 C       46   6 C                                       1.5225472
    46   6 C       47   1 H                                       1.0849305
    46   6 C       48   1 H                                       1.0876264
    46   6 C       49   1 H                                       1.0862793
    33   6 C       50   1 H                                       1.0880593
    33   6 C       51   1 H                                       1.0859696
    33   6 C       52   1 H                                       1.0883095
    53   6 C       56   6 C                                       1.4054838
    54   6 C       57   6 C                                       1.4190181
    55   6 C       58   6 C                                       1.4186021
    56   6 C       59   6 C                                       1.4184582
    56   6 C       60   6 C                                       1.4184318
    57   6 C       61   6 C                                       1.4166783
    59   6 C       61   6 C                                       1.3549217
    58   6 C       62   6 C                                       1.4177181
    60   6 C       62   6 C                                       1.3541899
    54   6 C       63   6 C                                       1.4032049
    55   6 C       64   6 C                                       1.4082843
    57   6 C       65   6 C                                       1.4059408
    58   6 C       66   6 C                                       1.4052146
    63   6 C       67   6 C                                       1.3840657
    64   6 C       68   6 C                                       1.3711625
    65   6 C       69   6 C                                       1.3656560
    67   6 C       69   6 C                                       1.4074125
    66   6 C       70   6 C                                       1.3686842
    68   6 C       70   6 C                                       1.3969780
    59   6 C       71   1 H                                       1.0807740
    60   6 C       72   1 H                                       1.0805841
    61   6 C       73   1 H                                       1.0804464
    62   6 C       74   1 H                                       1.0804050
    63   6 C       75   1 H                                       1.0764032
    64   6 C       76   1 H                                       1.0781427
    65   6 C       77   1 H                                       1.0805381
    66   6 C       78   1 H                                       1.0807683
    68   6 C       80   1 H                                       1.0805744
    69   6 C       81   1 H                                       1.0771326
    70   6 C       82   1 H                                       1.0802289
    83   6 C       84   6 C                                       1.5413792 (max)
    83   6 C       85   6 C                                       1.5320322
    84   6 C       86   6 C                                       1.5202815
    84   6 C       87   6 C                                       1.5354610
    79   6 C       88   7 N                                       1.3412710
    84   6 C       88   7 N                                       1.4791893
    79   6 C       90   7 N                                       1.3409831
    83   6 C       90   7 N                                       1.4779827
    90   7 N       91   8 O                                       1.2601524
    86   6 C       92   1 H                                       1.0853499
    86   6 C       93   1 H                                       1.0881164
    86   6 C       94   1 H                                       1.0866278
    87   6 C       95   1 H                                       1.0881753
Note: The following floating-point exceptions are signalling: IEEE_UNDERFLOW_FLAG
normal termination of xtb
    87   6 C       96   1 H                                       1.0860807
    87   6 C       97   1 H                                       1.0885867
    83   6 C       98   6 C                                       1.5245789
    98   6 C       99   1 H                                       1.0858198
    98   6 C      100   1 H                                       1.0871907
    98   6 C      101   1 H                                       1.0863604
    85   6 C      102   1 H                                       1.0867160
    85   6 C      103   1 H                                       1.0860582
    85   6 C      104   1 H                                       1.0881735

 * 4 distinct bonds (by element types)

   Z      Z             #   av. dist./Å        max./Å        min./Å
   1 H    6 C          46     1.0834674     1.0885867     1.0763157
   6 C    6 C          50     1.4251433     1.5413792     1.3541899
   6 C    7 N           8     1.4097912     1.4798958     1.3389842
   7 N    8 O           2     1.2597080     1.2601524     1.2592636


optimized geometry written to: xtbopt.mol


           -------------------------------------------------
          | TOTAL ENERGY             -158.382580862956 Eh   |
          | GRADIENT NORM               0.000302450762 Eh/α |
          | HOMO-LUMO GAP               1.456114441693 eV   |
           -------------------------------------------------
########################################################################
[WARNING] Runtime exception occurred
-3- restart_readRestart: Dimension missmatch in restart file.
-2- restart_readRestart: Multiplicity missmatch in restart file.
-1- restart_readRestart: Number of electron missmatch in restart file.
########################################################################

------------------------------------------------------------------------
 * finished run on 2024/11/14 at 10:33:57.216     
------------------------------------------------------------------------
 total:
 * wall-time:     0 d,  0 h,  0 min, 28.501 sec
 *  cpu-time:     0 d,  0 h,  1 min, 31.218 sec
 * ratio c/w:     3.201 speedup
 SCF:
 * wall-time:     0 d,  0 h,  0 min,  0.723 sec
 *  cpu-time:     0 d,  0 h,  0 min,  2.448 sec
 * ratio c/w:     3.384 speedup
 ANC optimizer:
 * wall-time:     0 d,  0 h,  0 min, 27.708 sec
 *  cpu-time:     0 d,  0 h,  1 min, 28.738 sec
 * ratio c/w:     3.203 speedup

