      -----------------------------------------------------------      
     |                   =====================                   |     
     |                           x T B                           |     
     |                   =====================                   |     
     |                         S. Grimme                         |     
     |          Mulliken Center for Theoretical Chemistry        |     
     |                    University of Bonn                     |     
      -----------------------------------------------------------      

   * xtb version 6.6.1 (8d0f1dd) compiled by 'runner@Mac-1690902418499.local' on 2023-08-01

   xtb is free software: you can redistribute it and/or modify it under
   the terms of the GNU Lesser General Public License as published by
   the Free Software Foundation, either version 3 of the License, or
   (at your option) any later version.
   
   xtb is distributed in the hope that it will be useful,
   but WITHOUT ANY WARRANTY; without even the implied warranty of
   MERCHANTABILITY or FITNESS FOR A PARTICULAR PURPOSE.  See the
   GNU Lesser General Public License for more details.
   
   Cite this work as:
   * C. Bannwarth, E. Caldeweyher, S. Ehlert, A. Hansen, P. Pracht,
     J. Seibert, S. Spicher, S. Grimme, WIREs Comput. Mol. Sci., 2020, 11,
     e01493. DOI: 10.1002/wcms.1493
   
   for GFN2-xTB:
   * C. Bannwarth, S. Ehlert and S. Grimme., J. Chem. Theory Comput., 2019,
     15, 1652-1671. DOI: 10.1021/acs.jctc.8b01176
   for GFN1-xTB:
   * S. Grimme, C. Bannwarth, P. Shushkov, J. Chem. Theory Comput., 2017,
     13, 1989-2009. DOI: 10.1021/acs.jctc.7b00118
   for GFN0-xTB:
   * P. Pracht, E. Caldeweyher, S. Ehlert, S. Grimme, ChemRxiv, 2019, preprint.
     DOI: 10.26434/chemrxiv.8326202.v1
   for GFN-FF:
   * S. Spicher and S. Grimme, Angew. Chem. Int. Ed., 2020, 59, 15665-15673.
     DOI: 10.1002/anie.202004239
   
   for ALPB and GBSA implicit solvation:
   * S. Ehlert, M. Stahn, S. Spicher, S. Grimme, J. Chem. Theory Comput.,
     2021, 17, 4250-4261. DOI: 10.1021/acs.jctc.1c00471
   
   for DFT-D4:
   * E. Caldeweyher, C. Bannwarth and S. Grimme, J. Chem. Phys., 2017,
     147, 034112. DOI: 10.1063/1.4993215
   * E. Caldeweyher, S. Ehlert, A. Hansen, H. Neugebauer, S. Spicher,
     C. Bannwarth and S. Grimme, J. Chem. Phys., 2019, 150, 154122.
     DOI: 10.1063/1.5090222
   * E. Caldeweyher, J.-M. Mewes, S. Ehlert and S. Grimme, Phys. Chem. Chem. Phys.
     2020, 22, 8499-8512. DOI: 10.1039/D0CP00502A
   
   for sTDA-xTB:
   * S. Grimme and C. Bannwarth, J. Chem. Phys., 2016, 145, 054103.
     DOI: 10.1063/1.4959605
   
   in the mass-spec context:
   * V. Asgeirsson, C. Bauer and S. Grimme, Chem. Sci., 2017, 8, 4879.
     DOI: 10.1039/c7sc00601b
   * J. Koopman and S. Grimme, ACS Omega 2019, 4, 12, 15120-15133.
     DOI: 10.1021/acsomega.9b02011
   
   for metadynamics refer to:
   * S. Grimme, J. Chem. Theory Comput., 2019, 155, 2847-2862
     DOI: 10.1021/acs.jctc.9b00143
   
   for SPH calculations refer to:
   * S. Spicher and S. Grimme, J. Chem. Theory Comput., 2021, 17, 1701-1714
     DOI: 10.1021/acs.jctc.0c01306
   
   with help from (in alphabetical order)
   P. Atkinson, C. Bannwarth, F. Bohle, G. Brandenburg, E. Caldeweyher
   M. Checinski, S. Dohm, S. Ehlert, S. Ehrlich, I. Gerasimov, C. Hölzer
   A. Katbashev, J. Koopman, C. Lavigne, S. Lehtola, F. März, M. Müller,
   F. Musil, H. Neugebauer, J. Pisarek, C. Plett, P. Pracht, F. Pultar,
   J. Seibert, P. Shushkov, S. Spicher, M. Stahn, M. Steiner, T. Strunk,
   J. Stückrath, T. Rose, and J. Unsleber
   
 * started run on 2024/11/14 at 10:57:22.957     

           -------------------------------------------------
          |                Calculation Setup                |
           -------------------------------------------------

          program call               : xtb Nitro1.mol --opt --gfn2 --chrg 0 --uhf 2 --tight
          coordinate file            : Nitro1.mol
          omp threads                :                     8

   ID    Z sym.   atoms
    1    6 C      1-18, 27, 31-35, 45
    2    1 H      19-26, 28-30, 39-44, 46-51
    3    7 N      36, 37
    4    8 O      38, 52
########################################################################
[WARNING] Please study the warnings concerning your input carefully
-2- prog_main: Charge in sdf/mol input was overwritten
-1- prog_main_parseArguments: Unknown option '--tight' provided
########################################################################

           -------------------------------------------------
          |                 G F N 2 - x T B                 |
           -------------------------------------------------

        Reference                      10.1021/acs.jctc.8b01176
      * Hamiltonian:
        H0-scaling (s, p, d)           1.850000    2.230000    2.230000
        zeta-weighting                 0.500000
      * Dispersion:
        s8                             2.700000
        a1                             0.520000
        a2                             5.000000
        s9                             5.000000
      * Repulsion:
        kExp                           1.500000    1.000000
        rExp                           1.000000
      * Coulomb:
        alpha                          2.000000
        third order                    shell-resolved
        anisotropic                    true
        a3                             3.000000
        a5                             4.000000
        cn-shift                       1.200000
        cn-exp                         4.000000
        max-rad                        5.000000

q/qsh data taken from xtbrestart
CAMM data taken from xtbrestart

          ...................................................
          :                      SETUP                      :
          :.................................................:
          :  # basis functions                 139          :
          :  # atomic orbitals                 139          :
          :  # shells                           81          :
          :  # electrons                       145          :
          :  max. iterations                   250          :
          :  Hamiltonian                  GFN2-xTB          :
          :  restarted?                       true          :
          :  GBSA solvation                  false          :
          :  PC potential                    false          :
          :  electronic temp.          300.0000000     K    :
          :  accuracy                    1.0000000          :
          :  -> integral cutoff          0.2500000E+02      :
          :  -> integral neglect         0.1000000E-07      :
          :  -> SCF convergence          0.1000000E-05 Eh   :
          :  -> wf. convergence          0.1000000E-03 e    :
          :  Broyden damping             0.4000000          :
          ...................................................

 iter      E             dE          RMSdq      gap      omega  full diag
   1    -79.8120674 -0.798121E+02  0.411E+00    2.23       0.0  T
   2    -80.2319424 -0.419875E+00  0.184E+00    1.99       1.0  T
   3    -80.2739974 -0.420550E-01  0.117E+00    1.40       1.0  T
   4    -80.3051882 -0.311908E-01  0.712E-01    1.71       1.0  T
   5    -80.3211366 -0.159484E-01  0.288E-01    1.58       1.0  T
   6    -80.3225674 -0.143080E-02  0.128E-01    1.66       1.0  T
   7    -80.3229458 -0.378364E-03  0.605E-02    1.65       1.0  T
   8    -80.3230275 -0.817173E-04  0.228E-02    1.67       1.0  T
   9    -80.3230390 -0.115057E-04  0.108E-02    1.67       1.3  T
  10    -80.3230404 -0.140357E-05  0.513E-03    1.67       2.7  T
  11    -80.3230410 -0.570039E-06  0.212E-03    1.67       6.5  T
  12    -80.3230411 -0.835793E-07  0.101E-03    1.67      13.8  T
  13    -80.3230411 -0.266448E-07  0.420E-04    1.67      33.0  T
  14    -80.3230411 -0.285424E-08  0.163E-04    1.67      85.3  T

   *** convergence criteria satisfied after 14 iterations ***

         #    Occupation            Energy/Eh            Energy/eV
      -------------------------------------------------------------
         1        2.0000           -0.7196135             -19.5817
       ...           ...                  ...                  ...
        67        2.0000           -0.4016856             -10.9304
        68        2.0000           -0.3987106             -10.8495
        69        2.0000           -0.3977676             -10.8238
        70        2.0000           -0.3929917             -10.6938
        71        2.0000           -0.3743690             -10.1871
        72        2.0000           -0.3665654              -9.9748
        73        1.0000           -0.3380283              -9.1982 (HOMO)
        74                         -0.2766544              -7.5281 (LUMO)
        75                         -0.2648144              -7.2060
        76                         -0.2399313              -6.5289
        77                         -0.2268877              -6.1739
        78                         -0.2010215              -5.4701
       ...                                ...                  ...
       139                          0.7115224              19.3615
      -------------------------------------------------------------
                  HL-Gap            0.0613739 Eh            1.6701 eV
             Fermi-level           -0.3298190 Eh           -8.9748 eV

 transition dipole moment (au) for excitation:          72          73
     X       Y       Z   
  -0.1991   0.4091  -0.2030  total (au/Debye):    0.498   1.266
 dE (eV)             :    0.777
 oscillator strength :  0.66778E-02

 SCC (total)                   0 d,  0 h,  0 min,  0.381 sec
 SCC setup                      ...        0 min,  0.001 sec (  0.222%)
 Dispersion                     ...        0 min,  0.001 sec (  0.286%)
 classical contributions        ...        0 min,  0.000 sec (  0.086%)
 integral evaluation            ...        0 min,  0.004 sec (  0.952%)
 iterations                     ...        0 min,  0.328 sec ( 86.014%)
 molecular gradient             ...        0 min,  0.018 sec (  4.639%)
 printout                       ...        0 min,  0.030 sec (  7.800%)

         :::::::::::::::::::::::::::::::::::::::::::::::::::::
         ::                     SUMMARY                     ::
         :::::::::::::::::::::::::::::::::::::::::::::::::::::
         :: total energy             -79.135085681666 Eh    ::
         :: gradient norm              0.170234424313 Eh/a0 ::
         :: HOMO-LUMO gap              1.670067839210 eV    ::
         ::.................................................::
         :: SCC energy               -80.323041122033 Eh    ::
         :: -> isotropic ES            0.070707935404 Eh    ::
         :: -> anisotropic ES          0.007402903280 Eh    ::
         :: -> anisotropic XC          0.034055160943 Eh    ::
         :: -> dispersion             -0.064097975205 Eh    ::
         :: repulsion energy           1.187777152739 Eh    ::
         :: add. restraining           0.000000000000 Eh    ::
         :: total charge               0.000001012844 e     ::
         :::::::::::::::::::::::::::::::::::::::::::::::::::::

      ----------------------------------------------------------- 
     |                   =====================                   |
     |                        A N C O P T                        |
     |                   =====================                   |
     |               Approximate Normal Coordinate               |
     |                Rational Function Optimizer                |
      ----------------------------------------------------------- 

          ...................................................
          :                      SETUP                      :
          :.................................................:
          :   optimization level            normal          :
          :   max. optcycles                   200          :
          :   ANC micro-cycles                  20          :
          :   degrees of freedom               150          :
          :.................................................:
          :   RF solver                   davidson          :
          :   write xtbopt.log                true          :
          :   linear?                        false          :
          :   energy convergence         0.5000000E-05 Eh   :
          :   grad. convergence          0.1000000E-02 Eh/α :
          :   maxmium RF displ.          1.0000000          :
          :   Hlow (freq-cutoff)         0.1000000E-01      :
          :   Hmax (freq-cutoff)         5.0000000          :
          :   S6 in model hess.         20.0000000          :
          ...................................................

generating ANC from model Hessian ...
Using Lindh-Hessian (1995)
 Shifting diagonal of input Hessian by    1.0297208027543773E-002
 Lowest  eigenvalues of input Hessian
    0.010000    0.000000    0.000000    0.000000    0.000000    0.000000
    0.000000    0.010459    0.010709    0.010862    0.012217    0.012862
    0.013382    0.013828    0.014226    0.015624    0.016179    0.017577
 Highest eigenvalues
    1.953425    1.979326    2.018316    2.073444    2.095965    2.406416


........................................................................
.............................. CYCLE    1 ..............................
........................................................................

 iter      E             dE          RMSdq      gap      omega  full diag
   1    -80.3230411 -0.803230E+02  0.838E-05    1.67       0.0  T
   2    -80.3230411 -0.276970E-10  0.582E-05    1.67     238.3  T
   3    -80.3230411 -0.135358E-09  0.344E-05    1.67     402.9  T
     SCC iter.                  ...        0 min,  0.111 sec
     gradient                   ...        0 min,  0.010 sec
 * total energy  :   -79.1350857 Eh     change       -0.7135554E-09 Eh
   gradient norm :     0.1702337 Eh/α   predicted     0.0000000E+00 (-100.00%)
   displ. norm   :     0.3423452 α      lambda       -0.3320402E-01
   maximum displ.:     0.1158634 α      in ANC's #26, #35, #30, ...

........................................................................
.............................. CYCLE    2 ..............................
........................................................................

 iter      E             dE          RMSdq      gap      omega  full diag
   1    -80.3728020 -0.803728E+02  0.242E-01    1.53       0.0  T
   2    -80.3725331  0.268863E-03  0.250E-01    1.61       1.0  T
   3    -80.3752106 -0.267746E-02  0.952E-02    1.58       1.0  T
   4    -80.3751376  0.729562E-04  0.617E-02    1.59       1.0  T
   5    -80.3752348 -0.971790E-04  0.187E-02    1.59       1.0  T
   6    -80.3752506 -0.158161E-04  0.746E-03    1.59       1.9  T
   7    -80.3752509 -0.314028E-06  0.401E-03    1.59       3.5  T
   8    -80.3752513 -0.336305E-06  0.944E-04    1.59      14.7  T
   9    -80.3752513 -0.172332E-07  0.508E-04    1.59      27.3  T
     SCC iter.                  ...        0 min,  0.156 sec
     gradient                   ...        0 min,  0.007 sec
 * total energy  :   -79.1590769 Eh     change       -0.2399126E-01 Eh
   gradient norm :     0.0783648 Eh/α   predicted    -0.1856449E-01 ( -22.62%)
   displ. norm   :     0.3774103 α      lambda       -0.1334937E-01
   maximum displ.:     0.1518580 α      in ANC's #11, #26, #7, ...

........................................................................
.............................. CYCLE    3 ..............................
........................................................................

 iter      E             dE          RMSdq      gap      omega  full diag
   1    -80.4072425 -0.804072E+02  0.214E-01    1.50       0.0  T
   2    -80.4069354  0.307150E-03  0.225E-01    1.55       1.0  T
   3    -80.4093657 -0.243027E-02  0.774E-02    1.53       1.0  T
   4    -80.4093135  0.522136E-04  0.492E-02    1.55       1.0  T
   5    -80.4093738 -0.603493E-04  0.164E-02    1.54       1.0  T
   6    -80.4093870 -0.132258E-04  0.536E-03    1.54       2.6  T
   7    -80.4093872 -0.130075E-06  0.319E-03    1.54       4.4  T
   8    -80.4093874 -0.187460E-06  0.730E-04    1.54      19.0  T
   9    -80.4093874 -0.779785E-08  0.377E-04    1.54      36.8  T
     SCC iter.                  ...        0 min,  0.216 sec
     gradient                   ...        0 min,  0.025 sec
 * total energy  :   -79.1668734 Eh     change       -0.7796455E-02 Eh
   gradient norm :     0.0237254 Eh/α   predicted    -0.7628089E-02 (  -2.16%)
   displ. norm   :     0.3096131 α      lambda       -0.2352287E-02
   maximum displ.:     0.1726171 α      in ANC's #11, #7, #26, ...

........................................................................
.............................. CYCLE    4 ..............................
........................................................................

 iter      E             dE          RMSdq      gap      omega  full diag
   1    -80.4147545 -0.804148E+02  0.785E-02    1.56       0.0  T
   2    -80.4147577 -0.314034E-05  0.476E-02    1.56       1.0  T
   3    -80.4146847  0.729372E-04  0.365E-02    1.56       1.0  T
   4    -80.4147717 -0.869947E-04  0.573E-03    1.56       2.4  T
   5    -80.4147735 -0.172530E-05  0.179E-03    1.56       7.8  T
   6    -80.4147735 -0.495724E-07  0.939E-04    1.56      14.8  T
   7    -80.4147735 -0.988655E-08  0.314E-04    1.56      44.1  T
     SCC iter.                  ...        0 min,  0.161 sec
     gradient                   ...        0 min,  0.007 sec
 * total energy  :   -79.1686395 Eh     change       -0.1766137E-02 Eh
   gradient norm :     0.0142469 Eh/α   predicted    -0.1288918E-02 ( -27.02%)
   displ. norm   :     0.3996071 α      lambda       -0.1650414E-02
   maximum displ.:     0.2288699 α      in ANC's #7, #11, #4, ...

........................................................................
.............................. CYCLE    5 ..............................
........................................................................

 iter      E             dE          RMSdq      gap      omega  full diag
   1    -80.4176758 -0.804177E+02  0.932E-02    1.57       0.0  T
   2    -80.4176316  0.441636E-04  0.700E-02    1.56       1.0  T
   3    -80.4176967 -0.650491E-04  0.449E-02    1.57       1.0  T
   4    -80.4177720 -0.753904E-04  0.527E-03    1.57       2.6  T
   5    -80.4177732 -0.113193E-05  0.228E-03    1.57       6.1  T
   6    -80.4177733 -0.857159E-07  0.117E-03    1.57      11.9  T
   7    -80.4177733 -0.233640E-07  0.393E-04    1.57      35.3  T
   8    -80.4177733 -0.336087E-08  0.170E-04    1.57      81.5  T
     SCC iter.                  ...        0 min,  0.101 sec
     gradient                   ...        0 min,  0.009 sec
 * total energy  :   -79.1697280 Eh     change       -0.1088430E-02 Eh
   gradient norm :     0.0078814 Eh/α   predicted    -0.9569933E-03 ( -12.08%)
   displ. norm   :     0.2826261 α      lambda       -0.5390347E-03
   maximum displ.:     0.1775639 α      in ANC's #7, #4, #11, ...

........................................................................
.............................. CYCLE    6 ..............................
........................................................................

 iter      E             dE          RMSdq      gap      omega  full diag
   1    -80.4194584 -0.804195E+02  0.575E-02    1.56       0.0  T
   2    -80.4194537  0.472099E-05  0.374E-02    1.56       1.0  T
   3    -80.4194128  0.409078E-04  0.309E-02    1.57       1.0  T
   4    -80.4194721 -0.593229E-04  0.236E-03    1.57       5.9  T
   5    -80.4194723 -0.188439E-06  0.114E-03    1.57      12.1  T
   6    -80.4194723 -0.294687E-07  0.599E-04    1.57      23.2  T
   7    -80.4194723 -0.332555E-08  0.240E-04    1.57      57.7  T
     SCC iter.                  ...        0 min,  0.108 sec
     gradient                   ...        0 min,  0.011 sec
 * total energy  :   -79.1701262 Eh     change       -0.3982613E-03 Eh
   gradient norm :     0.0071083 Eh/α   predicted    -0.2910466E-03 ( -26.92%)
   displ. norm   :     0.3207615 α      lambda       -0.4498461E-03
   maximum displ.:     0.1906168 α      in ANC's #7, #4, #1, ...

........................................................................
.............................. CYCLE    7 ..............................
........................................................................

 iter      E             dE          RMSdq      gap      omega  full diag
   1    -80.4210341 -0.804210E+02  0.672E-02    1.56       0.0  T
   2    -80.4210349 -0.749755E-06  0.401E-02    1.56       1.0  T
   3    -80.4209996  0.352601E-04  0.221E-02    1.56       1.0  T
   4    -80.4210376 -0.380087E-04  0.231E-03    1.56       6.0  T
   5    -80.4210379 -0.253489E-06  0.961E-04    1.56      14.4  T
   6    -80.4210379 -0.148051E-07  0.527E-04    1.56      26.3  T
     SCC iter.                  ...        0 min,  0.140 sec
     gradient                   ...        0 min,  0.007 sec
 * total energy  :   -79.1704611 Eh     change       -0.3349197E-03 Eh
   gradient norm :     0.0049989 Eh/α   predicted    -0.2480657E-03 ( -25.93%)
   displ. norm   :     0.3023448 α      lambda       -0.3283398E-03
   maximum displ.:     0.1928744 α      in ANC's #4, #7, #6, ...

........................................................................
.............................. CYCLE    8 ..............................
........................................................................

 iter      E             dE          RMSdq      gap      omega  full diag
   1    -80.4220023 -0.804220E+02  0.622E-02    1.55       0.0  T
   2    -80.4220031 -0.855915E-06  0.366E-02    1.55       1.0  T
   3    -80.4220004  0.273866E-05  0.706E-03    1.55       2.0  T
   4    -80.4220035 -0.309926E-05  0.161E-03    1.55       8.6  T
   5    -80.4220036 -0.899994E-07  0.762E-04    1.55      18.2  T
   6    -80.4220036 -0.542249E-08  0.480E-04    1.55      28.9  T
     SCC iter.                  ...        0 min,  0.100 sec
     gradient                   ...        0 min,  0.008 sec
 * total energy  :   -79.1707137 Eh     change       -0.2525179E-03 Eh
   gradient norm :     0.0039847 Eh/α   predicted    -0.1791774E-03 ( -29.04%)
   displ. norm   :     0.2782652 α      lambda       -0.2518522E-03
   maximum displ.:     0.1884925 α      in ANC's #4, #7, #6, ...

........................................................................
.............................. CYCLE    9 ..............................
........................................................................

 iter      E             dE          RMSdq      gap      omega  full diag
   1    -80.4223008 -0.804223E+02  0.593E-02    1.55       0.0  T
   2    -80.4223013 -0.461153E-06  0.350E-02    1.55       1.0  T
   3    -80.4222955  0.581036E-05  0.995E-03    1.55       1.4  T
   4    -80.4223019 -0.641014E-05  0.120E-03    1.55      11.6  T
   5    -80.4223019 -0.359535E-07  0.746E-04    1.55      18.6  T
   6    -80.4223019 -0.165147E-07  0.344E-04    1.55      40.3  T
     SCC iter.                  ...        0 min,  0.086 sec
     gradient                   ...        0 min,  0.007 sec
 * total energy  :   -79.1709159 Eh     change       -0.2022370E-03 Eh
   gradient norm :     0.0041599 Eh/α   predicted    -0.1356784E-03 ( -32.91%)
   displ. norm   :     0.2660084 α      lambda       -0.2199790E-03
   maximum displ.:     0.1904344 α      in ANC's #4, #6, #1, ...

........................................................................
.............................. CYCLE   10 ..............................
........................................................................

 iter      E             dE          RMSdq      gap      omega  full diag
   1    -80.4223467 -0.804223E+02  0.534E-02    1.55       0.0  T
   2    -80.4223472 -0.504173E-06  0.315E-02    1.55       1.0  T
   3    -80.4223440  0.320206E-05  0.734E-03    1.55       1.9  T
   4    -80.4223475 -0.350250E-05  0.128E-03    1.55      10.9  T
   5    -80.4223475 -0.669290E-07  0.667E-04    1.55      20.8  T
   6    -80.4223475 -0.155410E-07  0.338E-04    1.55      41.0  T
     SCC iter.                  ...        0 min,  0.098 sec
     gradient                   ...        0 min,  0.007 sec
 * total energy  :   -79.1710942 Eh     change       -0.1782822E-03 Eh
   gradient norm :     0.0037736 Eh/α   predicted    -0.1177747E-03 ( -33.94%)
   displ. norm   :     0.2552034 α      lambda       -0.1798459E-03
   maximum displ.:     0.1817429 α      in ANC's #4, #6, #1, ...

........................................................................
.............................. CYCLE   11 ..............................
........................................................................

 iter      E             dE          RMSdq      gap      omega  full diag
   1    -80.4219803 -0.804220E+02  0.530E-02    1.55       0.0  T
   2    -80.4219811 -0.768308E-06  0.312E-02    1.55       1.0  T
   3    -80.4219780  0.307114E-05  0.737E-03    1.55       1.9  T
   4    -80.4219814 -0.340208E-05  0.132E-03    1.55      10.5  T
   5    -80.4219815 -0.725529E-07  0.489E-04    1.55      28.4  T
   6    -80.4219815 -0.138853E-08  0.313E-04    1.55      44.4  T
     SCC iter.                  ...        0 min,  0.070 sec
     gradient                   ...        0 min,  0.007 sec
 * total energy  :   -79.1712395 Eh     change       -0.1453027E-03 Eh
   gradient norm :     0.0029897 Eh/α   predicted    -0.9578243E-04 ( -34.08%)
   displ. norm   :     0.2330695 α      lambda       -0.1431332E-03
   maximum displ.:     0.1715391 α      in ANC's #4, #6, #2, ...

........................................................................
.............................. CYCLE   12 ..............................
........................................................................

 iter      E             dE          RMSdq      gap      omega  full diag
   1    -80.4221704 -0.804222E+02  0.460E-02    1.55       0.0  T
   2    -80.4221707 -0.287579E-06  0.271E-02    1.55       1.0  T
   3    -80.4221649  0.585676E-05  0.896E-03    1.55       1.5  T
   4    -80.4221711 -0.625193E-05  0.124E-03    1.55      11.2  T
   5    -80.4221712 -0.849811E-07  0.562E-04    1.55      24.7  T
   6    -80.4221712 -0.105717E-07  0.253E-04    1.55      54.7  T
     SCC iter.                  ...        0 min,  0.105 sec
     gradient                   ...        0 min,  0.007 sec
 * total energy  :   -79.1713567 Eh     change       -0.1172201E-03 Eh
   gradient norm :     0.0025421 Eh/α   predicted    -0.7545700E-04 ( -35.63%)
   displ. norm   :     0.2251364 α      lambda       -0.1176255E-03
   maximum displ.:     0.1619312 α      in ANC's #4, #2, #1, ...

........................................................................
.............................. CYCLE   13 ..............................
........................................................................

 iter      E             dE          RMSdq      gap      omega  full diag
   1    -80.4222845 -0.804223E+02  0.448E-02    1.55       0.0  T
   2    -80.4222847 -0.201926E-06  0.264E-02    1.55       1.0  T
   3    -80.4222812  0.352099E-05  0.696E-03    1.55       2.0  T
   4    -80.4222850 -0.379510E-05  0.101E-03    1.55      13.8  T
   5    -80.4222851 -0.472889E-07  0.499E-04    1.55      27.8  T
   6    -80.4222851 -0.553739E-08  0.196E-04    1.55      70.6  T
     SCC iter.                  ...        0 min,  0.116 sec
     gradient                   ...        0 min,  0.007 sec
 * total energy  :   -79.1714549 Eh     change       -0.9820186E-04 Eh
   gradient norm :     0.0024315 Eh/α   predicted    -0.6179580E-04 ( -37.07%)
   displ. norm   :     0.2276152 α      lambda       -0.1037838E-03
   maximum displ.:     0.1642649 α      in ANC's #4, #2, #1, ...

........................................................................
.............................. CYCLE   14 ..............................
........................................................................

 iter      E             dE          RMSdq      gap      omega  full diag
   1    -80.4228219 -0.804228E+02  0.440E-02    1.55       0.0  T
   2    -80.4228222 -0.224062E-06  0.259E-02    1.55       1.0  T
   3    -80.4228199  0.223875E-05  0.562E-03    1.55       2.5  T
   4    -80.4228223 -0.242779E-05  0.101E-03    1.55      13.8  T
   5    -80.4228224 -0.479590E-07  0.486E-04    1.55      28.5  T
   6    -80.4228224 -0.444399E-08  0.198E-04    1.55      70.0  T
     SCC iter.                  ...        0 min,  0.098 sec
     gradient                   ...        0 min,  0.008 sec
 * total energy  :   -79.1715400 Eh     change       -0.8508909E-04 Eh
   gradient norm :     0.0022520 Eh/α   predicted    -0.5458242E-04 ( -35.85%)
   displ. norm   :     0.2248933 α      lambda       -0.8150913E-04
   maximum displ.:     0.1610890 α      in ANC's #4, #2, #1, ...

........................................................................
.............................. CYCLE   15 ..............................
........................................................................

 iter      E             dE          RMSdq      gap      omega  full diag
   1    -80.4231661 -0.804232E+02  0.434E-02    1.55       0.0  T
   2    -80.4231664 -0.287159E-06  0.255E-02    1.55       1.0  T
   3    -80.4231643  0.212066E-05  0.552E-03    1.55       2.5  T
   4    -80.4231666 -0.228474E-05  0.113E-03    1.55      12.3  T
   5    -80.4231666 -0.653109E-07  0.520E-04    1.55      26.7  T
   6    -80.4231666 -0.689553E-08  0.244E-04    1.55      56.9  T
     SCC iter.                  ...        0 min,  0.064 sec
     gradient                   ...        0 min,  0.007 sec
 * total energy  :   -79.1716052 Eh     change       -0.6519149E-04 Eh
   gradient norm :     0.0021071 Eh/α   predicted    -0.4281921E-04 ( -34.32%)
   displ. norm   :     0.2001059 α      lambda       -0.5697767E-04
   maximum displ.:     0.1440055 α      in ANC's #4, #2, #1, ...

........................................................................
.............................. CYCLE   16 ..............................
........................................................................

 iter      E             dE          RMSdq      gap      omega  full diag
   1    -80.4235836 -0.804236E+02  0.382E-02    1.55       0.0  T
   2    -80.4235839 -0.252331E-06  0.225E-02    1.55       1.0  T
   3    -80.4235827  0.122212E-05  0.431E-03    1.55       3.2  T
   4    -80.4235840 -0.132826E-05  0.102E-03    1.55      13.6  T
   5    -80.4235840 -0.520255E-07  0.489E-04    1.55      28.3  T
   6    -80.4235840 -0.666338E-08  0.236E-04    1.55      58.7  T
     SCC iter.                  ...        0 min,  0.069 sec
     gradient                   ...        0 min,  0.007 sec
 * total energy  :   -79.1716504 Eh     change       -0.4526095E-04 Eh
   gradient norm :     0.0020397 Eh/α   predicted    -0.2963316E-04 ( -34.53%)
   displ. norm   :     0.1803283 α      lambda       -0.4172291E-04
   maximum displ.:     0.1291723 α      in ANC's #4, #2, #1, ...

........................................................................
.............................. CYCLE   17 ..............................
........................................................................

 iter      E             dE          RMSdq      gap      omega  full diag
   1    -80.4238116 -0.804238E+02  0.343E-02    1.54       0.0  T
   2    -80.4238118 -0.147435E-06  0.202E-02    1.54       1.0  T
   3    -80.4238083  0.353529E-05  0.701E-03    1.54       2.0  T
   4    -80.4238120 -0.379444E-05  0.891E-04    1.54      15.6  T
   5    -80.4238121 -0.350227E-07  0.441E-04    1.54      31.5  T
   6    -80.4238121 -0.388627E-08  0.217E-04    1.54      64.0  T
     SCC iter.                  ...        0 min,  0.089 sec
     gradient                   ...        0 min,  0.007 sec
 * total energy  :   -79.1716833 Eh     change       -0.3284271E-04 Eh
   gradient norm :     0.0017279 Eh/α   predicted    -0.2154386E-04 ( -34.40%)
   displ. norm   :     0.2489890 α      lambda       -0.3169308E-04
   maximum displ.:     0.1753997 α      in ANC's #4, #2, #5, ...

........................................................................
.............................. CYCLE   18 ..............................
........................................................................

 iter      E             dE          RMSdq      gap      omega  full diag
   1    -80.4239754 -0.804240E+02  0.466E-02    1.54       0.0  T
   2    -80.4239756 -0.180040E-06  0.275E-02    1.54       1.0  T
   3    -80.4239657  0.989053E-05  0.117E-02    1.54       1.2  T
   4    -80.4239763 -0.106158E-04  0.124E-03    1.54      11.2  T
   5    -80.4239764 -0.689166E-07  0.592E-04    1.54      23.4  T
   6    -80.4239764 -0.434777E-08  0.280E-04    1.54      49.5  T
     SCC iter.                  ...        0 min,  0.063 sec
     gradient                   ...        0 min,  0.007 sec
 * total energy  :   -79.1717135 Eh     change       -0.3020271E-04 Eh
   gradient norm :     0.0011396 Eh/α   predicted    -0.1628648E-04 ( -46.08%)
   displ. norm   :     0.0956657 α      lambda       -0.1075561E-04
   maximum displ.:     0.0582620 α      in ANC's #4, #2, #3, ...

........................................................................
.............................. CYCLE   19 ..............................
........................................................................

 iter      E             dE          RMSdq      gap      omega  full diag
   1    -80.4241330 -0.804241E+02  0.173E-02    1.54       0.0  T
   2    -80.4241329  0.683718E-07  0.105E-02    1.54       1.3  T
   3    -80.4241288  0.408540E-05  0.801E-03    1.54       1.7  T
   4    -80.4241334 -0.462486E-05  0.753E-04    1.54      18.4  T
   5    -80.4241335 -0.349704E-07  0.218E-04    1.54      63.5  T
   6    -80.4241335 -0.576151E-09  0.108E-04    1.54     128.3  T
     SCC iter.                  ...        0 min,  0.064 sec
     gradient                   ...        0 min,  0.008 sec
 * total energy  :   -79.1717260 Eh     change       -0.1250301E-04 Eh
   gradient norm :     0.0009047 Eh/α   predicted    -0.5399931E-05 ( -56.81%)
   displ. norm   :     0.0961693 α      lambda       -0.1179476E-04
   maximum displ.:     0.0542337 α      in ANC's #2, #3, #4, ...

........................................................................
.............................. CYCLE   20 ..............................
........................................................................

 iter      E             dE          RMSdq      gap      omega  full diag
   1    -80.4241130 -0.804241E+02  0.163E-02    1.54       0.0  T
   2    -80.4241131 -0.103314E-06  0.968E-03    1.54       1.4  T
   3    -80.4241122  0.950616E-06  0.370E-03    1.54       3.7  T
   4    -80.4241132 -0.100015E-05  0.773E-04    1.54      17.9  T
   5    -80.4241132 -0.396919E-07  0.254E-04    1.54      54.5  T
   6    -80.4241132 -0.221517E-08  0.114E-04    1.54     121.5  T
     SCC iter.                  ...        0 min,  0.062 sec
     gradient                   ...        0 min,  0.007 sec
 * total energy  :   -79.1717384 Eh     change       -0.1243983E-04 Eh
   gradient norm :     0.0011082 Eh/α   predicted    -0.5922337E-05 ( -52.39%)
   displ. norm   :     0.0869229 α      lambda       -0.9093176E-05
   maximum displ.:     0.0513597 α      in ANC's #3, #2, #8, ...
 * RMSD in coord.:     0.5017656 α      energy gain  -0.3665275E-01 Eh

generating ANC from model Hessian ...
Using Lindh-Hessian (1995)
 Shifting diagonal of input Hessian by    9.8189000301826500E-003
 Lowest  eigenvalues of input Hessian
    0.000000    0.000000    0.000000    0.000000    0.000000    0.000000
    0.010000    0.010133    0.010471    0.011071    0.011940    0.012934
    0.013272    0.013921    0.014982    0.015953    0.016496    0.018409
 Highest eigenvalues
    2.011523    2.088450    2.127073    2.144944    2.194226    2.385485


........................................................................
.............................. CYCLE   21 ..............................
........................................................................

 iter      E             dE          RMSdq      gap      omega  full diag
   1    -80.4239227 -0.804239E+02  0.155E-02    1.53       0.0  T
   2    -80.4239224  0.305617E-06  0.101E-02    1.54       1.4  T
   3    -80.4239196  0.277659E-05  0.818E-03    1.54       1.7  T
   4    -80.4239238 -0.411110E-05  0.801E-04    1.54      17.3  T
   5    -80.4239238 -0.336692E-07  0.270E-04    1.54      51.4  T
   6    -80.4239238 -0.126758E-08  0.142E-04    1.54      97.4  T
     SCC iter.                  ...        0 min,  0.076 sec
     gradient                   ...        0 min,  0.007 sec
 * total energy  :   -79.1717474 Eh     change       -0.9013157E-05 Eh
   gradient norm :     0.0020391 Eh/α   predicted     0.0000000E+00 (-100.00%)
   displ. norm   :     0.0154238 α      lambda       -0.2766147E-05
   maximum displ.:     0.0097613 α      in ANC's #2, #1, #3, ...

........................................................................
.............................. CYCLE   22 ..............................
........................................................................

 iter      E             dE          RMSdq      gap      omega  full diag
   1    -80.4239553 -0.804240E+02  0.393E-03    1.54       0.0  T
   2    -80.4239552  0.146220E-06  0.376E-03    1.54       3.7  T
   3    -80.4239559 -0.689364E-06  0.148E-03    1.54       9.4  T
   4    -80.4239559  0.428281E-08  0.714E-04    1.54      19.4  T
   5    -80.4239559 -0.234920E-07  0.179E-04    1.54      77.5  T
     SCC iter.                  ...        0 min,  0.052 sec
     gradient                   ...        0 min,  0.007 sec
 * total energy  :   -79.1717530 Eh     change       -0.5542408E-05 Eh
   gradient norm :     0.0009510 Eh/α   predicted    -0.3420792E-05 ( -38.28%)
   displ. norm   :     0.0574184 α      lambda       -0.9049260E-05
   maximum displ.:     0.0385451 α      in ANC's #2, #1, #3, ...

........................................................................
.............................. CYCLE   23 ..............................
........................................................................

 iter      E             dE          RMSdq      gap      omega  full diag
   1    -80.4240040 -0.804240E+02  0.101E-02    1.54       0.0  T
   2    -80.4240032  0.760329E-06  0.905E-03    1.54       1.5  T
   3    -80.4240069 -0.364892E-05  0.401E-03    1.54       3.5  T
   4    -80.4240070 -0.645039E-07  0.176E-03    1.54       7.9  T
   5    -80.4240071 -0.154482E-06  0.438E-04    1.54      31.7  T
   6    -80.4240071 -0.464885E-08  0.235E-04    1.54      58.9  T
     SCC iter.                  ...        0 min,  0.063 sec
     gradient                   ...        0 min,  0.007 sec
 * total energy  :   -79.1717595 Eh     change       -0.6553242E-05 Eh
   gradient norm :     0.0016756 Eh/α   predicted    -0.4741985E-05 ( -27.64%)
   displ. norm   :     0.0198648 α      lambda       -0.2573293E-05
   maximum displ.:     0.0147380 α      in ANC's #2, #1, #3, ...

........................................................................
.............................. CYCLE   24 ..............................
........................................................................

 iter      E             dE          RMSdq      gap      omega  full diag
   1    -80.4240082 -0.804240E+02  0.274E-03    1.54       0.0  T
   2    -80.4240082  0.463484E-07  0.241E-03    1.54       5.7  T
   3    -80.4240084 -0.236560E-06  0.113E-03    1.54      12.3  T
   4    -80.4240084 -0.928942E-08  0.444E-04    1.54      31.3  T
   5    -80.4240084 -0.894899E-08  0.137E-04    1.54     101.2  T
     SCC iter.                  ...        0 min,  0.059 sec
     gradient                   ...        0 min,  0.007 sec
 * total energy  :   -79.1717630 Eh     change       -0.3473213E-05 Eh
   gradient norm :     0.0010019 Eh/α   predicted    -0.1287286E-05 ( -62.94%)
   displ. norm   :     0.0566750 α      lambda       -0.5827305E-05
   maximum displ.:     0.0387373 α      in ANC's #2, #1, #3, ...

........................................................................
.............................. CYCLE   25 ..............................
........................................................................

 iter      E             dE          RMSdq      gap      omega  full diag
   1    -80.4240039 -0.804240E+02  0.667E-03    1.54       0.0  T
   2    -80.4240036  0.238895E-06  0.557E-03    1.54       2.5  T
   3    -80.4240047 -0.108819E-05  0.287E-03    1.54       4.8  T
   4    -80.4240048 -0.106577E-06  0.974E-04    1.54      14.2  T
   5    -80.4240049 -0.512591E-07  0.268E-04    1.54      51.8  T
     SCC iter.                  ...        0 min,  0.078 sec
     gradient                   ...        0 min,  0.009 sec
 * total energy  :   -79.1717700 Eh     change       -0.6949205E-05 Eh
   gradient norm :     0.0005322 Eh/α   predicted    -0.2919997E-05 ( -57.98%)
   displ. norm   :     0.0817324 α      lambda       -0.5393542E-05
   maximum displ.:     0.0546929 α      in ANC's #2, #1, #3, ...

........................................................................
.............................. CYCLE   26 ..............................
........................................................................

 iter      E             dE          RMSdq      gap      omega  full diag
   1    -80.4239091 -0.804239E+02  0.817E-03    1.54       0.0  T
   2    -80.4239091  0.443309E-08  0.518E-03    1.54       2.7  T
   3    -80.4239083  0.789381E-06  0.418E-03    1.54       3.3  T
   4    -80.4239093 -0.104299E-05  0.638E-04    1.54      21.7  T
   5    -80.4239094 -0.213978E-07  0.253E-04    1.54      54.9  T
   6    -80.4239094 -0.869363E-09  0.135E-04    1.54     102.7  T
     SCC iter.                  ...        0 min,  0.067 sec
     gradient                   ...        0 min,  0.016 sec
 * total energy  :   -79.1717768 Eh     change       -0.6855060E-05 Eh
   gradient norm :     0.0012257 Eh/α   predicted    -0.2705186E-05 ( -60.54%)
   displ. norm   :     0.0941767 α      lambda       -0.5387727E-05
   maximum displ.:     0.0625755 α      in ANC's #2, #1, #3, ...

........................................................................
.............................. CYCLE   27 ..............................
........................................................................

 iter      E             dE          RMSdq      gap      omega  full diag
   1    -80.4238347 -0.804238E+02  0.916E-03    1.54       0.0  T
   2    -80.4238347 -0.552833E-07  0.545E-03    1.54       2.5  T
   3    -80.4238346  0.949977E-07  0.140E-03    1.54       9.9  T
   4    -80.4238348 -0.115322E-06  0.420E-04    1.54      33.0  T
   5    -80.4238348 -0.434559E-08  0.276E-04    1.54      50.3  T
     SCC iter.                  ...        0 min,  0.053 sec
     gradient                   ...        0 min,  0.007 sec
 * total energy  :   -79.1717838 Eh     change       -0.7025004E-05 Eh
   gradient norm :     0.0011940 Eh/α   predicted    -0.2704674E-05 ( -61.50%)
   displ. norm   :     0.0995138 α      lambda       -0.5172925E-05
   maximum displ.:     0.0665208 α      in ANC's #2, #1, #3, ...

........................................................................
.............................. CYCLE   28 ..............................
........................................................................

 iter      E             dE          RMSdq      gap      omega  full diag
   1    -80.4237558 -0.804238E+02  0.100E-02    1.54       0.0  T
   2    -80.4237558 -0.405605E-08  0.617E-03    1.54       2.2  T
   3    -80.4237545  0.133108E-05  0.479E-03    1.54       2.9  T
   4    -80.4237560 -0.154992E-05  0.618E-04    1.54      22.4  T
   5    -80.4237561 -0.176624E-07  0.283E-04    1.54      49.1  T
   6    -80.4237561 -0.805883E-09  0.137E-04    1.54     100.9  T
     SCC iter.                  ...        0 min,  0.062 sec
     gradient                   ...        0 min,  0.007 sec
 * total energy  :   -79.1717903 Eh     change       -0.6452634E-05 Eh
   gradient norm :     0.0005868 Eh/α   predicted    -0.2600392E-05 ( -59.70%)
   displ. norm   :     0.0842681 α      lambda       -0.3585216E-05
   maximum displ.:     0.0580900 α      in ANC's #2, #1, #3, ...

........................................................................
.............................. CYCLE   29 ..............................
........................................................................

 iter      E             dE          RMSdq      gap      omega  full diag
   1    -80.4237276 -0.804237E+02  0.866E-03    1.54       0.0  T
   2    -80.4237276 -0.118058E-07  0.525E-03    1.54       2.6  T
   3    -80.4237267  0.896609E-06  0.385E-03    1.54       3.6  T
   4    -80.4237277 -0.101503E-05  0.516E-04    1.54      26.9  T
   5    -80.4237277 -0.135887E-07  0.220E-04    1.54      63.0  T
   6    -80.4237277 -0.399908E-09  0.101E-04    1.54     137.5  T
     SCC iter.                  ...        0 min,  0.063 sec
     gradient                   ...        0 min,  0.007 sec
 * total energy  :   -79.1717948 Eh     change       -0.4454373E-05 Eh
   gradient norm :     0.0001393 Eh/α   predicted    -0.1801970E-05 ( -59.55%)
   displ. norm   :     0.0615129 α      lambda       -0.2319247E-05
   maximum displ.:     0.0433529 α      in ANC's #2, #1, #3, ...

   *** GEOMETRY OPTIMIZATION CONVERGED AFTER 29 ITERATIONS ***

------------------------------------------------------------------------
 total energy gain   :        -0.0367091 Eh      -23.0353 kcal/mol
 total RMSD          :         0.5003747 a0        0.2648 Å
 total power (kW/mol):        -3.3234362 (step)  -30.5332 (real)
------------------------------------------------------------------------

 ANCopt (total)                0 d,  0 h,  0 min,  3.157 sec
 optimizer setup                ...        0 min,  0.003 sec (  0.083%)
 model hessian                  ...        0 min,  0.036 sec (  1.127%)
 ANC generation                 ...        0 min,  0.013 sec (  0.401%)
 coordinate transformation      ...        0 min,  0.000 sec (  0.010%)
 single point calculation       ...        0 min,  3.093 sec ( 97.981%)
 optimization log               ...        0 min,  0.005 sec (  0.152%)
 hessian update                 ...        0 min,  0.001 sec (  0.044%)
 rational function              ...        0 min,  0.005 sec (  0.145%)

================
 final structure:
================
 xtb: 6.6.1 (8d0f1dd)
          11142410573D

 52 56  0     0  0            999 V2000
    0.9891    1.6130    0.1671 C   0  0  0  0  0  0  0  0  0  0  0  0
    1.0202    0.1803    0.2761 C   0  0  0  0  0  0  0  0  0  0  0  0
   -0.1983    2.4008    0.3421 C   0  0  0  0  0  0  0  0  0  0  0  0
    2.1924    2.2787   -0.1238 C   0  0  0  0  0  0  0  0  0  0  0  0
    2.2709   -0.4734    0.4225 C   0  0  0  0  0  0  0  0  0  0  0  0
   -0.1988    3.7490   -0.0999 C   0  0  0  0  0  0  0  0  0  0  0  0
    3.4272    1.5845   -0.0377 C   0  0  0  0  0  0  0  0  0  0  0  0
    2.1729    3.6469   -0.5012 C   0  0  0  0  0  0  0  0  0  0  0  0
    3.4701    0.2725    0.3032 C   0  0  0  0  0  0  0  0  0  0  0  0
    1.0072    4.3349   -0.5650 C   0  0  0  0  0  0  0  0  0  0  0  0
   -0.1255   -0.6183    0.1418 C   0  0  0  0  0  0  0  0  0  0  0  0
   -1.3407    1.9408    1.0246 C   0  0  0  0  0  0  0  0  0  0  0  0
    2.2994   -1.8660    0.6184 C   0  0  0  0  0  0  0  0  0  0  0  0
   -1.3771    4.5103   -0.0089 C   0  0  0  0  0  0  0  0  0  0  0  0
   -0.0773   -1.9918    0.3133 C   0  0  0  0  0  0  0  0  0  0  0  0
   -2.4678    2.7148    1.1301 C   0  0  0  0  0  0  0  0  0  0  0  0
    1.1557   -2.6125    0.6019 C   0  0  0  0  0  0  0  0  0  0  0  0
   -2.5059    3.9941    0.5695 C   0  0  0  0  0  0  0  0  0  0  0  0
    4.3372    2.1386   -0.2196 H   0  0  0  0  0  0  0  0  0  0  0  0
    3.1094    4.1167   -0.7664 H   0  0  0  0  0  0  0  0  0  0  0  0
    4.4128   -0.2400    0.4308 H   0  0  0  0  0  0  0  0  0  0  0  0
    0.9833    5.3583   -0.9115 H   0  0  0  0  0  0  0  0  0  0  0  0
   -1.0518   -0.1639   -0.1673 H   0  0  0  0  0  0  0  0  0  0  0  0
   -1.3113    0.9863    1.5255 H   0  0  0  0  0  0  0  0  0  0  0  0
    3.2559   -2.3471    0.7640 H   0  0  0  0  0  0  0  0  0  0  0  0
   -1.3664    5.5248   -0.3820 H   0  0  0  0  0  0  0  0  0  0  0  0
   -1.2891   -2.7887    0.1898 C   0  0  0  0  0  0  0  0  0  0  0  0
   -3.3299    2.3398    1.6621 H   0  0  0  0  0  0  0  0  0  0  0  0
    1.1918   -3.6756    0.7732 H   0  0  0  0  0  0  0  0  0  0  0  0
   -3.4081    4.5844    0.6353 H   0  0  0  0  0  0  0  0  0  0  0  0
   -2.7419   -4.6093    0.2551 C   0  0  0  0  0  0  0  0  0  0  0  0
   -3.5163   -3.3553   -0.1951 C   0  0  0  0  0  0  0  0  0  0  0  0
   -2.3951   -5.5695   -0.8892 C   0  0  0  0  0  0  0  0  0  0  0  0
   -4.3429   -3.4993   -1.4665 C   0  0  0  0  0  0  0  0  0  0  0  0
   -4.3857   -2.7337    0.9049 C   0  0  0  0  0  0  0  0  0  0  0  0
   -2.4157   -2.3930   -0.4248 N   0  0  0  0  0  0  0  0  0  0  0  0
   -1.4545   -4.0235    0.6910 N   0  0  0  0  0  0  0  0  0  0  0  0
   -0.6426   -4.7048    1.3754 O   0  0  0  0  0  0  0  0  0  0  0  0
   -3.7415   -3.8438   -2.3018 H   0  0  0  0  0  0  0  0  0  0  0  0
   -4.7470   -2.5244   -1.7287 H   0  0  0  0  0  0  0  0  0  0  0  0
   -5.1633   -4.1925   -1.3034 H   0  0  0  0  0  0  0  0  0  0  0  0
   -3.8146   -2.5841    1.8188 H   0  0  0  0  0  0  0  0  0  0  0  0
   -5.2488   -3.3578    1.1166 H   0  0  0  0  0  0  0  0  0  0  0  0
   -4.7324   -1.7619    0.5589 H   0  0  0  0  0  0  0  0  0  0  0  0
   -3.3567   -5.3989    1.4039 C   0  0  0  0  0  0  0  0  0  0  0  0
   -3.5252   -4.7759    2.2767 H   0  0  0  0  0  0  0  0  0  0  0  0
   -2.6667   -6.1894    1.6892 H   0  0  0  0  0  0  0  0  0  0  0  0
   -4.2974   -5.8435    1.0918 H   0  0  0  0  0  0  0  0  0  0  0  0
   -1.9227   -5.0415   -1.7148 H   0  0  0  0  0  0  0  0  0  0  0  0
   -3.2829   -6.0816   -1.2482 H   0  0  0  0  0  0  0  0  0  0  0  0
   -1.6916   -6.3102   -0.5140 H   0  0  0  0  0  0  0  0  0  0  0  0
   -2.6276   -1.3174   -1.0507 O   0  0  0  0  0  0  0  0  0  0  0  0
  1  2  1  0  0  0  0
  1  3  1  0  0  0  0
  1  4  2  0  0  0  0
  2  5  1  0  0  0  0
  2 11  2  0  0  0  0
  3  6  1  0  0  0  0
  3 12  2  0  0  0  0
  4  7  1  0  0  0  0
  4  8  1  0  0  0  0
  5  9  1  0  0  0  0
  5 13  2  0  0  0  0
  6 10  1  0  0  0  0
  6 14  2  0  0  0  0
  7  9  2  0  0  0  0
  7 19  1  0  0  0  0
  8 10  2  0  0  0  0
  8 20  1  0  0  0  0
  9 21  1  0  0  0  0
 10 22  1  0  0  0  0
 11 15  1  0  0  0  0
 11 23  1  0  0  0  0
 12 16  1  0  0  0  0
 12 24  1  0  0  0  0
 13 17  1  0  0  0  0
 13 25  1  0  0  0  0
 14 18  1  0  0  0  0
 14 26  1  0  0  0  0
 15 17  2  0  0  0  0
 15 27  1  0  0  0  0
 16 18  2  0  0  0  0
 16 28  1  0  0  0  0
 17 29  1  0  0  0  0
 18 30  1  0  0  0  0
 27 36  2  0  0  0  0
 27 37  1  0  0  0  0
 31 37  1  0  0  0  0
 31 32  1  0  0  0  0
 31 33  1  0  0  0  0
 31 45  1  0  0  0  0
 32 36  1  0  0  0  0
 32 34  1  0  0  0  0
 32 35  1  0  0  0  0
 33 49  1  0  0  0  0
 33 50  1  0  0  0  0
 33 51  1  0  0  0  0
 34 39  1  0  0  0  0
 34 40  1  0  0  0  0
 34 41  1  0  0  0  0
 35 42  1  0  0  0  0
 35 43  1  0  0  0  0
 35 44  1  0  0  0  0
 36 52  1  0  0  0  0
 37 38  1  0  0  0  0
 45 46  1  0  0  0  0
 45 47  1  0  0  0  0
 45 48  1  0  0  0  0
M  CHG  1   1   0
M  END

 Bond Distances (Angstroems)
 ---------------------------
C1-C2=1.4371         C1-C3=1.4357         C1-C4=1.4056         C2-C1=1.4371         C2-C5=1.4188         C2-C11=1.4030        
C3-C1=1.4357         C3-C6=1.4188         C3-C12=1.4080        C4-C1=1.4056         C4-C7=1.4193         C4-C8=1.4194         
C5-C2=1.4188         C5-C9=1.4173         C5-C13=1.4067        C6-C3=1.4188         C6-C10=1.4192        C6-C14=1.4057        
C7-C4=1.4193         C7-C9=1.3562         C7-H19=1.0808        C8-C4=1.4194         C8-C10=1.3552        C8-H20=1.0808        
C9-C5=1.4173         C9-C7=1.3562         C9-H21=1.0805        C10-C6=1.4192        C10-C8=1.3552        C10-H22=1.0807       
C11-C2=1.4030        C11-C15=1.3850       C11-H23=1.0771       C12-C3=1.4080        C12-C16=1.3713       C12-H24=1.0784       
C13-C5=1.4067        C13-C17=1.3658       C13-H25=1.0806       C14-C6=1.4057        C14-C18=1.3694       C14-H26=1.0810       
C15-C11=1.3850       C15-C17=1.4103       C15-C27=1.4556       C16-C12=1.3713       C16-C18=1.3973       C16-H28=1.0802       
C17-C13=1.3658       C17-C15=1.4103       C17-H29=1.0775       C18-C14=1.3694       C18-C16=1.3973       C18-H30=1.0801       
H19-C7=1.0808        H20-C8=1.0808        H21-C9=1.0805        H22-C10=1.0807       H23-C11=1.0771       H24-C12=1.0784       
H25-C13=1.0806       H26-C14=1.0810       C27-C15=1.4556       C27-N36=1.3430       C27-N37=1.3428       H28-C16=1.0802       
H29-C17=1.0775       H30-C18=1.0801       C31-C32=1.5411       C31-C33=1.5335       C31-N37=1.4801       C31-C45=1.5235       
C32-C31=1.5411       C32-C34=1.5233       C32-C35=1.5338       C32-N36=1.4799       C33-C31=1.5335       C33-H49=1.0879       
C33-H50=1.0859       C33-H51=1.0883       C34-C32=1.5233       C34-H39=1.0854       C34-H40=1.0874       C34-H41=1.0863       
C35-C32=1.5338       C35-H42=1.0880       C35-H43=1.0859       C35-H44=1.0883       N36-C27=1.3430       N36-C32=1.4799       
N36-O52=1.2623       N37-C27=1.3428       N37-C31=1.4801       N37-O38=1.2616       O38-N37=1.2616       H39-C34=1.0854       
H40-C34=1.0874       H41-C34=1.0863       H42-C35=1.0880       H43-C35=1.0859       H44-C35=1.0883       C45-C31=1.5235       
C45-H46=1.0855       C45-H47=1.0874       C45-H48=1.0862       H46-C45=1.0855       H47-C45=1.0874       H48-C45=1.0862       
H49-C33=1.0879       H50-C33=1.0859       H51-C33=1.0883       O52-N36=1.2623       
 C  H  Rav=1.0835 sigma=0.0037  Rmin=1.0771  Rmax=1.0883    23
 C  C  Rav=1.4273 sigma=0.0549  Rmin=1.3552  Rmax=1.5411    27
 N  C  Rav=1.4114 sigma=0.0686  Rmin=1.3428  Rmax=1.4801     4
 O  N  Rav=1.2620 sigma=0.0003  Rmin=1.2616  Rmax=1.2623     2

 selected bond angles (degree)
 --------------------
C3-C1-C2=123.76                C4-C1-C2=117.99                C4-C1-C3=118.25                C5-C2-C1=119.09                
C11-C2-C1=122.86               C11-C2-C5=117.87               C6-C3-C1=118.93                C12-C3-C1=123.42               
C12-C3-C6=117.46               C7-C4-C1=120.04                C8-C4-C1=119.99                C8-C4-C7=119.97                
C9-C5-C2=119.65                C13-C5-C2=119.23               C13-C5-C9=121.04               C10-C6-C3=119.61               
C14-C6-C3=119.65               C14-C6-C10=120.66              C9-C7-C4=121.06                H19-C7-C4=118.13               
H19-C7-C9=120.77               C10-C8-C4=120.91               H20-C8-C4=118.19               H20-C8-C10=120.87              
C7-C9-C5=120.23                H21-C9-C5=118.60               H21-C9-C7=121.07               C8-C10-C6=120.40               
H22-C10-C6=118.51              H22-C10-C8=120.99              

 selected dihedral angles (degree)
 ---------------------------------
C5-C2-C1-C3=195.78            C5-C2-C1-C4= 15.59            C11-C2-C1-C3= 20.82           C11-C2-C1-C4=200.63           
C6-C3-C1-C2=195.22            C6-C3-C1-C4= 15.41            C12-C3-C1-C2= 20.25           C12-C3-C1-C4=200.45           
C7-C4-C1-C2=347.41            C7-C4-C1-C3=167.23            C8-C4-C1-C2=167.53            C8-C4-C1-C3=347.35            
C9-C5-C2-C1=352.69            C9-C5-C2-C11=167.90           C13-C5-C2-C1=175.82           C13-C5-C2-C11=351.03          
C10-C6-C3-C1=353.02           C10-C6-C3-C12=168.28          C14-C6-C3-C1=176.23           C14-C6-C3-C12=351.50          
C9-C7-C4-C1=  1.03            C9-C7-C4-C8=180.90            H19-C7-C4-C1=183.01           H19-C7-C4-C8=  2.88           
C10-C8-C4-C1=  1.13           C10-C8-C4-C7=181.26           H20-C8-C4-C1=183.02           H20-C8-C4-C7=  3.15           
C7-C9-C5-C2=355.58            C7-C9-C5-C13=172.40           H21-C9-C5-C2=179.20           H21-C9-C5-C13=356.01          
C5-C9-C7-C4=  7.68            C5-C9-C7-H19=185.64           H21-C9-C7-C4=183.97           H21-C9-C7-H19=  1.94          
C8-C10-C6-C3=355.35           C8-C10-C6-C14=172.10          H22-C10-C6-C3=179.08          H22-C10-C6-C14=355.83         
C6-C10-C8-C4=  7.70           C6-C10-C8-H20=185.76          H22-C10-C8-C4=183.87          H22-C10-C8-H20=  1.93         
           -------------------------------------------------
          |                Final Singlepoint                |
           -------------------------------------------------

          ...................................................
          :                      SETUP                      :
          :.................................................:
          :  # basis functions                 139          :
          :  # atomic orbitals                 139          :
          :  # shells                           81          :
          :  # electrons                       145          :
          :  max. iterations                   250          :
          :  Hamiltonian                  GFN2-xTB          :
          :  restarted?                      false          :
          :  GBSA solvation                  false          :
          :  PC potential                    false          :
          :  electronic temp.          300.0000000     K    :
          :  accuracy                    1.0000000          :
          :  -> integral cutoff          0.2500000E+02      :
          :  -> integral neglect         0.1000000E-07      :
          :  -> SCF convergence          0.1000000E-05 Eh   :
          :  -> wf. convergence          0.1000000E-03 e    :
          :  Broyden damping             0.4000000          :
          ...................................................

 iter      E             dE          RMSdq      gap      omega  full diag
   1    -80.4237277 -0.804237E+02  0.409E-05    1.54       0.0  T
   2    -80.4237277 -0.136424E-10  0.336E-05    1.54     412.2  T
   3    -80.4237277 -0.547402E-10  0.121E-05    1.54    1142.3  T

   *** convergence criteria satisfied after 3 iterations ***

         #    Occupation            Energy/Eh            Energy/eV
      -------------------------------------------------------------
         1        2.0000           -0.7174012             -19.5215
       ...           ...                  ...                  ...
        67        2.0000           -0.4029294             -10.9643
        68        2.0000           -0.3977409             -10.8231
        69        2.0000           -0.3952636             -10.7557
        70        2.0000           -0.3897767             -10.6064
        71        2.0000           -0.3737987             -10.1716
        72        2.0000           -0.3671631              -9.9910
        73        1.0000           -0.3281334              -8.9290 (HOMO)
        74                         -0.2714635              -7.3869 (LUMO)
        75                         -0.2604212              -7.0864
        76                         -0.2349504              -6.3933
        77                         -0.2211584              -6.0180
        78                         -0.1972840              -5.3684
       ...                                ...                  ...
       139                          0.7180124              19.5381
      -------------------------------------------------------------
                  HL-Gap            0.0566700 Eh            1.5421 eV
             Fermi-level           -0.3237231 Eh           -8.8090 eV

 transition dipole moment (au) for excitation:          72          73
     X       Y       Z   
   0.3105  -0.4626   0.3399  total (au/Debye):    0.653   1.659
 dE (eV)             :    1.062
 oscillator strength :  0.15672E-01

 SCC (total)                   0 d,  0 h,  0 min,  0.068 sec
 SCC setup                      ...        0 min,  0.000 sec (  0.165%)
 Dispersion                     ...        0 min,  0.000 sec (  0.444%)
 classical contributions        ...        0 min,  0.000 sec (  0.115%)
 integral evaluation            ...        0 min,  0.002 sec (  2.248%)
 iterations                     ...        0 min,  0.051 sec ( 75.199%)
 molecular gradient             ...        0 min,  0.007 sec ( 10.832%)
 printout                       ...        0 min,  0.007 sec ( 10.989%)

         :::::::::::::::::::::::::::::::::::::::::::::::::::::
         ::                     SUMMARY                     ::
         :::::::::::::::::::::::::::::::::::::::::::::::::::::
         :: total energy             -79.171794751736 Eh    ::
         :: gradient norm              0.000139149383 Eh/a0 ::
         :: HOMO-LUMO gap              1.542068410823 eV    ::
         ::.................................................::
         :: SCC energy               -80.423727717620 Eh    ::
         :: -> isotropic ES            0.067302013046 Eh    ::
         :: -> anisotropic ES          0.006094168500 Eh    ::
         :: -> anisotropic XC          0.031067557842 Eh    ::
         :: -> dispersion             -0.065305576487 Eh    ::
         :: repulsion energy           1.251556868613 Eh    ::
         :: add. restraining           0.000000000000 Eh    ::
         :: total charge               0.000000000001 e     ::
         :::::::::::::::::::::::::::::::::::::::::::::::::::::

           -------------------------------------------------
          |                Property Printout                |
           -------------------------------------------------

    * Orbital Energies and Occupations

         #    Occupation            Energy/Eh            Energy/eV
      -------------------------------------------------------------
         1        2.0000           -0.7174012             -19.5215
       ...           ...                  ...                  ...
        61        2.0000           -0.4314208             -11.7396
        62        2.0000           -0.4299440             -11.6994
        63        2.0000           -0.4250730             -11.5668
        64        2.0000           -0.4178405             -11.3700
        65        2.0000           -0.4121001             -11.2138
        66        2.0000           -0.4080025             -11.1023
        67        2.0000           -0.4029294             -10.9643
        68        2.0000           -0.3977409             -10.8231
        69        2.0000           -0.3952636             -10.7557
        70        2.0000           -0.3897767             -10.6064
        71        2.0000           -0.3737987             -10.1716
        72        2.0000           -0.3671631              -9.9910
        73        1.0000           -0.3281334              -8.9290 (HOMO)
        74                         -0.2714635              -7.3869 (LUMO)
        75                         -0.2604212              -7.0864
        76                         -0.2349504              -6.3933
        77                         -0.2211584              -6.0180
        78                         -0.1972840              -5.3684
        79                         -0.1788802              -4.8676
        80                         -0.1603358              -4.3630
        81                         -0.1214352              -3.3044
        82                         -0.0782153              -2.1283
        83                         -0.0578259              -1.5735
        84                         -0.0390988              -1.0639
       ...                                ...                  ...
       139                          0.7180124              19.5381
      -------------------------------------------------------------
                  HL-Gap            0.0566700 Eh            1.5421 eV
             Fermi-level           -0.3237231 Eh           -8.8090 eV

     #   Z          covCN         q      C6AA      α(0)
     1   6 C        2.979     0.003    27.961     8.674
     2   6 C        2.980     0.010    27.791     8.647
     3   6 C        2.981     0.010    27.778     8.645
     4   6 C        2.987     0.011    27.772     8.645
     5   6 C        2.988     0.013    27.715     8.636
     6   6 C        2.989     0.012    27.728     8.638
     7   6 C        2.918    -0.035    28.872     8.811
     8   6 C        2.917    -0.037    28.925     8.819
     9   6 C        2.915    -0.037    28.925     8.819
    10   6 C        2.916    -0.036    28.905     8.816
    11   6 C        2.924    -0.041    29.010     8.833
    12   6 C        2.919    -0.033    28.827     8.805
    13   6 C        2.920    -0.036    28.891     8.814
    14   6 C        2.922    -0.035    28.878     8.812
    15   6 C        2.970     0.012    27.745     8.640
    16   6 C        2.917    -0.030    28.741     8.791
    17   6 C        2.918    -0.035    28.878     8.812
    18   6 C        2.916    -0.029    28.736     8.790
    19   1 H        0.926     0.032     2.557     2.500
    20   1 H        0.926     0.031     2.574     2.509
    21   1 H        0.926     0.032     2.555     2.499
    22   1 H        0.926     0.031     2.571     2.508
    23   1 H        0.926     0.081     1.970     2.195
    24   1 H        0.926     0.039     2.464     2.455
    25   1 H        0.926     0.036     2.504     2.475
    26   1 H        0.926     0.030     2.583     2.513
    27   6 C        2.892     0.043    27.041     8.526
    28   1 H        0.926     0.029     2.597     2.520
    29   1 H        0.926     0.069     2.101     2.267
    30   1 H        0.926     0.029     2.598     2.521
    31   6 C        3.885     0.046    19.762     6.320
    32   6 C        3.885     0.046    19.757     6.319
    33   6 C        3.760    -0.113    22.719     6.795
    34   6 C        3.758    -0.113    22.721     6.796
    35   6 C        3.760    -0.113    22.711     6.794
    36   7 N        2.806     0.188    18.111     6.321
    37   7 N        2.806     0.190    18.083     6.316
    38   8 O        0.925    -0.440    22.462     6.356
    39   1 H        0.925     0.055     2.260     2.351
    40   1 H        0.925     0.076     2.024     2.225
    41   1 H        0.925     0.049     2.334     2.389
    42   1 H        0.925     0.044     2.393     2.419
    43   1 H        0.925     0.056     2.245     2.343
    44   1 H        0.925     0.068     2.104     2.269
    45   6 C        3.758    -0.113    22.718     6.795
    46   1 H        0.925     0.055     2.261     2.351
    47   1 H        0.925     0.076     2.023     2.224
    48   1 H        0.925     0.049     2.335     2.390
    49   1 H        0.925     0.045     2.386     2.416
    50   1 H        0.925     0.056     2.244     2.343
    51   1 H        0.925     0.068     2.103     2.268
    52   8 O        0.925    -0.441    22.491     6.360

 Mol. C6AA /au·bohr⁶  :      33119.760692
 Mol. C8AA /au·bohr⁸  :     806273.325680
 Mol. α(0) /au        :        286.094712


Wiberg/Mayer (AO) data.
largest (>0.10) Wiberg bond orders for each atom

 ---------------------------------------------------------------------------
     #   Z sym  total        # sym  WBO       # sym  WBO       # sym  WBO
 ---------------------------------------------------------------------------
     1   6 C    3.985 --     4 C    1.337     3 C    1.197     2 C    1.190
     2   6 C    3.988 --    11 C    1.331     5 C    1.261     1 C    1.190
     3   6 C    3.988 --    12 C    1.311     6 C    1.269     1 C    1.197
     4   6 C    3.990 --     1 C    1.337     7 C    1.231     8 C    1.229
     5   6 C    3.985 --    13 C    1.295     2 C    1.261     9 C    1.234
     6   6 C    3.985 --    14 C    1.306     3 C    1.269    10 C    1.228
     7   6 C    3.976 --     9 C    1.612     4 C    1.231    19 H    0.967
     8   6 C    3.987 --    10 C    1.619     4 C    1.229    20 H    0.967
     9   6 C    3.982 --     7 C    1.612     5 C    1.234    21 H    0.967
    10   6 C    3.984 --     8 C    1.619     6 C    1.228    22 H    0.967
    11   6 C    3.983 --    15 C    1.435     2 C    1.331    23 H    0.948
                            13 C    0.101
    12   6 C    3.991 --    16 C    1.522     3 C    1.311    24 H    0.961
                            14 C    0.112
    13   6 C    3.986 --    17 C    1.547     5 C    1.295    25 H    0.967
                            11 C    0.101
    14   6 C    3.986 --    18 C    1.527     6 C    1.306    26 H    0.968
                            12 C    0.112
    15   6 C    3.975 --    11 C    1.435    17 C    1.284    27 C    1.078
    16   6 C    3.987 --    12 C    1.522    18 C    1.348    28 H    0.971
    17   6 C    3.976 --    13 C    1.547    15 C    1.284    29 H    0.960
    18   6 C    3.981 --    14 C    1.527    16 C    1.348    30 H    0.971
    19   1 H    0.998 --     7 C    0.967
    20   1 H    0.998 --     8 C    0.967
    21   1 H    0.997 --     9 C    0.967
    22   1 H    0.998 --    10 C    0.967
    23   1 H    0.993 --    11 C    0.948
    24   1 H    0.998 --    12 C    0.961
    25   1 H    0.998 --    13 C    0.967
    26   1 H    0.999 --    14 C    0.968
    27   6 C    3.943 --    37 N    1.252    36 N    1.251    15 C    1.078
                            38 O    0.141    52 O    0.140
    28   1 H    0.999 --    16 C    0.971
    29   1 H    0.994 --    17 C    0.960
    30   1 H    0.998 --    18 C    0.971
    31   6 C    3.967 --    45 C    0.998    33 C    0.981    32 C    0.959
                            37 N    0.914
    32   6 C    3.966 --    34 C    0.998    35 C    0.981    31 C    0.959
                            36 N    0.914
    33   6 C    3.988 --    49 H    0.983    31 C    0.981    50 H    0.981
                            51 H    0.980
    34   6 C    3.988 --    32 C    0.998    41 H    0.982    39 H    0.981
                            40 H    0.977
    35   6 C    3.989 --    42 H    0.984    32 C    0.981    43 H    0.981
                            44 H    0.980
    36   7 N    3.708 --    52 O    1.305    27 C    1.251    32 C    0.914
    37   7 N    3.709 --    38 O    1.307    27 C    1.252    31 C    0.914
    38   8 O    1.741 --    37 N    1.307    27 C    0.141
    39   1 H    0.997 --    34 C    0.981
    40   1 H    0.994 --    34 C    0.977
    41   1 H    0.997 --    34 C    0.982
    42   1 H    0.998 --    35 C    0.984
    43   1 H    0.996 --    35 C    0.981
    44   1 H    0.995 --    35 C    0.980
    45   6 C    3.988 --    31 C    0.998    48 H    0.982    46 H    0.981
                            47 H    0.977
    46   1 H    0.997 --    45 C    0.981
    47   1 H    0.994 --    45 C    0.977
    48   1 H    0.997 --    45 C    0.982
    49   1 H    0.998 --    33 C    0.983
    50   1 H    0.996 --    33 C    0.981
    51   1 H    0.995 --    33 C    0.980
    52   8 O    1.743 --    36 N    1.305    27 C    0.140
 ---------------------------------------------------------------------------

Topologies differ in bond orders
Writing corrected topology to xtbtopo.mol

molecular dipole:
                 x           y           z       tot (Debye)
 q only:       -1.014      -0.484      -0.081
   full:       -1.013      -0.492      -0.104       2.875
molecular quadrupole (traceless):
                xx          xy          yy          xz          yz          zz
 q only:       11.881      22.024       2.322      -4.517       7.901     -14.203
  q+dip:       17.024      22.739       5.656      -7.336       6.658     -22.680
   full:       13.409      22.966       2.520      -6.603       9.318     -15.929

           -------------------------------------------------
          |                Geometry Summary                 |
           -------------------------------------------------

      molecular mass/u    :      383.4632510
   center of mass at/Å    :       -0.7007792      -0.6466227       0.1810007
  moments of inertia/u·Å² :        0.1634039E+04   0.4641034E+04   0.5866641E+04
rotational constants/cm⁻¹ :        0.1031654E-01   0.3632301E-02   0.2873473E-02

 * 52 selected distances

     #   Z          #   Z                                           value/Å
     1   6 C        4   6 C                                       1.4056278
     2   6 C        5   6 C                                       1.4188466
     3   6 C        6   6 C                                       1.4187944
     4   6 C        7   6 C                                       1.4192503
     4   6 C        8   6 C                                       1.4193748
     5   6 C        9   6 C                                       1.4172566
     7   6 C        9   6 C                                       1.3562256
     6   6 C       10   6 C                                       1.4191797
     8   6 C       10   6 C                                       1.3551558
     2   6 C       11   6 C                                       1.4030018
     3   6 C       12   6 C                                       1.4080447
     5   6 C       13   6 C                                       1.4066816
     6   6 C       14   6 C                                       1.4057009
    11   6 C       15   6 C                                       1.3850032
    12   6 C       16   6 C                                       1.3712792
    13   6 C       17   6 C                                       1.3658050
    15   6 C       17   6 C                                       1.4102668
    14   6 C       18   6 C                                       1.3693693
    16   6 C       18   6 C                                       1.3973058
     7   6 C       19   1 H                                       1.0808315
     8   6 C       20   1 H                                       1.0807967
     9   6 C       21   1 H                                       1.0805300
    10   6 C       22   1 H                                       1.0806642
    11   6 C       23   1 H                                       1.0770649 (min)
    12   6 C       24   1 H                                       1.0783563
    13   6 C       25   1 H                                       1.0805825
    14   6 C       26   1 H                                       1.0809691
    16   6 C       28   1 H                                       1.0802383
    17   6 C       29   1 H                                       1.0774691
    18   6 C       30   1 H                                       1.0801107
    31   6 C       32   6 C                                       1.5411165 (max)
    31   6 C       33   6 C                                       1.5334922
    32   6 C       34   6 C                                       1.5233315
    32   6 C       35   6 C                                       1.5337509
    27   6 C       36   7 N                                       1.3429726
    32   6 C       36   7 N                                       1.4799168
    27   6 C       37   7 N                                       1.3427957
    31   6 C       37   7 N                                       1.4800831
    37   7 N       38   8 O                                       1.2616191
    34   6 C       39   1 H                                       1.0854052
    34   6 C       40   1 H                                       1.0874025
    34   6 C       41   1 H                                       1.0862861
    35   6 C       42   1 H                                       1.0880022
    35   6 C       43   1 H                                       1.0859264
    35   6 C       44   1 H                                       1.0882870
    31   6 C       45   6 C                                       1.5235201
    45   6 C       46   1 H                                       1.0854560
    45   6 C       47   1 H                                       1.0873878
    45   6 C       48   1 H                                       1.0862356
    33   6 C       49   1 H                                       1.0879409
    33   6 C       50   1 H                                       1.0859337
    33   6 C       51   1 H                                       1.0882648
Note: The following floating-point exceptions are signalling: IEEE_UNDERFLOW_FLAG
normal termination of xtb

 * 4 distinct bonds (by element types)

   Z      Z             #   av. dist./Å        max./Å        min./Å
   1 H    6 C          23     1.0834844     1.0882870     1.0770649
   6 C    6 C          24     1.4253075     1.5411165     1.3551558
   6 C    7 N           4     1.4114420     1.4800831     1.3427957
   7 N    8 O           1     1.2616191     1.2616191     1.2616191


optimized geometry written to: xtbopt.mol


           -------------------------------------------------
          | TOTAL ENERGY              -79.171794751736 Eh   |
          | GRADIENT NORM               0.000139149383 Eh/α |
          | HOMO-LUMO GAP               1.542068410823 eV   |
           -------------------------------------------------
########################################################################
[WARNING] Runtime exception occurred
-2- restart_readRestart: Multiplicity missmatch in restart file.
-1- restart_readRestart: Number of electron missmatch in restart file.
########################################################################

------------------------------------------------------------------------
 * finished run on 2024/11/14 at 10:57:26.597     
------------------------------------------------------------------------
 total:
 * wall-time:     0 d,  0 h,  0 min,  3.639 sec
 *  cpu-time:     0 d,  0 h,  0 min, 11.212 sec
 * ratio c/w:     3.081 speedup
 SCF:
 * wall-time:     0 d,  0 h,  0 min,  0.382 sec
 *  cpu-time:     0 d,  0 h,  0 min,  1.371 sec
 * ratio c/w:     3.591 speedup
 ANC optimizer:
 * wall-time:     0 d,  0 h,  0 min,  3.227 sec
 *  cpu-time:     0 d,  0 h,  0 min,  9.827 sec
 * ratio c/w:     3.045 speedup

