52
 energy: -78.717469952021 gnorm: 0.191163016526 xtb: 6.6.1 (8d0f1dd)
C            0.99240000000000        1.67300000000000        0.16710000000000
C            1.04420000000000        0.22200000000000        0.19880000000000
C           -0.19430000000000        2.50240000000000        0.30170000000000
C            2.23830000000000        2.35630000000000       -0.00750000000000
C            2.30110000000000       -0.43490000000000        0.28560000000000
C           -0.10400000000000        3.90350000000000        0.03580000000000
C            3.45450000000000        1.66580000000000        0.04380000000000
C            2.28230000000000        3.73690000000000       -0.23100000000000
C            3.48680000000000        0.29650000000000        0.24040000000000
C            1.12340000000000        4.49030000000000       -0.26100000000000
C           -0.09040000000000       -0.61700000000000        0.06890000000000
C           -1.45570000000000        2.04590000000000        0.78090000000000
C            2.37150000000000       -1.83110000000000        0.38740000000000
C           -1.23940000000000        4.73140000000000        0.11040000000000
C           -0.04180000000000       -2.02350000000000        0.14900000000000
C           -2.56300000000000        2.88390000000000        0.87550000000000
C            1.21810000000000       -2.61080000000000        0.34510000000000
C           -2.46540000000000        4.21660000000000        0.51370000000000
H            4.39630000000000        2.19560000000000       -0.05000000000000
H            3.22750000000000        4.24200000000000       -0.39750000000000
H            4.44880000000000       -0.20020000000000        0.29670000000000
H            1.19730000000000        5.55530000000000       -0.45080000000000
H           -1.02350000000000       -0.19450000000000       -0.14240000000000
H           -1.64150000000000        1.07100000000000        1.17580000000000
H            3.33020000000000       -2.32820000000000        0.48200000000000
H           -1.17330000000000        5.78900000000000       -0.11470000000000
C           -1.30920000000000       -2.86210000000000        0.06690000000000
H           -3.50080000000000        2.49210000000000        1.25050000000000
H            1.34900000000000       -3.67680000000000        0.41040000000000
H           -3.33210000000000        4.85940000000000        0.59100000000000
C           -2.72670000000000       -4.71510000000000        0.32580000000000
C           -3.50650000000000       -3.44850000000000       -0.22550000000000
C           -2.50820000000000       -5.80760000000000       -0.74070000000000
C           -4.36760000000000       -3.73690000000000       -1.48030000000000
C           -4.42590000000000       -2.77590000000000        0.82640000000000
N           -2.43250000000000       -2.50190000000000       -0.47040000000000
N           -1.43360000000000       -4.15610000000000        0.63100000000000
O           -0.45420000000000       -4.84610000000000        1.23090000000000
H           -3.76860000000000       -4.12660000000000       -2.32660000000000
H           -4.86540000000000       -2.80910000000000       -1.83630000000000
H           -5.16010000000000       -4.47630000000000       -1.22990000000000
H           -3.84350000000000       -2.48590000000000        1.72790000000000
H           -5.25780000000000       -3.44570000000000        1.12740000000000
H           -4.87290000000000       -1.84460000000000        0.41440000000000
C           -3.36630000000000       -5.37290000000000        1.56570000000000
H           -3.45430000000000       -4.65880000000000        2.40960000000000
H           -2.73580000000000       -6.21400000000000        1.92520000000000
H           -4.37220000000000       -5.77140000000000        1.31440000000000
H           -2.06430000000000       -5.37220000000000       -1.61150000000000
H           -3.44930000000000       -6.24520000000000       -1.00090000000000
H           -1.85950000000000       -6.56330000000000       -0.34950000000000
O           -2.86750000000000       -1.39480000000000       -0.89670000000000
52
 energy: -78.746437820229 gnorm: 0.094977986189 xtb: 6.6.1 (8d0f1dd)
C            0.98003640581557        1.66576212790997        0.16593792453323
C            1.02250225277843        0.21475378302581        0.19271980195879
C           -0.20067599609675        2.49304611808783        0.30858760000832
C            2.22764499050716        2.34794108048541       -0.00705558469453
C            2.28735080722847       -0.43912516147623        0.28743449046653
C           -0.11054544888580        3.89413119165238        0.03490399328606
C            3.45288712646829        1.65156468077848        0.04649519124845
C            2.27481640496737        3.73706557991833       -0.23267285163341
C            3.48649863536510        0.30078632242335        0.23946584979423
C            1.13064186928296        4.48553392682926       -0.26196114506632
C           -0.10794418727597       -0.62397314502953        0.06642789673189
C           -1.45172047165343        2.04337022895604        0.78766034134908
C            2.34816698765549       -1.83845428643282        0.38292545667859
C           -1.24575742540641        4.72160400695383        0.11426214909960
C           -0.04704671904461       -2.02367705847237        0.15789975034882
C           -2.55534523996202        2.87934426563698        0.87394720160934
C            1.21128656696421       -2.61933357895649        0.33910535059735
C           -2.46544095550625        4.21605174905172        0.51488319314686
H            4.38367442342390        2.19324681236122       -0.05168685991024
H            3.22517024270400        4.22685742501837       -0.39405064219745
H            4.44080919606624       -0.20269359624583        0.30203259668201
H            1.19395523821201        5.54756666241296       -0.45437074815526
H           -1.05562647411344       -0.18813722946797       -0.15952041936440
H           -1.61045242757878        1.05523613686721        1.17783271587954
H            3.30976328489818       -2.32278871581828        0.48066692767466
H           -1.16441121041193        5.77434365270998       -0.11786583375477
C           -1.28933060397039       -2.85183278745771        0.08497920119686
H           -3.49030878443135        2.48715308154177        1.24716588969442
H            1.33001760768103       -3.68713607540418        0.41744178037199
H           -3.33000545564621        4.85925038565076        0.58658213011668
C           -2.73003337764439       -4.70368951149087        0.32877919947001
C           -3.51648482125705       -3.46023503965475       -0.21213914946367
C           -2.50850316400675       -5.79473446682855       -0.73906237579461
C           -4.35360336493851       -3.73116163720509       -1.47290638984644
C           -4.42391747401437       -2.78633439748440        0.83549838882127
N           -2.44329572848080       -2.48360052771275       -0.43997096027801
N           -1.42650094448659       -4.12622693595662        0.61507322785392
O           -0.50600060390444       -4.78370960564362        1.19889919673444
H           -3.76449114967318       -4.11489992422984       -2.30772171398645
H           -4.84174598623713       -2.81268110271981       -1.81146825741242
H           -5.13586328610250       -4.45656998231444       -1.23330867974156
H           -3.85597986270655       -2.49869175604482        1.72617266377276
H           -5.24436488516615       -3.44350150409891        1.12395715982455
H           -4.85213092194318       -1.87270312716671        0.40822927924850
C           -3.35379951563540       -5.36298901882925        1.56701196108065
H           -3.45076188837763       -4.66474133260401        2.40027569181572
H           -2.73121091321814       -6.19558113900557        1.90652431858472
H           -4.34189420392330       -5.75836416410420        1.31807033020837
H           -2.05381415469670       -5.37360210641550       -1.62675685953188
H           -3.45399902227564       -6.25002236651216       -0.99966826462269
H           -1.85197586455890       -6.55654350845419       -0.33837705355593
O           -2.80563950678780       -1.38597442903419       -0.92438506087812
52
 energy: -78.755405497172 gnorm: 0.032041623471 xtb: 6.6.1 (8d0f1dd)
C            0.96945156248039        1.65828965924366        0.16476891696636
C            1.00113214585553        0.20739683061224        0.18813333145613
C           -0.20675348370994        2.48424799113389        0.31259043660865
C            2.21354525250485        2.33476774776443       -0.00751474301960
C            2.26799282287086       -0.44695954412767        0.28922525825250
C           -0.11693552283542        3.88304415039854        0.03276244765975
C            3.44488498244720        1.63271435810606        0.04735509703626
C            2.26618188040871        3.72972187278470       -0.23333511862956
C            3.47764425160317        0.29575032559444        0.24176771562666
C            1.13368161787402        4.47639827154264       -0.26588084564557
C           -0.12675544797665       -0.62837346025594        0.05758727065177
C           -1.44936545937750        2.03960353785040        0.79849397880267
C            2.32144326583791       -1.84687443647236        0.38267810703785
C           -1.25155328666214        4.70844472255511        0.11473771238010
C           -0.06155689915661       -2.02106935580018        0.16444207884510
C           -2.55053061476158        2.87023519390928        0.87809062203816
C            1.19618011754033       -2.62642047977472        0.34691677363408
C           -2.46782593683158        4.20904666730295        0.51354898646651
H            4.36376367621208        2.19152920011049       -0.05215076612506
H            3.22613582991573        4.19867297931293       -0.39030076187312
H            4.42171653337986       -0.22210945075114        0.31418432452301
H            1.18205982011818        5.53699479296098       -0.46099715939083
H           -1.07620201730580       -0.18306172070854       -0.19233750409515
H           -1.57053101954907        1.04472000498718        1.19642411947304
H            3.28864666985599       -2.31797886488895        0.47730369460061
H           -1.15150456146437        5.75704506423297       -0.12505259787183
C           -1.27444520722091       -2.84320416691228        0.08815987092781
H           -3.48393281562193        2.47698330573046        1.24970563105142
H            1.30000023053761       -3.69624464034625        0.42534280472102
H           -3.33135643279667        4.85177118474827        0.58027780640905
C           -2.73227644000949       -4.68496369048365        0.32137513123124
C           -3.52554776935273       -3.46451904760933       -0.19975802237309
C           -2.49965977091919       -5.77887038298020       -0.73612994355653
C           -4.34324526056573       -3.71524952333357       -1.46435863594050
C           -4.42774086804786       -2.79329845499880        0.84536642633708
N           -2.45418287714428       -2.46903005429174       -0.43235754762362
N           -1.41148950781563       -4.09739021768907        0.59527913532698
O           -0.55351787779374       -4.72809719697077        1.17725561379716
H           -3.74636914405619       -4.09258922287944       -2.28558674368397
H           -4.81634063012524       -2.79507008269389       -1.78955591837942
H           -5.12100264897059       -4.43603040447295       -1.23705383035310
H           -3.86774259105352       -2.51382435742858        1.73227078249042
H           -5.24469810815684       -3.44422255245538        1.12402289233664
H           -4.84027452264267       -1.88806507772736        0.40770231274569
C           -3.32805201423320       -5.34713048795922        1.56564232841436
H           -3.42921896205614       -4.65814154056256        2.39469471876415
H           -2.70358590680724       -6.17389578145086        1.88708763185913
H           -4.30734424628095       -5.74276749532037        1.31836488492397
H           -2.03837887508498       -5.37709195767248       -1.63697817584630
H           -3.44341449366006       -6.25100210829336       -0.99676873034046
H           -1.83906167388000       -6.54122426799780       -0.32492550547574
O           -2.74746776551613       -1.38170783557224       -0.94961629317189
52
 energy: -78.757475359156 gnorm: 0.014361488837 xtb: 6.6.1 (8d0f1dd)
C            0.96593366687027        1.65248130189677        0.16288102448657
C            0.99249378727012        0.20401725393489        0.18422097678738
C           -0.20831039796045        2.47667981929802        0.31568032612202
C            2.20724528016533        2.32384959452207       -0.01013952530803
C            2.25475709516691       -0.45512075147759        0.29137918030131
C           -0.12070950584518        3.87219238362015        0.02946863855976
C            3.43765158488474        1.61946624552645        0.04674347288325
C            2.26204531604726        3.71846418227251       -0.23716268331687
C            3.46695481937747        0.28257647411524        0.24653656846030
C            1.12955432215726        4.46544754270757       -0.27352994534969
C           -0.13749109711290       -0.62311536338333        0.04200532631243
C           -1.44490260906469        2.02907692520099        0.81468833060487
C            2.30573189997585       -1.85450414432030        0.38645530915656
C           -1.25715744803398        4.69368082770084        0.11065752997966
C           -0.07367406394493       -2.01285605403753        0.15865880691492
C           -2.54898673933359        2.85454331060878        0.88927177242793
C            1.17885699395936       -2.62831725528664        0.35195202949345
C           -2.47161939120659        4.19174929429497        0.51288669548146
H            4.35347219517968        2.18252779666664       -0.05299201841390
H            3.22610362359223        4.17902679148409       -0.39283239240042
H            4.40560551725424       -0.24420141796708        0.32678880734611
H            1.17161666578588        5.52544139693245       -0.47333612872709
H           -1.08237854922015       -0.17483467244813       -0.22165607533856
H           -1.54531964910086        1.03578403290115        1.22377576955166
H            3.27279008230086       -2.32509069464151        0.48007263695015
H           -1.15420012779342        5.74054146436376       -0.13461480422705
C           -1.28031941323892       -2.83001266908745        0.08607763758014
H           -3.48047400307252        2.46064650729739        1.26514449368616
H            1.27017681579206       -3.69897703502768        0.43821371853796
H           -3.33742761491931        4.83191684459504        0.57492773041365
C           -2.73246080075250       -4.66959904305842        0.31345984766513
C           -3.52923075112908       -3.45365658159847       -0.19896616375528
C           -2.48645356508712       -5.76371947118534       -0.73805894799581
C           -4.33818277342162       -3.69492224537120       -1.46770536524418
C           -4.43213134717107       -2.79337336797960        0.85178948957914
N           -2.46072569744852       -2.45714668693080       -0.44203353686322
N           -1.40974417046838       -4.07960848556628        0.59601692822494
O           -0.55807486142023       -4.71361944327397        1.20470779252400
H           -3.72948519793252       -4.06550284201769       -2.28488234556817
H           -4.80199776726802       -2.76609926374649       -1.78519064109569
H           -5.12106990762096       -4.41631344761284       -1.25426336450174
H           -3.87700533666503       -2.52355002873800        1.74647523114792
H           -5.25206561092446       -3.44792257912722        1.12135736025533
H           -4.84223199041359       -1.88486078181696        0.41843235328472
C           -3.30413561623189       -5.33406361917826        1.56577223584301
H           -3.39915714975651       -4.64508572375835        2.39723156769809
H           -2.66282120664468       -6.15422617348027        1.87555286054022
H           -4.28346442256583       -5.73933338120776        1.33001291286832
H           -2.02409403634384       -5.36778235208838       -1.64054979152893
H           -3.42450391563930       -6.24655395612550       -0.99964614608496
H           -1.82212474114910       -6.51758836857984       -0.31742920469215
O           -2.73225818987808       -1.37765208982088       -0.98140628125691
52
 energy: -78.758813472345 gnorm: 0.007733303937 xtb: 6.6.1 (8d0f1dd)
C            0.96674321469110        1.64595488362631        0.16176701419931
C            0.98685864040677        0.20151637860868        0.17951057478619
C           -0.20734559580114        2.46474564985103        0.32116421636405
C            2.20484231398613        2.31164023882981       -0.01391957646846
C            2.24190391868134       -0.46453246110325        0.29534532249310
C           -0.12575833340571        3.85523373599777        0.02288949076211
C            3.43332375698257        1.60347184933879        0.04672238099248
C            2.25825524209116        3.70531961483221       -0.24622816350585
C            3.45672727443407        0.26649994552852        0.25568783775918
C            1.12278325952800        4.44920352567380       -0.28860109766786
C           -0.14869775186869       -0.61091935197752        0.02253940779695
C           -1.43474208877037        2.00916702354012        0.83993356957192
C            2.28835595935633       -1.86362094047007        0.39405084641749
C           -1.26834739678014        4.66811320809804        0.10168795046188
C           -0.08998475759241       -1.99771931569783        0.15230653351496
C           -2.54488181067608        2.82538616845175        0.90902301164323
C            1.15554836444790       -2.62658379217250        0.36124761604811
C           -2.47785919729115        4.15868609604508        0.51214913231897
H            4.34678421336209        2.16872571441484       -0.05554658233132
H            3.22523471504966        4.15835295671167       -0.40260206462245
H            4.38773327635587       -0.27201964338845        0.34587856314146
H            1.15549031713200        5.50799414367201       -0.49654926098170
H           -1.08511797640310       -0.15628242718856       -0.25771323774784
H           -1.50436575159517        1.01914990978822        1.26491990613926
H            3.25346095047154       -2.33679763372108        0.49080727623769
H           -1.16861688021144        5.71267035855531       -0.15375876254975
C           -1.29169631227305       -2.81158690152060        0.08652472489940
H           -3.47182917294260        2.43139194599157        1.29705400195864
H            1.22771765628343       -3.69758910629134        0.45738219537959
H           -3.34899671437962        4.79240986629790        0.56753768433821
C           -2.73285422924183       -4.65259357483179        0.30886900508526
C           -3.53474374662045       -3.44223930005780       -0.19908488116477
C           -2.46912371783698       -5.73844529300527       -0.74311757766275
C           -4.33531876175604       -3.66535834149103       -1.47592162940713
C           -4.43874922722356       -2.79068188427336        0.85617971051197
N           -2.47149714054296       -2.44514659234850       -0.45521164893377
N           -1.41382184221577       -4.05168054278844        0.60702054789719
O           -0.56687241580181       -4.68509052800835        1.23485560448558
H           -3.71361311690401       -4.02646130958335       -2.28939453076577
H           -4.78685799786672       -2.72679974145772       -1.78781988192906
H           -5.12767306061307       -4.38553518607663       -1.28794838414346
H           -3.88863174317768       -2.53816336227820        1.76087854756745
H           -5.26163060734824       -3.45052982624730        1.11308895800321
H           -4.84896557469911       -1.87365011695234        0.43873086858135
C           -3.27586851571928       -5.32256813802709        1.56880471430780
H           -3.35953406964750       -4.63091518969373        2.40106801308612
H           -2.60757682376116       -6.12732203882312        1.86734099645882
H           -4.25482490773066       -5.74654494226376        1.35818595358837
H           -2.00751069237029       -5.34005865553165       -1.64310898933993
H           -3.39745200740052       -6.23670581504732       -1.00871183577261
H           -1.79585203376254       -6.47960056070601       -0.31595036551591
O           -2.71995110102959       -1.38099070082945       -1.02706370628706
52
 energy: -78.759274107486 gnorm: 0.007987690038 xtb: 6.6.1 (8d0f1dd)
C            0.97158201862194        1.64221650761740        0.16196790173010
C            0.98869666099609        0.20015307651130        0.17790725080612
C           -0.20403588386924        2.45550447296183        0.32637094465357
C            2.20837637509535        2.30711248877850       -0.01731199170413
C            2.23999021661019       -0.46870700503874        0.30014209760992
C           -0.12987416509102        3.84261309378492        0.01667569381958
C            3.43548006556568        1.59686763519079        0.04690105161806
C            2.25602513440587        3.69987048702969       -0.25672859584328
C            3.45537944506484        0.26017179987808        0.26297160796189
C            1.11617071887623        4.43802957747035       -0.30301742900408
C           -0.15135163059686       -0.60330442553156        0.01337357736367
C           -1.42307864622978        1.99343292417975        0.86170577843479
C            2.28234275466649       -1.86779152330688        0.40241638900468
C           -1.27938637604320        4.64687488076313        0.09201953813269
C           -0.09724688654773       -1.98843842642914        0.15163849754050
C           -2.53871377963415        2.80131946266541        0.92834970320348
C            1.14442202582494       -2.62288771605492        0.36881709584363
C           -2.48260686618598        4.12991551105122        0.51267860061859
H            4.34974688332369        2.16004258711928       -0.05734114629058
H            3.22148982340237        4.15400437907067       -0.41689362079909
H            4.38311289383877       -0.28237018969850        0.35934742151581
H            1.14295990319086        5.49531361446350       -0.51963711295582
H           -1.08121162145570       -0.14471636928747       -0.27996551139492
H           -1.47364223459164        1.00837953889982        1.30049021381112
H            3.24448031857977       -2.34562233026813        0.50400252770115
H           -1.18988979230031        5.68968946721433       -0.17420528169369
C           -1.30021117204450       -2.80004554349163        0.08845216192602
H           -3.46064947065279        2.40683669911334        1.32858078943781
H            1.20637878565004       -3.69330912033123        0.47003389927992
H           -3.35943257540565        4.75637723986436        0.56330820673789
C           -2.73665109788772       -4.64226591672780        0.30812244961545
C           -3.53954100381274       -3.43238155292523       -0.20212783989034
C           -2.45861787344918       -5.71916966619920       -0.74817590918779
C           -4.33667565889101       -3.64825996944375       -1.48305796703348
C           -4.44366520361564       -2.78819942948513        0.85750760265233
N           -2.47715420459118       -2.43768427151582       -0.46298956819103
N           -1.42226797259952       -4.03534690826761        0.61583839306942
O           -0.57826558336765       -4.66583815452670        1.25243309199946
H           -3.71099730710463       -4.00423879746955       -2.29634876496884
H           -4.78106016314619       -2.70409253297863       -1.79033630628118
H           -5.13409270650346       -4.36555151927212       -1.30794232936093
H           -3.89490472394581       -2.54635328746535        1.76624616534851
H           -5.26798329787180       -3.45045021062592        1.10633190642988
H           -4.85372202781163       -1.86577757294844        0.45062537701441
C           -3.26499593764310       -5.31697819660044        1.57100091262159
H           -3.34515510886810       -4.62415417977218        2.40351584456487
H           -2.58187456585582       -6.11150044714462        1.86468622094576
H           -4.24060591320268       -5.75446012829717        1.37531590258383
H           -1.99975434581262       -5.30999466970713       -1.64402466688883
H           -3.38013749210834       -6.22637168055002       -1.01801668689220
H           -1.77701738557002       -6.45346943024892       -0.32342228578505
O           -2.71556334940646       -1.38409427201772       -1.05533180143148
52
 energy: -78.759665801976 gnorm: 0.005909982659 xtb: 6.6.1 (8d0f1dd)
C            0.98066220738678        1.63872343386519        0.16309640415900
C            0.99541211446273        0.19882337401787        0.17908978178854
C           -0.19769881475275        2.44424145525707        0.33276199136584
C            2.21577743902508        2.30559541452335       -0.02243802100108
C            2.24396618720102       -0.47144807349072        0.30756318537516
C           -0.13574733994293        3.82760710183684        0.00761328742242
C            3.44157961047055        1.59401748440353        0.04674476723711
C            2.25264203294546        3.69695314521757       -0.27308076504737
C            3.45893120723881        0.25791249032852        0.27127623937427
C            1.10614440280347        4.42581293358205       -0.32367724576761
C           -0.15001843907608       -0.59592896496326        0.01034672402406
C           -1.40513967418414        1.97323050401322        0.88718491574559
C            2.28052860766339       -1.87057768472983        0.41462109236879
C           -1.29487401175966        4.61943472177918        0.07857014116272
C           -0.10130425658526       -1.97977847009643        0.15499976660448
C           -2.52810827381235        2.77006159787216        0.95408358060770
C            1.13695089607319       -2.61761346376005        0.37918676021411
C           -2.48832162655357        4.09226962809580        0.51514468450333
H            4.35824891078421        2.15296157051414       -0.05993711710328
H            3.21371950884976        4.15771167900724       -0.44012489802644
H            4.38543825491909       -0.28493643434528        0.37395840601420
H            1.12631493736490        5.48082632665927       -0.55237198208655
H           -1.07371252533736       -0.13182192875095       -0.29110684453138
H           -1.43594529925818        0.99347511641798        1.33868560703877
H            3.23846576822981       -2.35532505626247        0.52208452607840
H           -1.22313932758688        5.65985920134571       -0.20322712887277
C           -1.30762843248501       -2.78833702942291        0.09184154132510
H           -3.44215160740063        2.37419644799631        1.37156741789022
H            1.19106399084858       -3.68731853535670        0.48470289722182
H           -3.37307601104559        4.70815045323050        0.56135566168011
C           -2.74082652292713       -4.63152026759964        0.30863946382637
C           -3.54422534842228       -3.42054358144532       -0.20572694701166
C           -2.44868345215073       -5.69666278063017       -0.75551107952351
C           -4.34114639129774       -3.63133742057367       -1.48849907994973
C           -4.44869420651942       -2.78187408098553        0.85656119306584
N           -2.48040102035422       -2.42968219500036       -0.46884653951031
N           -1.43261716188422       -4.01975807852111        0.62613255000184
O           -0.59237791814621       -4.64392083305219        1.27204026153543
H           -3.71502274655823       -3.98414996924420       -2.30269972284511
H           -4.78055362075195       -2.68365783092267       -1.79226895351241
H           -5.14136140110496       -4.34535537879023       -1.32073253328992
H           -3.90030739247688       -2.54969030878089        1.76745246041928
H           -5.27337830027648       -3.44608376578910        1.09802433616890
H           -4.85885383266292       -1.85518450420471        0.45913542367007
C           -3.26298072286213       -5.31271234551754        1.56940030649462
H           -3.34544941747962       -4.62050771879080        2.40259257157186
H           -2.56817971634843       -6.09769725716167        1.86014660410533
H           -4.23275348185474       -5.76285396168342        1.38190125178833
H           -1.99433478136187       -5.27006040259786       -1.64595992876140
H           -3.36299625959635       -6.21247320670345       -1.03128869069692
H           -1.75699795533105       -6.42533827351288       -0.33790180773735
O           -2.71223878611987       -1.38681427727750       -1.08020651657511
52
 energy: -78.759967104560 gnorm: 0.004314026476 xtb: 6.6.1 (8d0f1dd)
C            0.99000335907303        1.63572881744846        0.16442350468176
C            1.00426652815781        0.19697348926774        0.18226452040023
C           -0.19124223787152        2.43400128080133        0.33859905653805
C            2.22295882191135        2.30637074894728       -0.02827633802412
C            2.25199952266152       -0.47280586571095        0.31580050746960
C           -0.14288731425413        3.81375156744749       -0.00305162025094
C            3.44826882917871        1.59509971769421        0.04658593628869
C            2.24752484345330        3.69595048769860       -0.29145669824371
C            3.46546440767623        0.25983029421929        0.27913340806178
C            1.09437476658548        4.41496727169540       -0.34661466245927
C           -0.14440869043328       -0.59292209106237        0.01053575371049
C           -1.38626238157650        1.95647753299421        0.91335719118847
C            2.28330313076436       -1.87185916072234        0.42756211094996