      -----------------------------------------------------------      
     |                   =====================                   |     
     |                           x T B                           |     
     |                   =====================                   |     
     |                         S. Grimme                         |     
     |          Mulliken Center for Theoretical Chemistry        |     
     |                    University of Bonn                     |     
      -----------------------------------------------------------      

   * xtb version 6.6.1 (8d0f1dd) compiled by 'conda@1efc2f54142f' on 2023-08-01

   xtb is free software: you can redistribute it and/or modify it under
   the terms of the GNU Lesser General Public License as published by
   the Free Software Foundation, either version 3 of the License, or
   (at your option) any later version.
   
   xtb is distributed in the hope that it will be useful,
   but WITHOUT ANY WARRANTY; without even the implied warranty of
   MERCHANTABILITY or FITNESS FOR A PARTICULAR PURPOSE.  See the
   GNU Lesser General Public License for more details.
   
   Cite this work as:
   * C. Bannwarth, E. Caldeweyher, S. Ehlert, A. Hansen, P. Pracht,
     J. Seibert, S. Spicher, S. Grimme, WIREs Comput. Mol. Sci., 2020, 11,
     e01493. DOI: 10.1002/wcms.1493
   
   for GFN2-xTB:
   * C. Bannwarth, S. Ehlert and S. Grimme., J. Chem. Theory Comput., 2019,
     15, 1652-1671. DOI: 10.1021/acs.jctc.8b01176
   for GFN1-xTB:
   * S. Grimme, C. Bannwarth, P. Shushkov, J. Chem. Theory Comput., 2017,
     13, 1989-2009. DOI: 10.1021/acs.jctc.7b00118
   for GFN0-xTB:
   * P. Pracht, E. Caldeweyher, S. Ehlert, S. Grimme, ChemRxiv, 2019, preprint.
     DOI: 10.26434/chemrxiv.8326202.v1
   for GFN-FF:
   * S. Spicher and S. Grimme, Angew. Chem. Int. Ed., 2020, 59, 15665-15673.
     DOI: 10.1002/anie.202004239
   
   for ALPB and GBSA implicit solvation:
   * S. Ehlert, M. Stahn, S. Spicher, S. Grimme, J. Chem. Theory Comput.,
     2021, 17, 4250-4261. DOI: 10.1021/acs.jctc.1c00471
   
   for DFT-D4:
   * E. Caldeweyher, C. Bannwarth and S. Grimme, J. Chem. Phys., 2017,
     147, 034112. DOI: 10.1063/1.4993215
   * E. Caldeweyher, S. Ehlert, A. Hansen, H. Neugebauer, S. Spicher,
     C. Bannwarth and S. Grimme, J. Chem. Phys., 2019, 150, 154122.
     DOI: 10.1063/1.5090222
   * E. Caldeweyher, J.-M. Mewes, S. Ehlert and S. Grimme, Phys. Chem. Chem. Phys.
     2020, 22, 8499-8512. DOI: 10.1039/D0CP00502A
   
   for sTDA-xTB:
   * S. Grimme and C. Bannwarth, J. Chem. Phys., 2016, 145, 054103.
     DOI: 10.1063/1.4959605
   
   in the mass-spec context:
   * V. Asgeirsson, C. Bauer and S. Grimme, Chem. Sci., 2017, 8, 4879.
     DOI: 10.1039/c7sc00601b
   * J. Koopman and S. Grimme, ACS Omega 2019, 4, 12, 15120-15133.
     DOI: 10.1021/acsomega.9b02011
   
   for metadynamics refer to:
   * S. Grimme, J. Chem. Theory Comput., 2019, 155, 2847-2862
     DOI: 10.1021/acs.jctc.9b00143
   
   for SPH calculations refer to:
   * S. Spicher and S. Grimme, J. Chem. Theory Comput., 2021, 17, 1701-1714
     DOI: 10.1021/acs.jctc.0c01306
   
   with help from (in alphabetical order)
   P. Atkinson, C. Bannwarth, F. Bohle, G. Brandenburg, E. Caldeweyher
   M. Checinski, S. Dohm, S. Ehlert, S. Ehrlich, I. Gerasimov, C. Hölzer
   A. Katbashev, J. Koopman, C. Lavigne, S. Lehtola, F. März, M. Müller,
   F. Musil, H. Neugebauer, J. Pisarek, C. Plett, P. Pracht, F. Pultar,
   J. Seibert, P. Shushkov, S. Spicher, M. Stahn, M. Steiner, T. Strunk,
   J. Stückrath, T. Rose, and J. Unsleber
   
 * started run on 2025/03/13 at 18:03:06.130     

           -------------------------------------------------
          |                Calculation Setup                |
           -------------------------------------------------

          program call               : xtb scoord.19 --md --gfnff --input md_settings.inp
          hostname                   : cx3-15-4.cx3.hpc.ic.ac.uk
          coordinate file            : scoord.19
          omp threads                :                     8

   ID    Z sym.   atoms
    1    6 C      1-9, 11, 12, 14-21, 24, 25, 34, 35, 38, 41-43, 59-67, 69,
                  70, 72-79, 82, 83, 92, 93, 96, 99-101
    2    7 N      10, 13, 68, 71
    3    8 O      22, 23, 32, 33, 36, 37, 39, 40, 80, 81, 90, 91, 94, 95, 97,
                  98
    4    1 H      26-31, 44-58, 84-89, 102-116

molecular fragmentation (1/2 indicates fragments):
111111111111111111111111111111111111111111111111111111111122222222222222
22222222222222222222222222222222222222222222
# atoms in fragment 1/2:    58    58
 fragment masses (1/2) :      501.47      501.47
CMA distance (Bohr)    :   6.577
constraining FC (au)   :  0.0500
          GFN-FF topology read from file successfully!
           ------------------------------------------------- 
          |                   G F N - F F                   |
          |          A general generic force-field          |
          |                  Version 1.0.3                  | 
           ------------------------------------------------- 
          Number of HB bonds (bound hydrogen)     21147
          Number of HB bonds (unbound hydrogen)   544
          Number of XB bonds                      0

 E+G (total)                   0 d,  0 h,  0 min,  0.099 sec
 distance/D3 list               ...        0 min,  0.000 sec (  0.059%)
 non bonded repulsion           ...        0 min,  0.000 sec (  0.441%)
 dCN                            ...        0 min,  0.001 sec (  0.597%)
 EEQ energy and q               ...        0 min,  0.092 sec ( 93.218%)
 D3                             ...        0 min,  0.001 sec (  1.046%)
 EEQ gradient                   ...        0 min,  0.000 sec (  0.105%)
 bonds                          ...        0 min,  0.000 sec (  0.441%)
 bend and torsion               ...        0 min,  0.000 sec (  0.144%)
 bonded ATM                     ...        0 min,  0.000 sec (  0.116%)
 HB/XB (incl list setup)        ...        0 min,  0.004 sec (  3.803%)

         :::::::::::::::::::::::::::::::::::::::::::::::::::::
         ::                     SUMMARY                     ::
         :::::::::::::::::::::::::::::::::::::::::::::::::::::
         :: total energy             -22.927865548582 Eh    ::
         :: gradient norm              0.329713434751 Eh/a0 ::
         ::.................................................::
         :: bond energy              -23.609151880955 Eh    ::
         :: angle energy               0.099180172486 Eh    ::
         :: torsion energy             0.076468903315 Eh    ::
         :: repulsion energy           1.653045762620 Eh    ::
         :: electrostat energy        -0.948161601361 Eh    ::
         :: dispersion energy         -0.162379140635 Eh    ::
         :: HB energy                 -0.006573648220 Eh    ::
         :: XB energy                  0.000000000000 Eh    ::
         :: bonded atm energy         -0.030294115832 Eh    ::
         :: external energy            0.000000000000 Eh    ::
         :: add. restraining           0.000000000000 Eh    ::
         :: total charge              -0.000000000000 e     ::
         :::::::::::::::::::::::::::::::::::::::::::::::::::::

           -------------------------------------------------
          |                Property Printout                |
           -------------------------------------------------

           -------------------------------------------------
          | TOTAL ENERGY              -22.927865548582 Eh   |
          | GRADIENT NORM               0.329713434751 Eh/α |
           -------------------------------------------------
           ------------------------------------------------- 
          |               Molecular Dynamics                |
           ------------------------------------------------- 
 trajectories on xtb.trj or xtb.trj.<n>

 MD time /ps        :   10.00
 dt /fs             :    2.00
 SCC accuracy       :    2.00
 temperature /K     :  650.00
 max steps          :  5000
 block length (av.) :  2500
 dumpstep(trj) /fs  :  500.00   250
 dumpstep(coords)/fs: 1000.00   500
 H atoms mass (amu) :     4
Note: The following floating-point exceptions are signalling: IEEE_UNDERFLOW_FLAG IEEE_DENORMAL
normal termination of xtb
 # deg. of freedom  :   348
 SHAKE off
 Berendsen THERMOSTAT on
         time (ps)    <Epot>      Ekin   <T>   T     Etot
      0    0.00      0.00000   0.7472    0.    0.   -22.18066
est. speed in wall clock h for 100 ps :  0.05
    200    0.40    -22.55525   0.4478  819.  813.   -22.24684
    400    0.80    -22.61757   0.4294  783.  779.   -22.27879
    600    1.20    -22.64561   0.4022  762.  730.   -22.31712
    800    1.60    -22.65990   0.3701  741.  672.   -22.35940
   1000    2.00    -22.66799   0.3618  725.  657.   -22.33187
   1200    2.40    -22.67448   0.3578  715.  649.   -22.35478
   1400    2.80    -22.68021   0.3566  708.  647.   -22.34793
   1600    3.20    -22.68477   0.3741  702.  679.   -22.33083
   1800    3.60    -22.68773   0.3862  696.  701.   -22.35956
   2000    4.00    -22.69063   0.3885  692.  705.   -22.34518
   2200    4.40    -22.69301   0.3593  688.  652.   -22.34074
   2400    4.80    -22.69457   0.3512  684.  637.   -22.35309
block <Epot> / <T> :     -22.70442  683.     drift:  0.99D+02   Tbath : 650.
   2600    5.20    -22.69616   0.3833  682.  696.   -22.33320
   2800    5.60    -22.69721   0.3806  679.  691.   -22.34029
   3000    6.00    -22.69801   0.3860  677.  700.   -22.36383
   3200    6.40    -22.69876   0.3542  675.  643.   -22.36225
   3400    6.80    -22.69911   0.3528  673.  640.   -22.36796
   3600    7.20    -22.69955   0.3811  672.  692.   -22.32844
   3800    7.60    -22.70003   0.3943  671.  716.   -22.36264
   4000    8.00    -22.70045   0.3562  670.  646.   -22.34762
   4200    8.40    -22.70105   0.3326  669.  604.   -22.37037
   4400    8.80    -22.70143   0.3482  669.  632.   -22.36107
   4600    9.20    -22.70176   0.3497  668.  635.   -22.34207
   4800    9.60    -22.70178   0.3664  667.  665.   -22.34445
 average properties 
 Epot               :  -22.702327209970132     
 Epot (accurate SCC):  -22.706953477239836     
 Ekin               :  0.36719605415043444     
 Etot               :  -22.335131155819695     
 T                  :   666.38765746282513     
 thermostating problem
 normal exit of md()

------------------------------------------------------------------------
 * finished run on 2025/03/13 at 18:03:25.163     
------------------------------------------------------------------------
 total:
 * wall-time:     0 d,  0 h,  0 min, 19.032 sec
 *  cpu-time:     0 d,  0 h,  2 min, 29.354 sec
 * ratio c/w:     7.847 speedup
 SCF:
 * wall-time:     0 d,  0 h,  0 min,  0.129 sec
 *  cpu-time:     0 d,  0 h,  0 min,  0.912 sec
 * ratio c/w:     7.064 speedup
 MD:
 * wall-time:     0 d,  0 h,  0 min, 18.647 sec
 *  cpu-time:     0 d,  0 h,  2 min, 28.038 sec
 * ratio c/w:     7.939 speedup

