116
 energy: -22.928061455056 gnorm: 0.329736929581 xtb: 6.6.1 (8d0f1dd)
C           -3.31122850772930        0.79849766164622       -0.92477639677520
C           -2.44380812530352       -0.12270372891954       -0.27661132624697
C           -1.41337090092821        0.39579727573559        0.56335275196199
C           -0.89266158675590        1.65801491088749        0.27377586709581
C           -1.72665675402493        2.51431363229076       -0.49448366572522
C           -2.95444148494349        2.13954154133227       -1.01494489940871
C           -0.74098268209890       -0.43411532818871        1.49825021926784
C            0.56872586496315        0.03782116815119        1.86248088067890
C            1.03782416582094        1.29402317993033        1.50887470833621
N            0.31238977034758        2.07067427098208        0.65193736800696
C           -1.29695700510141       -1.39996043042223        2.41574187746061
C           -0.38243517664656       -2.18060797534842        3.13232615520648
N            0.91308504082021       -1.90366887689689        3.30325166013478
C            1.37712470144904       -0.74872102533751        2.81811050966982
C            2.52149331701875       -0.17739833758153        3.39379298866852
C            2.95849061756259        1.02681208890480        2.95105897606587
C            2.24288949469137        1.78498308775960        2.03503020483770
C           -2.74860936222260       -1.74497937691422        2.38401158947411
C           -3.09416315450955       -2.91614440870436        3.00571134491758
C           -2.16786021984049       -3.77788778654213        3.63251872101904
C           -0.85708937311598       -3.40495313382985        3.68547234358092
O           -3.71994433332149       -0.94984598373544        1.67726658385724
O           -2.55702603277562       -1.47241711578389       -0.57241635275616
C           -3.84297843593025        3.13357444054366       -1.60938954875544
C           -2.68769581069131       -5.03867041417370        4.30484659386931
H           -1.39666850744143        3.51251503834900       -0.76806311868865
H           -4.27662633836220        0.55105838579656       -1.33106614114542
H            2.66329581305412        2.73912661909249        1.72562431984580
H            3.05775395548473       -0.69369546277216        4.16536137542516
H           -0.24710966264510       -4.12034095424229        4.22946223699121
H           -4.11477991332403       -3.04712728052358        3.03244694615357
O           -4.21824883374556        4.03433712717988       -0.87713382485991
O           -4.44510595673734        2.90643496899600       -2.81853501752979
C           -5.44216520282800        3.83300025693726       -3.02488532025093
C            4.23586651889298        1.50004220933226        3.59165660008449
O            5.05927614697201        0.66079890002952        3.91714215179376
O            4.47001334453535        2.86385149488593        3.72605651435371
C            5.79457498613219        3.08584475587818        4.15829123132174
O           -3.82227255313510       -5.27347675879771        4.16636005494405
O           -1.85023202017753       -5.79767454267276        5.06656077253571
C           -2.55119635829503       -6.86252441382958        5.62930343183426
C           -5.07197156564436       -1.42399175670916        1.58830531863830
C           -1.33089900128490       -2.23622472573986       -0.99264499351172
H           -2.54510546830388       -7.76426885143998        4.99136022291012
H           -3.57194749219491       -6.44405511486021        5.74196173723541
H           -2.09133598235598       -7.02043774843818        6.64022264233588
H            5.72707967266424        3.46798026205549        5.10135971236643
H            6.34060091246885        3.78468702308830        3.50069950143490
H            6.17933064298187        2.03010500085905        4.19342358084693
H           -0.91862729772622       -2.57650129080332       -0.01361370304871
H           -0.49769766914251       -1.60651221708571       -1.34094446550576
H           -1.52632419730509       -2.94569707152159       -1.75361447637286
H           -5.11788846557077       -2.41810833635233        1.17520213188926
H           -5.67929807973498       -0.69619639428435        1.04301666067831
H           -5.57598832326623       -1.42383358739762        2.57928294206544
H           -6.13050215934830        3.76035386975488       -2.23272855695873
H           -5.86615610071888        3.45938329385866       -4.02668959924245
H           -5.13479557532099        4.87790991548477       -2.98314551356402
C           -1.38192942069774        3.73616555005018        2.91232598411686
C           -1.84821468128685        2.59982427735607        3.49755545445181
C           -1.05946531454833        2.05730632010638        4.60922730982276
C            0.19893954712228        2.69376791964407        4.86302140881997
C            0.50425395911860        3.94630308659851        4.28768785650746
C           -0.26031777722226        4.46998310053134        3.25072669343212
C           -1.20488993561782        0.74454293276906        5.14851520323437
C           -0.06287609782692        0.02744069315890        5.60930570802864
C            1.19208754369866        0.71421540266195        5.78882868583885
N            1.19428660993148        2.06344359410476        5.62744624321596
C           -2.41361422770794        0.07928500213936        5.25249410304426
C           -2.45851584031083       -1.32662100968547        5.60237876023992
N           -1.29466212405906       -1.98318595734370        5.89916817085159
C           -0.14475655767527       -1.32117560077092        5.98824682881008
C            0.97209270935794       -1.98958449505532        6.53157704134458
C            2.21982707914082       -1.36973967291181        6.68703967237737
C            2.30561929262884       -0.09745313075593        6.26436900324455
C           -3.73018485967715        0.71367583494582        5.25810242262992
C           -4.89964478833448       -0.06184623426677        5.21204641615509
C           -4.82617965800088       -1.39228978090841        5.46901303780036
C           -3.67144193418464       -1.98914944386360        5.67265433266067
O           -3.75568638935321        2.07705011038914        5.52067969627343
O           -2.94192434743730        1.91263938797883        3.01658762327703
C            0.21273512614467        5.50086066357994        2.34765104514621
C           -6.06660304520411       -2.17604633098929        5.80641622556876
H            1.41756699010566        4.38133362238595        4.66974005703471
H           -1.82880610647429        4.11982501512100        2.06992133318584
H            3.26888037378556        0.32655662585251        6.31721410015598
H            0.87146188387207       -3.08471526305024        6.57830423410869
H           -3.67716811065157       -3.05999292755990        5.83019634570050
H           -5.77379677507622        0.43595144608221        4.71017130754348
O            1.34459852619901        5.82615848916894        2.44941456579099
O           -0.74718748219123        6.07961784856304        1.59848183464284
C           -0.21473095568964        7.24015934882472        1.05753806029483
C            3.53228080814219       -2.00967610361154        7.02506769044485
O            3.64093082622715       -3.14437803815732        7.50071391725347
O            4.56565258381079       -1.22937033368332        6.69086985080897
C            5.72579357310716       -1.80692399125161        7.22246151275881
O           -7.04801223588612       -1.95726935745904        5.14194115322235
O           -6.01514389321278       -2.93743591896022        6.94765316328794
C           -7.21292732384718       -3.62681918543340        7.15115816329978
C           -4.95459780685163        2.65960679932188        5.86868674392943
C           -3.68284113682406        2.59129188358641        2.05479246020704
H           -7.43119628931628       -4.22607794725959        6.20622607140901
H           -8.06548455146707       -2.91765848248592        7.29781126410398
H           -7.07314693247270       -4.33087306029711        7.91223421050944
H            6.57332189837178       -1.29353136199234        6.78341268688262
H            5.74663761932316       -2.84282155125561        6.88089468184451
H            5.69426191474290       -1.72781984964892        8.29460302186842
H           -4.10481209541493        3.44288266176275        2.60483747673152
H           -4.49244774344916        1.87419893016926        1.82433103764650
H           -3.18901540870812        2.85154642679373        1.06781919454921
H           -5.55414326821421        2.76698137191684        4.93950725322359
H           -4.78658370641210        3.62090640967288        6.25983200635257
H           -5.43485580473958        1.97242995129449        6.65265772412460
H            0.89164886030839        7.38838561720231        1.13776105146914
H           -0.62894889903848        8.04195665205089        1.64837664327952
H           -0.59282546386754        7.45699159724320        0.03719083132488
116
 energy: -22.853805636795 gnorm: 0.414935830133 xtb: 6.6.1 (8d0f1dd)
C           -3.07774248673705        0.69996722578099       -0.94383352537834
C           -2.18782688128824       -0.22959047102005       -0.30544869071093
C           -1.20480878577698        0.30109984048446        0.60194075437588
C           -0.92556736327417        1.64127605303130        0.51554809141768
C           -1.72145196684788        2.53524727192391       -0.22538396089003
C           -2.72136221450244        2.03141756193280       -0.98700703503430
C           -0.46469713428868       -0.41942645307318        1.61993539547043
C            0.80854777652360        0.05877894657278        1.98065849528948
C            1.05195725358738        1.40979670918652        1.63671535883972
N            0.18227150992801        2.20739363571855        0.99721878127800
C           -0.89750093277836       -1.66962658129635        2.27772378650191
C            0.10852864557500       -2.31023103373482        3.14637897914605
N            1.34045280218569       -1.85855962151454        3.31965028955162
C            1.70966837995256       -0.65217158829581        2.78612004166190
C            2.96525702796519       -0.14674053364625        2.90692487471899
C            3.28021565540212        1.16753901896597        2.42093473132558
C            2.24194162827520        1.91381064118275        1.92092203658084
C           -2.26184911449042       -2.04339033611063        2.50956933214433
C           -2.65013339179630       -3.16092670682224        3.22818399321369
C           -1.60847877214218       -3.87333083254903        3.80821735152303
C           -0.32512253825000       -3.43821877636249        3.84573779998095
O           -3.24644812796746       -1.11820977218778        2.03288915175641
O           -2.24537794251954       -1.70026246703079       -0.61497138746803
C           -3.49811977044434        2.96608468763323       -1.71854626028633
C           -2.15143128327167       -4.99967218899607        4.61471433208225
H           -1.40386988106553        3.59837639783074       -0.28475051526471
H           -3.79865921882649        0.22221558515144       -1.45416931163215
H            2.53905759192065        2.90271360142601        1.56668303519762
H            3.70757481404248       -0.62842694793032        3.51380430577445
H            0.35125012352969       -3.93004371260071        4.57476340111115
H           -3.65893693293019       -3.48186329209692        3.44482007745608
O           -3.05232033433336        4.09778003511533       -1.77760127784051
O           -4.66295126541413        2.55137536725234       -2.32616176460319
C           -5.41500944954237        3.58101248552232       -3.09788699009191
C            4.59973823875453        1.74121980414181        2.74089235415171
O            5.38215406219530        1.37840304454144        3.60544301364029
O            4.91976186319834        2.74732910905374        1.88896643058876
C            6.06827530033296        3.42554063043128        2.18124685807161
O           -3.26001388125925       -4.97048837161424        5.15637244985763
O           -1.28925131281921       -5.97737880056212        4.92333629651846
C           -1.75616984461672       -6.80365293244062        5.86231882273649
C           -4.62798751197443       -1.20457084524422        2.32100232639670
C           -1.09938512233749       -2.12202042496351       -1.33334819932346
H           -1.93786946435219       -6.45250207379567        6.88127699513247
H           -1.00768621798040       -7.69544830765989        6.00469265967412
H           -2.79648607455040       -7.02757881211840        5.64896898836002
H            6.39663472293512        3.98206536649782        1.19963506680658
H            6.89230788895934        2.61844177665457        2.43657587444085
H            5.77464991477205        4.20490290207319        2.88660285633710
H           -1.39339879941502       -2.39575593514958       -2.30945113338719
H           -0.64618214005290       -2.94887495175216       -0.71917265095171
H           -0.28012838788304       -1.39754767567874       -1.48344213713423
H           -5.18885573557310       -0.22351463385399        2.19650696175916
H           -4.70710266813496       -1.41542063933876        3.35088623199969
H           -5.05543777874779       -1.88904607055698        1.54135710802505
H           -5.41850721028129        2.97488252991704       -4.07981790567653
H           -4.66981853780827        4.37239668191845       -3.03608177758040
H           -6.29140380526382        3.93889959483060       -2.68680227161465
C           -1.96396810800052        3.73115246571143        3.26893909576401
C           -2.26117836680082        2.54780575860236        3.92785634022111
C           -1.28791201141122        1.95109171381742        4.76145805830818
C            0.00813450583590        2.50200390783213        4.72372519278578
C            0.26652627851692        3.75697298459087        4.20447134203530
C           -0.74950023546333        4.39824448895739        3.45644435039198
C           -1.41146240278598        0.69000086524253        5.43212026666062
C           -0.31076084638661       -0.15592220652215        5.64370112017638
C            0.95017312540413        0.44356785538457        5.58585246327730
N            1.08160122281819        1.74237580825538        5.27480756494808
C           -2.67699630256587        0.09566534469432        5.83443845798408
C           -2.73114228035885       -1.28928326817836        6.08799806046231
N           -1.64506415240898       -2.00853834148305        6.30987325033304
C           -0.39541167687753       -1.42922753324775        6.20453701195737
C            0.74460511815603       -1.98852915903734        6.74118237249468
C            1.94481259727975       -1.41604062190535        6.75993377888816
C            2.05785203472316       -0.12202865828842        6.22138142885920
C           -3.84522420060984        0.87033540213684        6.24160546600533
C           -5.13506071901174        0.27746320233904        6.14153397152676
C           -5.21442448590677       -1.06352083062128        5.85208421929456
C           -4.06920096893623       -1.90304092341556        6.01936395045557
O           -3.65465573982150        2.23969821912138        6.58550818493075
O           -3.45345575978816        1.96118544004705        3.61188090897414
C           -0.37253922381768        5.41430919562497        2.45507259389592
C           -6.49823837607731       -1.51867874884752        5.18013231924842
H            1.20110537740938        4.31507070214579        4.32626029252278
H           -2.52359837516521        4.01228433816529        2.42180825467872
H            3.02542358041599        0.33866650048161        6.08631542654621
H            0.76407531416709       -2.95315817272189        7.24237340689962
H           -4.17661925532628       -2.92832198895970        5.70577020520579
H           -6.04167755685907        0.81238521095990        6.16536615520377
O            0.73374604732022        5.95045980132909        2.69516231106023
O           -1.10380635148889        5.55104101859960        1.34203140291548
C           -0.43011131072104        6.47884942564866        0.55239207950183
C            3.07820000629268       -2.24402359363034        7.24788810700254
O            2.82972191574504       -3.14484144964324        8.08623021342242
O            4.36893647982412       -1.99117982474931        6.75316781995592
C            5.22047433725740       -2.58770283947443        7.62473802891145
O           -7.42905626943432       -0.66599341501193        5.16431270594239
O           -6.45679340697721       -2.75752578221562        4.59811970371262
C           -7.69964992329607       -2.98611892494644        4.07052727852057
C           -4.74659660080410        2.87571960574563        7.18728779630291
C           -4.60191057300565        2.73775701639114        3.42064137179390
H           -7.77773829607516       -3.91502997115436        3.57751643052324
H           -7.94709921964281       -2.22389197232163        3.36781655319658
H           -8.53742340874782       -2.96551407503265        4.91786317484504
H            5.31728449721464       -1.92972473021065        8.62054976425680
H            6.18183463425255       -2.69744205343743        7.04437581773014
H            4.91080675451792       -3.59841456752277        7.82808194626356
H           -4.39393067040159        3.79087242840142        3.35154092096010
H           -5.31542100567314        2.72609719683223        4.29601255660511
H           -4.92165644074829        2.23587612103299        2.49126689868921
H           -4.30827135496086        3.49996313791643        8.03875806503950
H           -5.33262578940328        2.15043431887649        7.59133433936706
H           -5.34472993456783        3.49966915524829        6.42297459066063
H           -1.25954351728682        7.00809852668379        0.19128539165950
H            0.05662746778373        5.93699061990656       -0.32124375253736
H            0.03271708075489        7.24241050134804        1.17317653225151
116
 energy: -22.882014411013 gnorm: 0.365992507108 xtb: 6.6.1 (8d0f1dd)
C           -3.18777172760135        0.68513845875267       -0.88368945175370
C           -2.24703893369742       -0.11112099535803       -0.22068127058039
C           -1.23971574922523        0.45325461938120        0.56142767868784
C           -0.83240900314905        1.85661867113656        0.31385369749013
C           -1.63018167469907        2.60173629279717       -0.50442257640376
C           -2.72958261141662        2.02490650161271       -1.05978283028343
C           -0.41635449898562       -0.32002717016738        1.49168517576265
C            0.86247538251341        0.23079226248627        1.78914217942091
C            1.25011779075462        1.50335482626101        1.32681821138816
N            0.46089787016801        2.23514888070313        0.56833084358954
C           -0.75810832224198       -1.53582241363309        2.27480896496439
C            0.21937058338481       -2.19375165586103        3.06215765181353
N            1.49855729940513       -1.80235861449950        3.08223195687185
C            1.80172153152493       -0.57740403169634        2.52620894999910
C            3.10679577938344       -0.05210232835060        2.69773140592200
C            3.42103999294213        1.23686039413833        2.21299665654720
C            2.53723812641809        2.01205432158762        1.50287649334309
C           -2.17672390423555       -1.87811753689211        2.53268895597390
C           -2.41681876731983       -3.10714262433287        3.18617625250387
C           -1.38756613760756       -3.85494873639493        3.70697999685930
C           -0.15307019102880       -3.32498190435981        3.73263761873732
O           -3.14033405967211       -0.94167628946173        2.20768014134937
O           -2.36403625421817       -1.49219206898415       -0.36138398207169
C           -3.61131492601663        2.97322494352943       -1.80625487124425
C           -1.78057762660036       -5.04653299796484        4.53070148718143
H           -1.56189753544266        3.67500053032200       -0.55380013825385
H           -4.04519106510302        0.23038354721483       -1.26990151754992
H            2.80599567192905        3.01943078858107        1.17784865001092
H            3.87443131267696       -0.49381693945358        3.43725217735909
H            0.64901084166768       -3.72737312968678        4.40872994684338
H           -3.46368780025273       -3.39178822625611        3.23674513642331
O           -3.20297235839725        4.10756985418509       -2.04086304168572
O           -4.86100730897046        2.55608698550249       -2.13289116163312
C           -5.65953631443944        3.59066084342614       -2.43714628281190
C            4.87330217350955        1.63604292289833        2.39149709317477
O            5.74507952598592        0.83026031181157        2.27576986917762
O            5.09644591585250        2.85816340695217        2.91652362250309
C            6.41367206405644        3.37283781835050        2.99881157802955
O           -2.88998883011665       -5.55270996591865        4.28852238447841
O           -0.80958319298590       -5.45478830145634        5.44440716937692
C           -1.20125108012728       -6.60044959483383        6.23790209813716
C           -4.43605397396031       -1.32833530186082        2.46371919989050
C           -1.25066659355390       -2.19023210673199       -0.72322906447857
H           -2.20369750973353       -6.28840785193371        6.43079639749312
H           -0.57249159395766       -6.60336098666068        7.11397405872862
H           -1.16078118813791       -7.51854035992807        5.55176371978291
H            6.58772834747210        3.31532014169377        4.05485399351452
H            6.39497821562392        4.37490621040599        2.66551223770307
H            7.13840851217525        2.70287790915317        2.51002622712686
H           -0.38546446919099       -1.54042990519870       -0.65258253045207
H           -1.38669938576263       -2.47303205428698       -1.76707223896406
H           -1.25241305181021       -3.13685171833655       -0.10695226666466
H           -4.84203474997450       -0.35395154918478        2.33119557890494
H           -4.50512351529965       -1.68000758071807        3.53335148040901
H           -4.79868459905159       -2.10786239422246        1.78564039103318
H           -6.64385678566370        2.99900234547045       -2.57376767213741
H           -5.20597342992058        3.86160205692188       -3.35299098082561
H           -5.66425610291549        4.42628052880727       -1.62269956812161
C           -1.64620627047196        3.54278666592398        2.94812252910404
C           -2.14517019959865        2.41141932649416        3.61768336660455
C           -1.27677341880109        1.84712584232680        4.61883872843501
C            0.04238112731024        2.39348449764955        4.85646831042192
C            0.42258318711255        3.58380683295875        4.20768336114325
C           -0.44618959341440        4.20455878471791        3.30832022068693
C           -1.60733109190668        0.73173199050583        5.46088024206616
C           -0.56374536962760       -0.00485245059756        6.03876869055196
C            0.74957270380315        0.63133051472627        6.13538533096483
N            1.02656046601396        1.85566500100391        5.57833304434169
C           -2.87906723031656        0.12021751355606        5.72014410970176
C           -2.92466292235278       -1.26219991055387        6.02090910338411
N           -1.85722507334761       -1.95344687133985        6.59067127674629
C           -0.70029623677534       -1.35806020355015        6.55326495259195
C            0.40758935764084       -2.01187995106216        7.04132275096667
C            1.72513171956794       -1.45518062838871        6.91630107326217
C            1.86731744737653       -0.21407446390462        6.44948295429977
C           -4.08005216136087        0.93355156382787        5.72484398689482
C           -5.34140766274691        0.27288827585496        5.86167862889188
C           -5.38978237285013       -1.13508372533295        5.95180225534393
C           -4.19207497050934       -1.83914189933585        6.06996828260401
O           -4.06370801288641        2.29334515618080        5.82440571172007
O           -3.32367582320906        1.77452934830125        3.37699159308518
C           -0.08489517080197        5.47486604375327        2.62623829714958
C           -6.69799497009179       -1.90188788669805        5.76919433050397
H            1.53758710812922        3.74386602864096        4.32014310772879
H           -2.17607767642036        3.95861404697735        2.15763543215809
H            2.85046661627143        0.16504869972924        6.46740936752918
H            0.33039301564610       -3.07334384090240        7.48428340873036
H           -4.26591986047407       -2.82691768586838        6.35362450622165
H           -6.24220815064753        0.74885218958318        5.65791714259723
O            0.50459606285865        6.32874127047309        3.25415479055058
O           -0.53040669477626        5.43876132416063        1.26394397843659
C           -0.26580186436539        6.72607104737471        0.86557815131395
C            2.93185869179759       -2.36296918984362        7.04027577008691
O            2.77781570513064       -3.51842134074923        6.80789485577522
O            4.14677751902841       -1.76697398584199        7.42054824422851
C            5.06982763498388       -2.78859635458989        7.63144170666084
O           -6.62118254995490       -3.08477704791432        5.58187740848488
O           -7.87690521549384       -1.24341727522661        5.72695650213648
C           -8.93826074664413       -2.15810107585171        5.45757348497319
C           -5.25491481355506        2.86339546270145        5.39367599123454
C           -4.09492657666363        2.26777947656284        2.24725381798282
H           -8.76230380198119       -3.11101301944458        5.99530550199176
H           -9.00991841104668       -2.23200068500595        4.31886805452979
H           -9.95283002178979       -1.83635390241658        5.63713926749594
H            4.73761227596467       -3.38521435470078        8.41722925586659
H            6.04975031749369       -2.38826062933701        7.77827041519257
H            5.33208198332594       -3.37492165505323        6.68033053623285
H           -4.39725928651014        3.24878209538726        2.61378709002388
H           -5.08696944537078        1.91711274398704        1.96915346605107
H           -3.52136750858045        2.35146358854214        1.29600208347229
H           -5.70691750714824        3.37988116610481        6.32569077628569
H           -6.08329194028355        2.19769622583510        5.11275362382631
H           -4.93018802596999        3.56905787287821        4.66139354321287
H           -0.97474275995355        6.99532027965860        0.00335648463769
H            0.71359992301931        6.74919462782357        0.42222195303714
H           -0.44966518385893        7.47842579554816        1.65974590919032
116
 energy: -22.890688730523 gnorm: 0.365757885970 xtb: 6.6.1 (8d0f1dd)
C           -2.77345039915363        0.30195277520300       -1.01552605070262
C           -1.73158577399134       -0.54057362128733       -0.59604580876208
C           -0.80143125083427        0.09738910808184        0.26776090908787
C           -0.62264396256470        1.54886961620792        0.19238044881244
C           -1.64831428027068        2.29745400092836       -0.39353389903813
C           -2.80055828058881        1.68541567069804       -0.84233881810124
C           -0.00699959558348       -0.60249448705907        1.17589816270199
C            1.14707933472091        0.08964922956756        1.68233139731215
C            1.37725753741419        1.48620726818603        1.36159394164581
N            0.43761237649429        2.17275805065387        0.71523457094562
C           -0.38377522357261       -1.78081460756477        1.84279965532728
C            0.57697803797107       -2.35770502088917        2.63698744540922
N            1.80414294680293       -1.84066035767345        2.96129380254664
C            2.01323603989496       -0.54893695520107        2.58767528200382
C            3.17327789458598        0.10831934008293        3.02070141372913
C            3.36350692662397        1.43989508936403        2.67876566901052
C            2.55721401770043        2.11067776257004        1.77354428452623
C           -1.73922253448394       -2.21080994665640        1.94130655845501
C           -2.03452824710985       -3.39674334711077        2.54217290083864
C           -1.04588773037468       -3.99103827494333        3.30031426429081
C            0.28232673160895       -3.52052083558363        3.37445110908434
O           -2.64727226353894       -1.25083902161293        1.54780973535667
O           -1.80248417401185       -1.84013115880706       -0.95769375749187
C           -3.89427411220647        2.50366541014187       -1.31138115724190
C           -1.50865745886201       -5.13404308929081        4.15157487932068
H           -1.67579749775683        3.39179109133368       -0.28098029221826
H           -3.54216820759134        0.00534138113187       -1.63366827620079
H            2.51408138973601        3.21355371221958        1.88993268396180
H            3.76405771727471       -0.36612159739224        3.90960100575987
H            0.94620280563013       -4.11665488904048        4.05674068345950
H           -3.09340002623227       -3.69051035154022        2.80782883257571
O           -4.17080808738450        3.57378127314825       -0.84567492397027