116
 energy: -22.928061455056 gnorm: 0.329736929581 xtb: 6.6.1 (8d0f1dd)
C           -3.31122850772930        0.79849766164622       -0.92477639677520
C           -2.44380812530352       -0.12270372891954       -0.27661132624697
C           -1.41337090092821        0.39579727573559        0.56335275196199
C           -0.89266158675590        1.65801491088749        0.27377586709581
C           -1.72665675402493        2.51431363229076       -0.49448366572522
C           -2.95444148494349        2.13954154133227       -1.01494489940871
C           -0.74098268209890       -0.43411532818871        1.49825021926784
C            0.56872586496315        0.03782116815119        1.86248088067890
C            1.03782416582094        1.29402317993033        1.50887470833621
N            0.31238977034758        2.07067427098208        0.65193736800696
C           -1.29695700510141       -1.39996043042223        2.41574187746061
C           -0.38243517664656       -2.18060797534842        3.13232615520648
N            0.91308504082021       -1.90366887689689        3.30325166013478
C            1.37712470144904       -0.74872102533751        2.81811050966982
C            2.52149331701875       -0.17739833758153        3.39379298866852
C            2.95849061756259        1.02681208890480        2.95105897606587
C            2.24288949469137        1.78498308775960        2.03503020483770
C           -2.74860936222260       -1.74497937691422        2.38401158947411
C           -3.09416315450955       -2.91614440870436        3.00571134491758
C           -2.16786021984049       -3.77788778654213        3.63251872101904
C           -0.85708937311598       -3.40495313382985        3.68547234358092
O           -3.71994433332149       -0.94984598373544        1.67726658385724
O           -2.55702603277562       -1.47241711578389       -0.57241635275616
C           -3.84297843593025        3.13357444054366       -1.60938954875544
C           -2.68769581069131       -5.03867041417370        4.30484659386931
H           -1.39666850744143        3.51251503834900       -0.76806311868865
H           -4.27662633836220        0.55105838579656       -1.33106614114542
H            2.66329581305412        2.73912661909249        1.72562431984580
H            3.05775395548473       -0.69369546277216        4.16536137542516
H           -0.24710966264510       -4.12034095424229        4.22946223699121
H           -4.11477991332403       -3.04712728052358        3.03244694615357
O           -4.21824883374556        4.03433712717988       -0.87713382485991
O           -4.44510595673734        2.90643496899600       -2.81853501752979
C           -5.44216520282800        3.83300025693726       -3.02488532025093
C            4.23586651889298        1.50004220933226        3.59165660008449
O            5.05927614697201        0.66079890002952        3.91714215179376
O            4.47001334453535        2.86385149488593        3.72605651435371
C            5.79457498613219        3.08584475587818        4.15829123132174
O           -3.82227255313510       -5.27347675879771        4.16636005494405
O           -1.85023202017753       -5.79767454267276        5.06656077253571
C           -2.55119635829503       -6.86252441382958        5.62930343183426
C           -5.07197156564436       -1.42399175670916        1.58830531863830
C           -1.33089900128490       -2.23622472573986       -0.99264499351172
H           -2.54510546830388       -7.76426885143998        4.99136022291012
H           -3.57194749219491       -6.44405511486021        5.74196173723541
H           -2.09133598235598       -7.02043774843818        6.64022264233588
H            5.72707967266424        3.46798026205549        5.10135971236643
H            6.34060091246885        3.78468702308830        3.50069950143490
H            6.17933064298187        2.03010500085905        4.19342358084693
H           -0.91862729772622       -2.57650129080332       -0.01361370304871
H           -0.49769766914251       -1.60651221708571       -1.34094446550576
H           -1.52632419730509       -2.94569707152159       -1.75361447637286
H           -5.11788846557077       -2.41810833635233        1.17520213188926
H           -5.67929807973498       -0.69619639428435        1.04301666067831
H           -5.57598832326623       -1.42383358739762        2.57928294206544
H           -6.13050215934830        3.76035386975488       -2.23272855695873
H           -5.86615610071888        3.45938329385866       -4.02668959924245
H           -5.13479557532099        4.87790991548477       -2.98314551356402
C           -1.38192942069774        3.73616555005018        2.91232598411686
C           -1.84821468128685        2.59982427735607        3.49755545445181
C           -1.05946531454833        2.05730632010638        4.60922730982276
C            0.19893954712228        2.69376791964407        4.86302140881997
C            0.50425395911860        3.94630308659851        4.28768785650746
C           -0.26031777722226        4.46998310053134        3.25072669343212
C           -1.20488993561782        0.74454293276906        5.14851520323437
C           -0.06287609782692        0.02744069315890        5.60930570802864
C            1.19208754369866        0.71421540266195        5.78882868583885
N            1.19428660993148        2.06344359410476        5.62744624321596
C           -2.41361422770794        0.07928500213936        5.25249410304426
C           -2.45851584031083       -1.32662100968547        5.60237876023992
N           -1.29466212405906       -1.98318595734370        5.89916817085159
C           -0.14475655767527       -1.32117560077092        5.98824682881008
C            0.97209270935794       -1.98958449505532        6.53157704134458
C            2.21982707914082       -1.36973967291181        6.68703967237737
C            2.30561929262884       -0.09745313075593        6.26436900324455
C           -3.73018485967715        0.71367583494582        5.25810242262992
C           -4.89964478833448       -0.06184623426677        5.21204641615509
C           -4.82617965800088       -1.39228978090841        5.46901303780036
C           -3.67144193418464       -1.98914944386360        5.67265433266067
O           -3.75568638935321        2.07705011038914        5.52067969627343
O           -2.94192434743730        1.91263938797883        3.01658762327703
C            0.21273512614467        5.50086066357994        2.34765104514621
C           -6.06660304520411       -2.17604633098929        5.80641622556876
H            1.41756699010566        4.38133362238595        4.66974005703471
H           -1.82880610647429        4.11982501512100        2.06992133318584
H            3.26888037378556        0.32655662585251        6.31721410015598
H            0.87146188387207       -3.08471526305024        6.57830423410869
H           -3.67716811065157       -3.05999292755990        5.83019634570050
H           -5.77379677507622        0.43595144608221        4.71017130754348
O            1.34459852619901        5.82615848916894        2.44941456579099
O           -0.74718748219123        6.07961784856304        1.59848183464284
C           -0.21473095568964        7.24015934882472        1.05753806029483
C            3.53228080814219       -2.00967610361154        7.02506769044485
O            3.64093082622715       -3.14437803815732        7.50071391725347
O            4.56565258381079       -1.22937033368332        6.69086985080897
C            5.72579357310716       -1.80692399125161        7.22246151275881
O           -7.04801223588612       -1.95726935745904        5.14194115322235
O           -6.01514389321278       -2.93743591896022        6.94765316328794
C           -7.21292732384718       -3.62681918543340        7.15115816329978
C           -4.95459780685163        2.65960679932188        5.86868674392943
C           -3.68284113682406        2.59129188358641        2.05479246020704
H           -7.43119628931628       -4.22607794725959        6.20622607140901
H           -8.06548455146707       -2.91765848248592        7.29781126410398
H           -7.07314693247270       -4.33087306029711        7.91223421050944
H            6.57332189837178       -1.29353136199234        6.78341268688262
H            5.74663761932316       -2.84282155125561        6.88089468184451
H            5.69426191474290       -1.72781984964892        8.29460302186842
H           -4.10481209541493        3.44288266176275        2.60483747673152
H           -4.49244774344916        1.87419893016926        1.82433103764650
H           -3.18901540870812        2.85154642679373        1.06781919454921
H           -5.55414326821421        2.76698137191684        4.93950725322359
H           -4.78658370641210        3.62090640967288        6.25983200635257
H           -5.43485580473958        1.97242995129449        6.65265772412460
H            0.89164886030839        7.38838561720231        1.13776105146914
H           -0.62894889903848        8.04195665205089        1.64837664327952
H           -0.59282546386754        7.45699159724320        0.03719083132488
116
 energy: -22.577661884439 gnorm: 0.546287898222 xtb: 6.6.1 (8d0f1dd)
C           -2.87965765184207        0.66176856258561       -1.17147728920018
C           -1.90781642133797       -0.41668526782280       -0.78808764781740
C           -0.83489388027781        0.00337403061391        0.14546513358811
C           -0.49985083325155        1.39990014602382        0.27486587782125
C           -1.39558983994447        2.24118192298316       -0.38338385569648
C           -2.70957120571378        2.06859029745208       -0.82301640825964
C           -0.03572791867307       -0.91844681995726        0.90815825829069
C            1.22175827682605       -0.58012519696926        1.34565953670423
C            1.46243994940862        0.85138673546278        1.32982229460807
N            0.64667081236787        1.87331425527683        0.87830691368926
C           -0.42616990626762       -2.26155444727210        1.30444491373267
C            0.46903735380215       -3.25418840322800        1.81788585950006
N            1.78053641764050       -2.85924837078646        2.07019647043589
C            2.09952712924090       -1.53975716928746        1.94897935969777
C            3.30293697618423       -1.01619358402818        2.52273051649563
C            3.48419225590765        0.35656005912458        2.50191642317747
C            2.69589665048573        1.21401783797395        1.82823479063755
C           -1.79863720392817       -2.63310181203900        1.17892957409731
C           -2.26407485021698       -3.99067726379708        1.20248278966302
C           -1.40086280039500       -4.90336559648966        1.88977038151295
C           -0.14370091468187       -4.48104140240539        2.20088900575224
O           -2.68765017251252       -1.50700029111511        1.15808469530419
O           -2.09365785056387       -1.77665846005842       -1.34815101872923
C           -3.57478649652653        3.22682843682413       -1.30424638778618
C           -2.12652689704663       -5.85830175566408        2.81448619035533
H           -1.14775526258502        3.26445261518378       -0.66949781573608
H           -3.75200129763657        0.25208804970269       -1.62847112865070
H            2.89686267467090        2.16566181487900        1.40843326699927
H            4.04095695715036       -1.72273270352830        2.70355636256906
H            0.36069630461704       -5.25148646096139        2.79983723671058
H           -3.29967304875105       -4.17555591619130        1.02030423604316
O           -3.09644131560231        4.17935783770852       -1.86947582232292
O           -4.81256448532662        3.12293786658221       -0.83593682197994
C           -5.47510333365265        4.28149437120948       -1.06526915900474
C            4.39667978376156        1.16952202170769        3.44012126588082
O            4.33711379872004        2.40291976557397        3.33466631387353
O            5.29960060809517        0.47536013896971        4.34487253015300
C            6.56744761114428        1.15167184434208        4.52118469430740
O           -3.27128747652243       -5.54146191921534        3.07881888407922
O           -1.50120706642802       -6.97610688969468        3.31393208298429
C           -2.39607759456207       -7.88304628893666        4.00659647295491
C           -3.86548902181871       -1.96790328796681        0.64102058529537
C           -0.80395692429440       -2.11285989643980       -1.90018471681889
H           -3.19608865642314       -7.71033340535911        3.32143422975001
H           -2.58000530306180       -7.54978546064213        5.04928179269465
H           -2.01847508552780       -8.96892952539504        3.93138081927130
H            7.26257338470935        0.49423275606839        4.82036102682919
H            6.51883758301974        1.69630534574213        5.48324915992089
H            6.56096664009956        1.82269754073882        3.67017295688869
H           -0.29230463488840       -2.26216915635209       -0.91757542048410
H           -0.25200493820244       -1.17458094237013       -2.29634741044727
H           -0.70993731885050       -2.93593752052288       -2.60798976999946
H           -3.51625837325958       -2.67479248947016       -0.22946343036407
H           -4.30810444165854       -1.11918640367893       -0.20871480825681
H           -4.60987654412658       -2.42163944565829        1.40619653897616
H           -6.46644329463169        4.30872130365372       -1.68388089717297
H           -4.84255576829482        5.02306894909994       -1.61658895792233
H           -5.53169355637615        4.47702597407442       -0.00250367199653
C           -2.34582848817929        4.05301826552955        3.12291294427956
C           -2.69988000667353        2.89213409166043        3.78580086945074
C           -1.64548927103922        2.36304343179606        4.64770756624791
C           -0.33180808951256        2.92909807968436        4.55566587225260
C           -0.10156586570880        4.27587793242395        4.00598006897954
C           -1.21549221480264        4.79083368170011        3.25612854418874
C           -1.67756007124983        1.24808403679030        5.46176555726848
C           -0.55033246226849        0.74134681253522        6.13051398396615
C            0.61546945171993        1.33574151236935        5.84162687647174
N            0.70423299646771        2.57216287770529        5.35309214187424
C           -2.82651392100554        0.58697128582849        6.04548149357653
C           -2.65965036654479       -0.64272212548603        6.63378446095974
N           -1.53931320763841       -1.24820346798579        6.85234049806763
C           -0.40892282583410       -0.60619718982413        6.48040944935245
C            0.85565252035850       -1.19861364467766        6.65610710806604
C            1.95003776649942       -0.48610242322232        6.79501826209690
C            1.88139186879531        0.77990168678501        6.26114806237583
C           -4.08663122550836        1.24212368628968        6.34670658047065
C           -5.13371840120466        0.44346414625906        6.73582774765031
C           -4.96131193051977       -0.87472786715590        7.05667975766347
C           -3.77653144301862       -1.48048447982211        7.03369281254171
O           -4.15242272866991        2.65029070785037        6.50398354893003
O           -3.96147643815672        2.38432653922510        3.56208823278572
C           -1.01225444125072        5.96129498119389        2.52840431372055
C           -6.22662987518664       -1.50809918133174        7.55375245680264
H            0.85967474682596        4.66086478004334        4.06348094971031
H           -3.06795761072773        4.38433801470938        2.24820621244293
H            2.81597335953569        1.14867896964392        5.92830137906221
H            0.71522941653310       -2.25230543474479        7.01247416906133
H           -3.56878097918153       -2.21662243054089        7.86038979242899
H           -5.97465542999348        0.94740070742093        6.96294123404838
O           -0.34569634204214        6.94198202793206        2.89058088503324
O           -1.38073705516249        5.91475950886645        1.15383771033755
C           -1.55886005727809        7.24054502375268        0.72379907510702
C            3.27644527324997       -1.18126223036930        7.25612369135600
O            3.05894344617607       -2.28073061110248        7.75834090953074
O            4.58122813664343       -0.68862277839172        7.20715968350364
C            5.37169447435102       -1.61501466108389        7.99863068033198
O           -6.12785915010394       -2.61412878602192        7.99314961466798
O           -7.28810227349730       -0.67823984196626        7.31351007866577
C           -8.53231536562471       -1.51068173731738        7.60685036363814
C           -5.38495412443166        3.28333791575205        6.52979882520402
C           -3.84094378245947        1.48950579498483        2.39447021404914
H           -8.54376638581902       -1.79032461748601        8.78305393926632
H           -8.36118994076909       -2.30371405824006        6.83066654637135
H           -9.54446019373341       -1.23699983013105        7.24006444985900
H            6.14497278899832       -1.06086075443642        8.48403630538013
H            5.83288775632300       -2.30937231125649        7.37301852763866
H            4.92824859582208       -1.87573603216986        8.96665541924488
H           -2.74299569363113        1.26033618395999        2.27947813638884
H           -4.23293303346837        2.05957228110178        1.74768149760101
H           -4.48379402326285        0.61963211728664        2.67917183097533
H           -6.32878059078705        2.70431058337990        6.98854951224521
H           -5.55441737915403        3.43192846394581        5.46582898239861
H           -5.15420708981360        4.36720941244084        6.79402761135954
H           -2.59381803460077        7.54072955427620        0.19705343022683
H           -0.48587498523224        7.45068238686816        0.17016819172337
H           -1.54860499209476        8.04503622691759        1.55626789137934
116
 energy: -22.593398792108 gnorm: 0.534741088257 xtb: 6.6.1 (8d0f1dd)
C           -2.50234255373870        0.40894514375550       -0.96009440095545
C           -1.64449575324537       -0.53635164658150       -0.31176723700527
C           -0.93653262150341       -0.08283699605853        0.89197945941943
C           -0.78583950677743        1.36061213902103        1.07882280282731
C           -1.54233449258738        2.23616379989567        0.36752574569751
C           -2.50721092910224        1.72924785073078       -0.56970930594118
C           -0.41146228448458       -0.81264012436513        1.94965677320106
C            0.74630491074277       -0.35937240522481        2.71231166111627
C            1.15122621298198        1.04729594303810        2.50655210173011
N            0.29498693684532        1.87701102022656        1.86831775677415
C           -0.62579146203345       -2.17955172232433        2.15071334194127
C            0.38479806275433       -3.03483450319672        2.60924101489843
N            1.64700214928415       -2.61062908051172        2.74943690036703
C            1.88386318394260       -1.24796774538721        2.73249133654362
C            3.18539124718368       -0.67070273927191        2.70172426585247
C            3.53785884922364        0.66732202111092        2.57262583749129
C            2.49429173557473        1.50163472921732        2.33681120574410
C           -1.78049502699488       -2.76789221624803        1.54796542234726
C           -1.84179372904777       -4.14069213247703        1.05092029404088
C           -0.87848208989608       -5.02239907832851        1.63478307873220
C            0.25557916749227       -4.51728908403563        2.25247718817360
O           -3.01560126725363       -2.00127911733204        1.61697720039479
O           -1.71595829229713       -1.81404381796648       -0.74397178327181
C           -3.47630122885292        2.58617455449847       -1.13619666933945
C           -0.97180986971338       -6.40130829618173        1.29964005600315
H           -1.71649975150934        3.25711710857137        0.61092367381210
H           -3.33260156195670       -0.02675387803292       -1.50648598968658
H            2.62962413127602        2.59305884933956        2.15345238448690
H            3.99470267281490       -1.22562537857270        3.17106247997113
H            0.99881207855444       -5.30617425183112        2.66587126489239
H           -2.53604397244142       -4.40882013935250        0.30532890651773
O           -4.59139849881712        2.28408216364642       -1.70078393371265
O           -2.97382115873329        3.84540652372054       -1.05803584216583
C           -3.75004106152648        4.94924249603784       -1.50831915510582
C            4.92339958474370        0.91387764998901        2.35955272590896
O            5.35507254282113        1.77058844842519        1.58883136706727
O            5.80202169539323        0.18855099403362        3.18189357592996
C            7.16602653176929        0.50323214227770        3.09150278228581
O           -1.75689540027712       -6.81183812563110        0.39117625641703
O            0.08913314201211       -7.24989903799997        1.70415053492001
C            0.18872475495890       -8.29404463882345        0.74777723998539
C           -4.34118996426412       -2.56956415604702        1.36178347758799
C           -0.48267482970537       -1.89246127005661       -1.40078382154912
H            1.13533693933673       -8.82449076800824        0.74940351391134
H            0.16615759246087       -8.01193176051689       -0.31058562839839
H           -0.54924775152339       -8.99101712346984        0.79627619349896
H            7.35345341382340        0.62950936805075        1.88420498404106
H            7.75043820818117       -0.45554611313246        3.15586399690273
H            7.48832846773245        1.38470398004823        3.68349044353641
H           -0.06682087155935       -2.96731502698261       -1.13219049506185
H            0.36262129747163       -1.42092296120799       -0.77942883016868
H           -0.77661838293165       -1.40773184901834       -2.41055494393423
H           -5.02633967843388       -2.46399821905613        2.29391978566566
H           -4.21402146042068       -3.71457116573733        1.41822816602562
H           -4.53186284591019       -2.42291997428833        0.35338463448652
H           -4.25909698135805        5.20805803703803       -0.65794811778732
H           -4.44786026809600        4.65760411206877       -2.33393886205947
H           -3.15805538556823        5.83672110002488       -1.70856940568180
C           -2.56597489159992        3.66820327706391        2.78240607405860
C           -2.52113570102124        2.38616512396624        3.41127371705160
C           -1.60848431502562        2.26061956285999        4.47269908465950
C           -0.38156950575539        2.96593362806751        4.45706895578706
C           -0.36642870425545        4.15981741218395        3.62524716751582
C           -1.48480669599393        4.63151490888747        2.90171649723558
C           -1.91299713103178        1.29568416273292        5.53229499029570
C           -0.74742932557227        0.77457241355147        6.16624227109199
C            0.51452334831188        1.31876632535701        6.00234037113844
N            0.65920456288369        2.39312646803546        5.14172754873274
C           -3.22645534825498        0.61852304792845        5.96447396977681
C           -3.29746490272011       -0.23190170181065        7.07390559362114
N           -2.03564979653796       -0.80089023560366        7.51538676052852
C           -0.84984475854993       -0.39640766454859        6.87419797301923
C            0.31080024810627       -0.95453596354199        7.43648052735492
C            1.56311923987007       -0.47007543017433        7.05462538839201
C            1.69984220837656        0.63571399305866        6.29913612862883
C           -4.31868496313662        1.48705655831814        6.16393791713237
C           -5.59486347599453        0.84356721569013        6.38925235984977
C           -5.69848239850955       -0.26519826046765        7.29688098672854
C           -4.47133294340603       -0.80532045364928        7.59757915276497
O           -4.03924166836908        2.87879096466817        6.13897238240385
O           -3.32814566017736        1.36965924677331        3.10363452005223
C           -1.31726022354683        5.92626865084394        2.06594282765773
C           -6.91683210201693       -0.44778999313370        8.02993647311610
H            0.41883866136989        4.71843401284216        3.74408548834277
H           -3.31401481602557        3.97476850611261        2.11191699208275
H            2.58577224308205        0.89290255953057        5.78344437827069
H            0.19434406421428       -1.93690682809866        8.05233432601509
H           -4.41913323164460       -1.64831072724681        8.34779041739014
H           -6.39476724714219        1.44416254491616        6.29896108167361
O           -0.35921176426187        6.60803052264269        2.23779673717399
O           -2.21555306636541        6.20215038370849        1.10074854929217
C           -1.79783509432726        7.11305964953405        0.18829224638301
C            2.69606582814922       -1.37464044343710        7.60267323637393
O            2.49992771019273       -2.58833364403371        7.69149867701835
O            3.75313110786288       -0.81782589059579        8.20015054927243
C            4.42971669148911       -1.83371832862454        9.03812439345349
O           -7.03376855423520       -1.57508103896239        8.40113877142852
O           -7.84675973345252        0.52797452985301        8.07657615160889
C           -9.01914173789353        0.01806366792953        8.73798454708315
C           -5.04516701436910        3.69842993815126        6.53768789947972
C           -4.72140073254748        1.69408697689811        2.71503848040436
H           -9.02632714007507       -0.74361833660878        9.50686277371595
H           -9.58461250385836       -0.50709848981078        7.98909224563798
H           -9.61806881769218        0.88416959022800        9.14798962063347
H            5.45345720953776       -1.36708091707543        9.28893999000654
H            4.29755489525810       -2.71657081214308        8.42846780480938
H            3.81105017978628       -2.05267390467795       10.03194769091693
H           -5.37591803558027        1.54323477724434        3.70998486561357
H           -4.97648940894741        0.82144007548196        2.09852544088934
H           -4.78806362146739        2.57862317460342        2.13685205101091
H           -5.69863275551926        3.39428934509697        5.66348800604423
H           -4.43519296107924        4.66894479541299        6.38081359791966
H           -5.44023654548270        3.43495964634661        7.58202093129154
H           -2.54970836973163        8.02379215809224        0.25500471928042
H           -1.99839000194388        6.94296044967111       -0.94554913911659
H           -0.79661177055043        7.59349465330625        0.47534110881902
116
 energy: -22.594336484834 gnorm: 0.506997366650 xtb: 6.6.1 (8d0f1dd)
C           -2.55033822955798        0.76131287892246       -0.99375667737912
C           -1.82501168219306       -0.38565165481230       -0.49563406062288
C           -0.54486916195024       -0.09585392619873        0.20946990470975
C           -0.28159359949768        1.24937842022398        0.63762547424323
C           -1.28482187122171        2.15649427510983        0.36871246459070
C           -2.35410570175625        2.05248441222694       -0.52425572794727
C            0.48513263355473       -1.03578301073142        0.59131961690829
C            1.71629572920756       -0.51761254644366        1.05770211062068
C            1.73306836586596        0.84804380412687        1.36189020146317
N            0.71256744379793        1.75916062258856        1.30254655897501
C            0.29634659868176       -2.41887225669403        0.93011062289229
C            1.47001249677907       -3.33440068486662        0.74765351343298
N            2.69613670804582       -2.76912436122398        0.67426891814680
C            2.86278776524491       -1.49174744039413        1.08832331806651
C            4.16239616614175       -0.97281845781024        1.58475286066912
C            4.09250164598433        0.34479393983265        2.18145189426549
C            2.94923739616747        1.19256969686205        2.09413959433875
C           -0.78190283236452       -2.80895249907248        1.84475174513228
C           -0.74910804612401       -4.14740537035004        2.28778280216587
C            0.18885324006335       -5.02034328837687        1.76951968906840
C            1.34195618112048       -4.66995464032244        1.21456793959717
O           -1.84225201325295       -2.01442587841413        2.47854400973452
O           -1.93989304976139       -1.71515592422808       -1.08626217164875
C           -3.44096521747894        3.13977466699461       -0.66412283001545
C            0.01191134963516       -6.46283594636269        1.63750593901400
H           -1.31703479887520        2.92235594494167        1.16465662130344
H           -3.48027219184677        0.31263279261688       -1.36156076354241
H            3.08667437383325        2.24603090758149        2.26699697333842
H            5.09898490826305       -1.55299663948798        1.45296772621754
H            2.02471711918495       -5.53698926254886        0.92977255057795
H           -1.22579792895775       -4.51985232852396        3.14930624030154
O           -3.72977393814064        3.90687679384398        0.15186881383822