116
 energy: -220.390057480136 gnorm: 0.244340428400 xtb: 6.7.1 (edcfbbe)
C           -1.67350000000000        2.03070000000000       -1.29890000000000
C           -1.58800000000000        0.92570000000000       -0.46020000000000
C           -0.81980000000000        1.04540000000000        0.75030000000000
C            0.05740000000000        2.15780000000000        0.89930000000000
C           -0.06300000000000        3.22910000000000        0.00090000000000
C           -0.93100000000000        3.17470000000000       -1.05200000000000
C           -0.80500000000000        0.04760000000000        1.77630000000000
C            0.30420000000000        0.04360000000000        2.62700000000000
C            1.21340000000000        1.14200000000000        2.61060000000000
N            1.03680000000000        2.22140000000000        1.82660000000000
C           -1.80600000000000       -0.94390000000000        2.03160000000000
C           -1.43080000000000       -2.07620000000000        2.81330000000000
N           -0.28300000000000       -2.14130000000000        3.52500000000000
C            0.51550000000000       -1.05790000000000        3.50690000000000
C            1.63730000000000       -1.02520000000000        4.34210000000000
C            2.51660000000000        0.03210000000000        4.31290000000000
C            2.31390000000000        1.10430000000000        3.47400000000000
C           -3.18850000000000       -0.78590000000000        1.66340000000000
C           -4.02770000000000       -1.88420000000000        1.78990000000000
C           -3.59390000000000       -3.05580000000000        2.38610000000000
C           -2.33510000000000       -3.14800000000000        2.91530000000000
O           -3.64690000000000        0.47760000000000        1.30180000000000
O           -2.13640000000000       -0.31340000000000       -0.77670000000000
S           -1.08150000000000        4.60970000000000       -2.14410000000000
S           -4.71800000000000       -4.46790000000000        2.49740000000000
H            0.53710000000000        4.11080000000000        0.14510000000000
H           -2.29590000000000        2.00500000000000       -2.17370000000000
H            3.01030000000000        1.92390000000000        3.46750000000000
H            1.82620000000000       -1.84710000000000        5.00970000000000
H           -2.02920000000000       -4.04080000000000        3.43110000000000
H           -5.04290000000000       -1.84520000000000        1.44170000000000
O           -0.15080000000000        5.55050000000000       -1.40750000000000
O           -2.57900000000000        5.13050000000000       -1.58100000000000
C           -2.51170000000000        5.64360000000000       -0.29330000000000
S            3.98180000000000        0.01390000000000        5.36800000000000
O            3.79970000000000       -1.34920000000000        5.99840000000000
O            5.10170000000000       -0.33580000000000        4.16530000000000
C            4.93280000000000       -1.60550000000000        3.62930000000000
O           -5.77930000000000       -3.98930000000000        1.52760000000000
O           -3.82620000000000       -5.50820000000000        1.52410000000000
C           -3.78510000000000       -5.08530000000000        0.20250000000000
C           -5.02840000000000        0.56790000000000        1.04870000000000
C           -2.89250000000000       -0.35090000000000       -1.96100000000000
H           -3.28970000000000       -5.85290000000000       -0.39850000000000
H           -3.23040000000000       -4.14570000000000        0.13130000000000
H           -4.81160000000000       -4.94090000000000       -0.14980000000000
H            5.76740000000000       -1.81690000000000        2.95490000000000
H            3.99200000000000       -1.65140000000000        3.07450000000000
H            4.92190000000000       -2.33440000000000        4.44600000000000
H           -3.29680000000000       -1.35710000000000       -2.07730000000000
H           -2.25370000000000       -0.12270000000000       -2.81500000000000
H           -3.71890000000000        0.35760000000000       -1.89370000000000
H           -5.26650000000000        1.60580000000000        0.81230000000000
H           -5.59000000000000        0.27010000000000        1.93490000000000
H           -5.28950000000000       -0.06080000000000        0.19690000000000
H           -3.48050000000000        6.07670000000000       -0.02970000000000
H           -1.73350000000000        6.41330000000000       -0.25870000000000
H           -2.26780000000000        4.83750000000000        0.40270000000000
C           -2.93610000000000        1.17010000000000        4.34530000000000
C           -2.45900000000000        0.55340000000000        5.49280000000000
C           -1.33660000000000        1.14830000000000        6.16490000000000
C           -0.57690000000000        2.15150000000000        5.49720000000000
C           -1.11360000000000        2.72290000000000        4.33120000000000
C           -2.27900000000000        2.25480000000000        3.79120000000000
C           -0.86870000000000        0.69720000000000        7.43730000000000
C            0.46310000000000        0.97950000000000        7.75060000000000
C            1.19210000000000        1.91840000000000        6.96280000000000
N            0.65280000000000        2.54690000000000        5.89930000000000
C           -1.62380000000000       -0.00290000000000        8.43190000000000
C           -0.89870000000000       -0.72450000000000        9.42490000000000
N            0.43070000000000       -0.57550000000000        9.62510000000000
C            1.06900000000000        0.34050000000000        8.87110000000000
C            2.39030000000000        0.67730000000000        9.17980000000000
C            3.08140000000000        1.61110000000000        8.44310000000000
C            2.50380000000000        2.22250000000000        7.35010000000000
C           -3.05360000000000        0.10110000000000        8.55310000000000
C           -3.69630000000000       -0.75750000000000        9.43390000000000
C           -2.98210000000000       -1.60070000000000       10.26750000000000
C           -1.61400000000000       -1.56970000000000       10.29140000000000
O           -3.71570000000000        1.10530000000000        7.85340000000000
O           -2.96190000000000       -0.65110000000000        5.97410000000000
S           -2.97420000000000        3.01700000000000        2.30700000000000
S           -3.87870000000000       -2.73870000000000       11.35070000000000
H           -0.59330000000000        3.53010000000000        3.84640000000000
H           -3.80270000000000        0.78960000000000        3.83850000000000
H            3.06110000000000        2.94440000000000        6.78070000000000
H            2.87150000000000        0.21260000000000       10.02240000000000
H           -1.07130000000000       -2.18850000000000       10.98370000000000
H           -4.76850000000000       -0.78510000000000        9.49320000000000
O           -2.21740000000000        4.32510000000000        2.33170000000000
O           -4.44500000000000        3.48480000000000        2.96590000000000
C           -4.28840000000000        4.40760000000000        3.99260000000000
S            4.76960000000000        2.03820000000000        8.93630000000000
O            4.90690000000000        1.06840000000000       10.09240000000000
O            5.53960000000000        1.19340000000000        7.70020000000000
C            5.62710000000000       -0.16770000000000        7.96470000000000
O           -5.22170000000000       -2.70930000000000       10.64990000000000
O           -3.21760000000000       -4.15520000000000       10.73450000000000
C           -3.62760000000000       -4.40330000000000        9.43130000000000
C           -5.10290000000000        1.17490000000000        8.07380000000000
C           -4.07890000000000       -1.14720000000000        5.28530000000000
H           -3.25010000000000       -5.38190000000000        9.12200000000000
H           -3.23550000000000       -3.62890000000000        8.76610000000000
H           -4.72220000000000       -4.40070000000000        9.40320000000000
H            6.20110000000000       -0.64760000000000        7.16650000000000
H            4.62040000000000       -0.59580000000000        8.00050000000000
H            6.12630000000000       -0.30870000000000        8.92870000000000
H           -4.40040000000000       -2.07170000000000        5.76610000000000
H           -3.79580000000000       -1.35790000000000        4.25570000000000
H           -4.89200000000000       -0.42140000000000        5.32390000000000
H           -5.50300000000000        1.99760000000000        7.48030000000000
H           -5.30040000000000        1.36820000000000        9.12890000000000
H           -5.57530000000000        0.24480000000000        7.75580000000000
H           -5.27350000000000        4.77740000000000        4.29010000000000
H           -3.67550000000000        5.23870000000000        3.62940000000000
H           -3.80190000000000        3.93250000000000        4.84890000000000
116
 energy: -220.429907725278 gnorm: 0.148126174018 xtb: 6.7.1 (edcfbbe)
C           -1.66887896340372        2.02355854235778       -1.30184773074789
C           -1.58883342670163        0.92832901955831       -0.45912920460617
C           -0.82978735455329        1.03825984146693        0.74349846173436
C            0.05063906861806        2.15255985988555        0.90153408295687
C           -0.05831923373998        3.23312250202145        0.00726869043069
C           -0.92578657465418        3.17319990555403       -1.04225331499991
C           -0.81475671352257        0.05139806460570        1.77463629114554
C            0.29713299567901        0.04627163119524        2.62583461143068
C            1.20975177813174        1.14287345470888        2.60541118727519
N            1.02166432324019        2.20829143555875        1.82389605826037
C           -1.81829659712440       -0.93046096875652        2.03552050728106
C           -1.43301396873385       -2.06688850040495        2.81293644624259
N           -0.28719523252061       -2.12925930126923        3.50927197102288
C            0.50700654052785       -1.05491061036623        3.50725618240371
C            1.63344218537837       -1.02710919649895        4.34792488663506
C            2.50861408268536        0.03738187114002        4.31568474833350
C            2.31427415633025        1.11470676489373        3.47587043898774
C           -3.18665364010878       -0.78827270140476        1.66175485159549
C           -4.02728791880425       -1.87752250573052        1.79319978180048
C           -3.58168136599795       -3.05598989522007        2.38357427429924
C           -2.32799847050244       -3.15249123158710        2.91995539699794
O           -3.63721601182520        0.46034024488401        1.29757042644610
O           -2.13948098229312       -0.29306548934608       -0.76583256996031
S           -1.07178620533974        4.62541134513230       -2.12567662110622
S           -4.72717253740338       -4.46216273212863        2.47235706586524
H            0.55105991698230        4.11072247935253        0.14768722106872
H           -2.29327893137333        2.00586831506678       -2.17902398383435
H            3.01094394873792        1.93601677067356        3.46623696037941
H            1.82620411846380       -1.85269777485753        5.01444022985869
H           -2.01935844215626       -4.04131816035616        3.44416527188685
H           -5.04641250244656       -1.85103623038981        1.44571201521149
O           -0.12147510630516        5.56781590159867       -1.47309990496166
O           -2.58222636517224        5.12149919387889       -1.59057774208870
C           -2.52236063456311        5.65177951017969       -0.29746213464008
S            3.97846117630433       -0.01018562272519        5.37588164411490
O            3.79010152670858       -1.32988158346569        6.03962604837607
O            5.08988038667873       -0.32890089529091        4.16159921197404
C            4.93738911134374       -1.60747299485638        3.62174158498094
O           -5.81775825052565       -3.99607555915281        1.56765046368325
O           -3.81926510563010       -5.50461238403092        1.52477081565192
C           -3.77847648613857       -5.09132260667262        0.19250895491130
C           -5.02176070795007        0.56703669146038        1.04640049146729
C           -2.89126124807291       -0.34920811427608       -1.95594883636022
H           -3.28660443170309       -5.86568129395250       -0.39316009000332
H           -3.22282583399408       -4.15148651706321        0.10816487230944
H           -4.80096445707837       -4.94054060477224       -0.16873094929797
H            5.77711140267413       -1.80513866652354        2.95677672218669
H            3.99936289400346       -1.66993666486253        3.06115394130350
H            4.92219202089344       -2.34390077862807        4.43153006522471
H           -3.28340442340458       -1.36157826543162       -2.05434293225050
H           -2.26051003443557       -0.12779547389730       -2.82126925544875
H           -3.72688948168344        0.35396422304650       -1.90957954896627
H           -5.23834612695246        1.61020727359469        0.81679798569509
H           -5.59840259620284        0.27333143931727        1.92799592256394
H           -5.30436521631308       -0.05687157566106        0.19518268421481
H           -3.49096473271456        6.08096804207381       -0.04943902768519
H           -1.74807908654068        6.42266608392403       -0.24962935415523
H           -2.27542180616295        4.86320025344343        0.41462182850449
C           -2.93031144397605        1.15536694900872        4.34256484682169
C           -2.45708394689173        0.55082838516165        5.49098162968493
C           -1.34130129222144        1.13099956977794        6.15991180221231
C           -0.57713473119114        2.13882325801231        5.49607555785882
C           -1.10480076658346        2.72206393105273        4.32627883115194
C           -2.26958630514200        2.25053573539753        3.79553995712845
C           -0.87775876951779        0.69532319561487        7.43547448814889
C            0.45646309360337        0.97694128827522        7.74817003566715
C            1.18801736140239        1.90871781203323        6.95308953846405
N            0.64006957590149        2.53354057711516        5.90516306260397
C           -1.63574753008291        0.00976968528020        8.43218093443268
C           -0.90240210039815       -0.71671353417608        9.42100310712103
N            0.41868328175058       -0.57131997711531        9.60842690461938
C            1.06020033001782        0.34036232141721        8.87172788504549
C            2.38711012100199        0.67428936521533        9.18598638095300
C            3.07168703459945        1.61102760467381        8.44234163505056
C            2.50522676234246        2.22175176919081        7.33974728729817
C           -3.05250140216960        0.10068514997783        8.55451734552938
C           -3.69539171356011       -0.74652548904769        9.43735454817487
C           -2.97224313025125       -1.59698693724061       10.26594444576827
C           -1.60604575445772       -1.56977695730338       10.29694067521361
O           -3.70725492899009        1.08561022794090        7.85607432421128
O           -2.96105226893730       -0.63044615283560        5.97624100900408
S           -2.96009544629829        3.03188248890383        2.31734452021337
S           -3.89539634452756       -2.74320473256222       11.33077705684308
H           -0.58392610156166        3.53319663085486        3.84442648257225
H           -3.80866159203952        0.79107712371484        3.84025964323559
H            3.05955108375199        2.95182523221332        6.77301201656663
H            2.87149486827196        0.20877873105436       10.02957231104044
H           -1.05780604068474       -2.18333680765644       10.99216034703239
H           -4.76982225134719       -0.78698525510961        9.50122755354499
O           -2.19409630754908        4.30728682642890        2.30847838914085
O           -4.43939964950520        3.46631626619857        2.97696979226965
C           -4.29647689116156        4.40872111709798        3.99924423688964
S            4.77008422026382        2.01711238275902        8.94549279905762
O            4.93706626902765        1.12705533052907       10.12909062173982
O            5.53675444451674        1.19499144836607        7.69676894731954
C            5.63560125783689       -0.17460652855504        7.96425957247542
O           -5.24555748517419       -2.69325433779029       10.69821472684869
O           -3.21210747371543       -4.15170664328618       10.73146841093587
C           -3.62406402436014       -4.41299687105404        9.42380998519226
C           -5.09762249182358        1.17178175871876        8.07261353263815
C           -4.07803802977198       -1.14282082588044        5.29164188130124
H           -3.24397435563511       -5.39025280573493        9.13170711392663
H           -3.23522355275494       -3.64468777732809        8.74728817640980
H           -4.71822456583992       -4.40899177569202        9.38390756882789
H            6.20856857694165       -0.63708189443179        7.16311488785822
H            4.63864924948679       -0.62147454192200        8.00246450829977
H            6.13480264932137       -0.32751593891523        8.92452507736950
H           -4.38172520828555       -2.06516421892359        5.78596754527266
H           -3.81284592318497       -1.36558301127003        4.25733071923356
H           -4.90555183246208       -0.42914746618109        5.32228614337581
H           -5.47658062707920        1.99969290053440        7.47298407772317
H           -5.31070103237465        1.36985424360171        9.12643853541949
H           -5.59134960024747        0.24843452510056        7.75905689900414
H           -5.28438810633838        4.77218752709378        4.27985595233018
H           -3.68158138101778        5.24091484777731        3.64199831289661
H           -3.80987220956024        3.94942851292589        4.86530732743163
116
 energy: -220.449846241210 gnorm: 0.026610491718 xtb: 6.7.1 (edcfbbe)
C           -1.66520024828278        2.02726616925986       -1.30637155156861
C           -1.58967872818188        0.93571176351701       -0.46249169096092
C           -0.84045424936365        1.03461918101564        0.73657034933353
C            0.04496750011077        2.15069827796012        0.90377746557986
C           -0.05646978294974        3.24343269134687        0.01555817437372
C           -0.92423061964836        3.18110756627790       -1.03104825404750
C           -0.82436057793311        0.05689857288985        1.77482163532066
C            0.28985007614764        0.05015254965640        2.62791885308257
C            1.20515939212856        1.14582546222306        2.60468710466794
N            1.00624596305387        2.19624846747847        1.82236532012181
C           -1.83232967580880       -0.91755875120971        2.03914857321518
C           -1.43842128076362       -2.05868175464220        2.81374030991735
N           -0.29513060729601       -2.11692062071026        3.49533756072916
C            0.49782945743089       -1.05277400415536        3.50816063403128
C            1.63035352279420       -1.02893407899787        4.35109846159996
C            2.49936680555277        0.04198997713748        4.31607844236646
C            2.31484959982148        1.12451860030174        3.47994234796521
C           -3.19011354963631       -0.78971568909031        1.66207909204894
C           -4.02738982502437       -1.87768495281468        1.79084138880821
C           -3.56928916183824       -3.06221859011652        2.37526369495608
C           -2.32398743089607       -3.15947100138081        2.92395109356108
O           -3.63259989347654        0.44179459391372        1.29216117646131
O           -2.14357566008670       -0.26689401025202       -0.75949406616604
S           -1.05551097905675        4.64902293584028       -2.11963337230110
S           -4.74556701231097       -4.46121505436420        2.45121560121102
H            0.56535064047836        4.11301812057732        0.15337728765138
H           -2.28438998522201        2.01867367326827       -2.18851786618308
H            3.01007813491937        1.94729159003074        3.46760794385361
H            1.82445790590823       -1.85500211487950        5.01879273249963
H           -2.00884106633040       -4.04150130717930        3.45590417307300
H           -5.05113990299778       -1.86646395223807        1.45136975829235
O           -0.10145277313576        5.56622606037570       -1.52662256501447
O           -2.57596987820022        5.10789686038221       -1.60367741079602
C           -2.53333380930958        5.66192172844015       -0.30562502320742
S            3.97227934252741       -0.03613149937235        5.39208383140258
O            3.76889280259964       -1.31024789016088        6.06446055527106
O            5.06614967241343       -0.32092271721670        4.16028977635165
C            4.93940973898612       -1.60889093993914        3.61298809616310
O           -5.83843131631708       -3.99787468818716        1.60673974864024
O           -3.81512264288975       -5.49497383034451        1.52829152309199
C           -3.76984707625411       -5.09636739769046        0.18232576725206
C           -5.01751133998702        0.57055449827267        1.04199079873926
C           -2.89207272662753       -0.35072590921989       -1.95257479114454
H           -3.28316601984588       -5.88236181476926       -0.38623727267924
H           -3.20881865174586       -4.15959682809920        0.08276485113711
H           -4.78859286810866       -4.94008106813555       -0.18808803014132
H            5.78992272368779       -1.78796043415141        2.96093842450194
H            4.00806380677161       -1.68913150077024        3.04099630162714
H            4.92198881495575       -2.35197087425783        4.41694369587578
H           -3.26726286304397       -1.37135954921881       -2.02460020849293
H           -2.26789011935746       -0.13730954085618       -2.82707054590125
H           -3.73719375953602        0.34559983311216       -1.92869415858403
H           -5.20383940421902        1.62023717920623        0.82106078633149
H           -5.60610143465470        0.28088142354003        1.91992871659437
H           -5.32082243256254       -0.04733126209795        0.19110944494409
H           -3.50613401416867        6.08750063631123       -0.08087444099930
H           -1.76524492974336        6.43777056598571       -0.25180730935415
H           -2.28660643549037        4.89196028192637        0.42476598525309
C           -2.92592606327755        1.14460786563844        4.33712704499299
C           -2.45511835128713        0.54478177819032        5.48493912257203
C           -1.34361894703331        1.11154546171013        6.15364279574847
C           -0.57359574086390        2.12448468643039        5.49487694766822
C           -1.09492018877836        2.72133832537582        4.32291936809819
C           -2.25967053734880        2.24813154975587        3.80090847352354
C           -0.88324964269391        0.69202306096741        7.43455060396380
C            0.45433931538837        0.97309770011982        7.74738032363001
C            1.18815506915014        1.89947168224918        6.94688577636553
N            0.63128590958599        2.51666246092022        5.91106931218043
C           -1.64847502547548        0.02175705565071        8.43418534892611
C           -0.90789757765316       -0.70901861074971        9.42140510094509
N            0.40485320420131       -0.56623683895077        9.59577168519563
C            1.05445672883959        0.33814214332491        8.87466613191065
C            2.38919948733328        0.66700523122623        9.18986054115688
C            3.06813353531779        1.60440982153053        8.43882278090723
C            2.51237231591305        2.21834213672868        7.33203860561887
C           -3.05497834271425        0.10217025865479        8.55916123224622
C           -3.69604575112697       -0.74430437690475        9.43973556530296
C           -2.96396210158165       -1.60171995028352       10.26266398563834
C           -1.60077288793525       -1.57270885673951       10.30487429822760
O           -3.70328486444475        1.06564019390192        7.86100618563717
O           -2.96331417696108       -0.61081723496127        5.97408588559578
S           -2.94132040462260        3.04645120647394        2.32306896432222
S           -3.92029555540697       -2.74879114840531       11.32077110243633
H           -0.57076772573864        3.53347565427419        3.84550217642910
H           -3.81310794321786        0.79972138188073        3.83562476047052
H            3.06192021620546        2.95380870425922        6.76644225609925
H            2.87326338798398        0.20638434949234       10.03758971204685
H           -1.04408781717152       -2.17781801622474       11.00086818191694
H           -4.77060957813085       -0.79494255622401        9.51669704863236
O           -2.17110668000115        4.28003902915558        2.28811635988333
O           -4.42591619460502        3.44167260254549        2.99288206764187
C           -4.30345813957824        4.40843623470184        4.00815533436465
S            4.77776266112217        2.00370634754230        8.96340817349973
O            4.94706033418888        1.18106041796466       10.14843730150353
O            5.52834978810457        1.19802074048300        7.70155446570051
C            5.64623171610634       -0.18172423832068        7.96858659128562
O           -5.25404373002533       -2.67388330369450       10.73863872967784
O           -3.20894841145653       -4.13971817820486       10.72877957737043
C           -3.61910112341254       -4.42068838049140        9.41510502856462
C           -5.09557044062407        1.17263137850179        8.06893154856967
C           -4.08146569149302       -1.14340713704695        5.30174317501241
H           -3.23701284811935       -5.40005319774787        9.14450252401253
H           -3.22960918319435       -3.66283660987720        8.72518697503510
H           -4.71309406158477       -4.41651404280453        9.36386346006407
H            6.22195110419453       -0.62380042372744        7.16192252741140
H            4.66005834797145       -0.64904746438547        8.00927402395804
H            6.14959559380966       -0.33869112850999        8.92479068054770
H           -4.36040328880982       -2.06212765511757        5.81535921957565
H           -3.83375187046817       -1.37784999074708        4.26386115628322
H           -4.92201549869244       -0.44144803321284        5.32594952593756
H           -5.44551146117182        2.00644076057088        7.46083482096992
H           -5.32121571983559        1.37531987042113        9.12121860551810
H           -5.60989903556765        0.25661569415090        7.75973662984477
H           -5.29764018554735        4.76452687345780        4.26472901239074
H           -3.68858166799969        5.24138186890550        3.65271154264765
H           -3.82174542775259        3.96789721244845        4.88796070396798
116
 energy: -220.455877633210 gnorm: 0.018436790505 xtb: 6.7.1 (edcfbbe)
C           -1.66053968237619        2.04368538400758       -1.30681108621404
C           -1.59561771695489        0.95074249318497       -0.46183435316119
C           -0.84916516101221        1.04639477036773        0.74096998752804
C            0.04028641699356        2.16024557700383        0.90882064009093
C           -0.05181655677872        3.25374310100788        0.01981107374016
C           -0.91655447635576        3.19362164197565       -1.02915050101162
C           -0.83309407089512        0.06536621901997        1.77846605270026
C            0.28063512281147        0.05717598460381        2.63320827566030
C            1.19753796221019        1.15132785581940        2.61119410027118
N            1.00046681509140        2.20118256403958        1.82735006430564
C           -1.83947957120192       -0.91418057298232        2.03839245543675
C           -1.44441856727654       -2.05563282419620        2.81196958634001
N           -0.30238767363741       -2.11290535909569        3.49364118875152
C            0.48867034666860       -1.04749098324913        3.51098547198249
C            1.61892041917315       -1.02351674518051        4.35585377394939
C            2.48553447569272        0.04742256731698        4.32257900374315
C            2.30648637574917        1.12938534604749        3.48698495466155
C           -3.19865197638207       -0.79188083705499        1.65784915394240
C           -4.03221631606440       -1.88412765895242        1.78864936168319
C           -3.56880757054411       -3.06700724790473        2.37132288997912
C           -2.32475755457063       -3.16056533706126        2.92064690257976
O           -3.63604684892932        0.43790985867118        1.28147747718708
O           -2.15240984110455       -0.25100471613757       -0.75484784041230
S           -1.05154488719709        4.65114251623169       -2.14050155879665
S           -4.74329519854259       -4.47304521904117        2.45272348258487
H            0.57928020176491        4.11591959582537        0.16071491564034
H           -2.26877763415108        2.03687695776477       -2.19606395059724
H            3.00039600259394        1.95322998889463        3.47586524047977
H            1.81257436038567       -1.85050694612112        5.02203189851975
H           -2.00338928002617       -4.03678285534672        3.45843499597799
H           -5.05712382728197       -1.87933924931986        1.45451441739583
O           -0.08219607794381        5.58054056468516       -1.60073229681853