202
 energy: -39.238127086675 gnorm: 0.319427757084 xtb: 6.7.1 (edcfbbe)
C           -0.37610000000000        3.84460000000000        1.85210000000000
C            0.23810000000000        2.60010000000000        1.77460000000000
C            1.56440000000000        2.50380000000000        1.28660000000000
C            2.21720000000000        3.73470000000000        0.90810000000000
C            1.47320000000000        4.93780000000000        0.80600000000000
C            0.20100000000000        4.98020000000000        1.29120000000000
C            2.35560000000000        1.30800000000000        1.28840000000000
C            3.75380000000000        1.51870000000000        1.27620000000000
C            4.29480000000000        2.79540000000000        0.94480000000000
N            3.52010000000000        3.84320000000000        0.68640000000000
C            1.92830000000000       -0.06880000000000        1.31420000000000
C            2.92180000000000       -1.02580000000000        1.74660000000000
N            4.20080000000000       -0.74040000000000        1.95270000000000
C            4.64890000000000        0.46340000000000        1.60990000000000
C            6.04070000000000        0.69390000000000        1.60970000000000
C            6.53600000000000        1.91870000000000        1.21080000000000
C            5.69540000000000        2.95430000000000        0.86540000000000
C            0.71770000000000       -0.60400000000000        0.79510000000000
C            0.57240000000000       -1.99600000000000        0.70300000000000
C            1.47500000000000       -2.88400000000000        1.27150000000000
C            2.61620000000000       -2.40650000000000        1.84700000000000
O           -0.45520000000000        1.53300000000000        2.17980000000000
O           -0.26770000000000        0.12320000000000        0.26450000000000
S           -0.88060000000000        6.44200000000000        0.98550000000000
S            1.34990000000000       -4.71580000000000        1.20750000000000
S            8.36700000000000        2.18530000000000        1.19730000000000
C           -2.08420000000000       -2.24060000000000        1.92780000000000
C           -2.56180000000000       -1.11460000000000        1.26080000000000
C           -3.34780000000000       -1.25690000000000        0.08350000000000
C           -3.50010000000000       -2.60270000000000       -0.41900000000000
C           -2.95910000000000       -3.71360000000000        0.27390000000000
C           -2.29090000000000       -3.52600000000000        1.44580000000000
C           -4.09710000000000       -0.22140000000000       -0.57880000000000
C           -4.97500000000000       -0.65870000000000       -1.59890000000000
C           -4.89180000000000       -1.98240000000000       -2.12020000000000
N           -4.15590000000000       -2.91500000000000       -1.53290000000000
C           -4.19390000000000        1.18270000000000       -0.25000000000000
C           -5.46390000000000        1.80320000000000       -0.57430000000000
N           -6.30510000000000        1.32590000000000       -1.47840000000000
C           -5.99850000000000        0.19450000000000       -2.10430000000000
C           -6.76470000000000       -0.20690000000000       -3.21600000000000
C           -6.54970000000000       -1.44020000000000       -3.79710000000000
C           -5.64830000000000       -2.33450000000000       -3.26230000000000
C           -3.19380000000000        2.06150000000000        0.25210000000000
C           -3.58040000000000        3.32390000000000        0.70720000000000
C           -4.89360000000000        3.77660000000000        0.65570000000000
C           -5.83480000000000        3.04840000000000       -0.00610000000000
O           -2.23040000000000        0.06330000000000        1.78830000000000
O           -1.88440000000000        1.81200000000000        0.21470000000000
S           -1.51510000000000       -4.94910000000000        2.28540000000000
S           -5.33490000000000        5.35080000000000        1.51060000000000
S           -7.55180000000000       -1.94890000000000       -5.26580000000000
B           -1.22060000000000        0.87480000000000        1.10980000000000
O            8.51520000000000        3.47950000000000        0.56940000000000
O            8.50390000000000        2.39320000000000        2.84720000000000
C            8.11410000000000        3.63970000000000        3.36550000000000
O           -0.14230000000000       -4.82800000000000        0.39060000000000
C           -0.11640000000000       -5.17190000000000       -0.97330000000000
O            2.34960000000000       -5.03000000000000        0.19880000000000
O           -0.34340000000000       -4.35480000000000        2.92690000000000
O           -2.65910000000000       -5.12060000000000        3.48120000000000
C           -2.66810000000000       -4.20750000000000        4.55100000000000
O           -8.32100000000000       -0.76420000000000       -5.57650000000000
O           -8.53930000000000       -3.00440000000000       -4.43280000000000
C           -9.56570000000000       -2.43650000000000       -3.65880000000000
O           -6.63390000000000        5.68320000000000        0.96290000000000
O           -4.19210000000000        6.32520000000000        0.79550000000000
C           -4.45340000000000        6.73500000000000       -0.52410000000000
O            0.03620000000000        7.47590000000000        0.55670000000000
O           -1.55550000000000        5.75780000000000       -0.38430000000000
C           -0.75940000000000        5.71580000000000       -1.53850000000000
H          -10.39190000000000       -3.14530000000000       -3.63680000000000
H           -9.90170000000000       -1.49950000000000       -4.11510000000000
H           -9.21670000000000       -2.24060000000000       -2.64030000000000
H           -3.95130000000000        7.68880000000000       -0.67490000000000
H           -5.53180000000000        6.85810000000000       -0.66840000000000
H           -4.07090000000000        5.99670000000000       -1.23340000000000
H           -1.41900000000000        5.80470000000000       -2.40140000000000
H           -0.20870000000000        4.77160000000000       -1.59170000000000
H           -0.05370000000000        6.55320000000000       -1.53540000000000
H           -3.05460000000000       -4.73010000000000        5.42570000000000
H           -3.30710000000000       -3.34930000000000        4.32200000000000
H           -1.64870000000000       -3.86480000000000        4.75090000000000
H           -0.65260000000000       -6.11090000000000       -1.12010000000000
H            0.92580000000000       -5.29340000000000       -1.28870000000000
H           -0.58680000000000       -4.37970000000000       -1.55960000000000
H            8.71750000000000        3.83110000000000        4.25140000000000
H            7.05300000000000        3.63110000000000        3.63360000000000
H            8.29560000000000        4.42510000000000        2.62440000000000
H           -7.51920000000000        0.45770000000000       -3.60920000000000
H           -5.52300000000000       -3.32280000000000       -3.67540000000000
H           -6.82930000000000        3.42700000000000       -0.17930000000000
H           -3.11340000000000       -4.69240000000000       -0.14850000000000
H           -2.81780000000000        3.99020000000000        1.06990000000000
H           -1.48350000000000       -2.08420000000000        2.81080000000000
H           -1.34180000000000        3.89350000000000        2.32780000000000
H           -0.28700000000000       -2.36640000000000        0.16910000000000
H            3.37160000000000       -3.06320000000000        2.24640000000000
H            1.95560000000000        5.81760000000000        0.41050000000000
H            6.10050000000000        3.90080000000000        0.53940000000000
H            6.69500000000000       -0.10800000000000        1.91260000000000
C           -0.37610000000000        3.84460000000000        8.85210000000000
C            0.23810000000000        2.60010000000000        8.77460000000000
C            1.56440000000000        2.50380000000000        8.28660000000000
C            2.21720000000000        3.73470000000000        7.90810000000000
C            1.47320000000000        4.93780000000000        7.80600000000000
C            0.20100000000000        4.98020000000000        8.29120000000000
C            2.35560000000000        1.30800000000000        8.28840000000000
C            3.75380000000000        1.51870000000000        8.27620000000000
C            4.29480000000000        2.79540000000000        7.94480000000000
N            3.52010000000000        3.84320000000000        7.68640000000000
C            1.92830000000000       -0.06880000000000        8.31420000000000
C            2.92180000000000       -1.02580000000000        8.74660000000000
N            4.20080000000000       -0.74040000000000        8.95270000000000
C            4.64890000000000        0.46340000000000        8.60990000000000
C            6.04070000000000        0.69390000000000        8.60970000000000
C            6.53600000000000        1.91870000000000        8.21080000000000
C            5.69540000000000        2.95430000000000        7.86540000000000
C            0.71770000000000       -0.60400000000000        7.79510000000000
C            0.57240000000000       -1.99600000000000        7.70300000000000
C            1.47500000000000       -2.88400000000000        8.27150000000000
C            2.61620000000000       -2.40650000000000        8.84700000000000
O           -0.45520000000000        1.53300000000000        9.17980000000000
O           -0.26770000000000        0.12320000000000        7.26450000000000
S           -0.88060000000000        6.44200000000000        7.98550000000000
S            1.34990000000000       -4.71580000000000        8.20750000000000
S            8.36700000000000        2.18530000000000        8.19730000000000
C           -2.08420000000000       -2.24060000000000        8.92780000000000
C           -2.56180000000000       -1.11460000000000        8.26080000000000
C           -3.34780000000000       -1.25690000000000        7.08350000000000
C           -3.50010000000000       -2.60270000000000        6.58100000000000
C           -2.95910000000000       -3.71360000000000        7.27390000000000
C           -2.29090000000000       -3.52600000000000        8.44580000000000
C           -4.09710000000000       -0.22140000000000        6.42120000000000
C           -4.97500000000000       -0.65870000000000        5.40110000000000
C           -4.89180000000000       -1.98240000000000        4.87980000000000
N           -4.15590000000000       -2.91500000000000        5.46710000000000
C           -4.19390000000000        1.18270000000000        6.75000000000000
C           -5.46390000000000        1.80320000000000        6.42570000000000
N           -6.30510000000000        1.32590000000000        5.52160000000000
C           -5.99850000000000        0.19450000000000        4.89570000000000
C           -6.76470000000000       -0.20690000000000        3.78400000000000
C           -6.54970000000000       -1.44020000000000        3.20290000000000
C           -5.64830000000000       -2.33450000000000        3.73770000000000
C           -3.19380000000000        2.06150000000000        7.25210000000000
C           -3.58040000000000        3.32390000000000        7.70720000000000
C           -4.89360000000000        3.77660000000000        7.65570000000000
C           -5.83480000000000        3.04840000000000        6.99390000000000
O           -2.23040000000000        0.06330000000000        8.78830000000000
O           -1.88440000000000        1.81200000000000        7.21470000000000
S           -1.51510000000000       -4.94910000000000        9.28540000000000
S           -5.33490000000000        5.35080000000000        8.51060000000000
S           -7.55180000000000       -1.94890000000000        1.73420000000000
B           -1.22060000000000        0.87480000000000        8.10980000000000
O            8.51520000000000        3.47950000000000        7.56940000000000
O            8.50390000000000        2.39320000000000        9.84720000000000
C            8.11410000000000        3.63970000000000       10.36550000000000
O           -0.14230000000000       -4.82800000000000        7.39060000000000
C           -0.11640000000000       -5.17190000000000        6.02670000000000
O            2.34960000000000       -5.03000000000000        7.19880000000000
O           -0.34340000000000       -4.35480000000000        9.92690000000000
O           -2.65910000000000       -5.12060000000000       10.48120000000000
C           -2.66810000000000       -4.20750000000000       11.55100000000000
O           -8.32100000000000       -0.76420000000000        1.42350000000000
O           -8.53930000000000       -3.00440000000000        2.56720000000000
C           -9.56570000000000       -2.43650000000000        3.34120000000000
O           -6.63390000000000        5.68320000000000        7.96290000000000
O           -4.19210000000000        6.32520000000000        7.79550000000000
C           -4.45340000000000        6.73500000000000        6.47590000000000
O            0.03620000000000        7.47590000000000        7.55670000000000
O           -1.55550000000000        5.75780000000000        6.61570000000000
C           -0.75940000000000        5.71580000000000        5.46150000000000
H          -10.39190000000000       -3.14530000000000        3.36320000000000
H           -9.90170000000000       -1.49950000000000        2.88490000000000
H           -9.21670000000000       -2.24060000000000        4.35970000000000
H           -3.95130000000000        7.68880000000000        6.32510000000000
H           -5.53180000000000        6.85810000000000        6.33160000000000
H           -4.07090000000000        5.99670000000000        5.76660000000000
H           -1.41900000000000        5.80470000000000        4.59860000000000
H           -0.20870000000000        4.77160000000000        5.40830000000000
H           -0.05370000000000        6.55320000000000        5.46460000000000
H           -3.05460000000000       -4.73010000000000       12.42570000000000
H           -3.30710000000000       -3.34930000000000       11.32200000000000
H           -1.64870000000000       -3.86480000000000       11.75090000000000
H           -0.65260000000000       -6.11090000000000        5.87990000000000
H            0.92580000000000       -5.29340000000000        5.71130000000000
H           -0.58680000000000       -4.37970000000000        5.44040000000000
H            8.71750000000000        3.83110000000000       11.25140000000000
H            7.05300000000000        3.63110000000000       10.63360000000000
H            8.29560000000000        4.42510000000000        9.62440000000000
H           -7.51920000000000        0.45770000000000        3.39080000000000
H           -5.52300000000000       -3.32280000000000        3.32460000000000
H           -6.82930000000000        3.42700000000000        6.82070000000000
H           -3.11340000000000       -4.69240000000000        6.85150000000000
H           -2.81780000000000        3.99020000000000        8.06990000000000
H           -1.48350000000000       -2.08420000000000        9.81080000000000
H           -1.34180000000000        3.89350000000000        9.32780000000000
H           -0.28700000000000       -2.36640000000000        7.16910000000000
H            3.37160000000000       -3.06320000000000        9.24640000000000
H            1.95560000000000        5.81760000000000        7.41050000000000
H            6.10050000000000        3.90080000000000        7.53940000000000
H            6.69500000000000       -0.10800000000000        8.91260000000000
202
 energy: -39.316154133144 gnorm: 0.215584192382 xtb: 6.7.1 (edcfbbe)
C           -0.37527506463513        3.85125478314895        1.84730694786760
C            0.24579361864645        2.60931345653795        1.77472505641886
C            1.57566592285194        2.51325998313779        1.27957953312468
C            2.21991128946990        3.74109957835574        0.90367927838667
C            1.47420647395326        4.93974992963503        0.80850831004737
C            0.19451627757231        4.98161286595133        1.28056956868119
C            2.36547522624803        1.31137107681552        1.28769751873659
C            3.76097075933673        1.52282774475096        1.27608057735899
C            4.30366234772940        2.79822483873350        0.94067920826596
N            3.53117313354308        3.85350940405179        0.67979267773778
C            1.94085823202227       -0.07194702994281        1.32322173208600
C            2.92642709514644       -1.02668982340184        1.75063819066783
N            4.21443331086053       -0.74042632569642        1.95901655818331
C            4.65639947364832        0.46924716977828        1.61330051942018
C            6.04200587270119        0.70060235244633        1.60840782419693
C            6.54125373453019        1.92293639783368        1.21361580718786
C            5.69964290956252        2.95471293943240        0.86507237003898
C            0.72458880447727       -0.61264054504987        0.79834632791575
C            0.57451184357188       -2.00092889943823        0.70746376675597
C            1.48770285395415       -2.88803252122846        1.25529177391017
C            2.62052702381779       -2.40399049355221        1.83905673527345
O           -0.45106712863664        1.52937352842562        2.18694118639963
O           -0.27402838630823        0.12633998581398        0.26797246119989
S           -0.88602547511374        6.43423736245357        0.98823029035879
S            1.36704457529902       -4.71844639835469        1.18941217487086
S            8.36254813643136        2.17407500494821        1.20058328444882
C           -2.08913807190180       -2.24203648354219        1.93443820521090
C           -2.56882324433809       -1.11938069727594        1.26199909360399
C           -3.35164055554677       -1.26381461458872        0.07710919933891
C           -3.49963093246297       -2.60399704569251       -0.41809623812391
C           -2.95841665312315       -3.70716150990279        0.27953314183854
C           -2.28476413253120       -3.52364374419284        1.45253297133565
C           -4.10181526554099       -0.22248720985003       -0.58236158086746
C           -4.97850928796323       -0.65891491093303       -1.60027627829823
C           -4.89374583954767       -1.98117637993517       -2.12462493700958
N           -4.15719829452717       -2.92184577454935       -1.53854181539485
C           -4.20995622155352        1.18607595463176       -0.24964777989910
C           -5.47090976966389        1.81076068704196       -0.57366412931955
N           -6.31769616777641        1.33358050460371       -1.48709085711917
C           -6.00278414276835        0.19531604178654       -2.10754250893811
C           -6.76420442881380       -0.20779619360879       -3.21766340668975
C           -6.55641297679905       -1.44112660391739       -3.79501114575331
C           -5.64985480748213       -2.32964419832383       -3.26015415691685
C           -3.20372864638404        2.07112901651002        0.25739328663924
C           -3.58504904888652        3.33197298168524        0.71261889632962
C           -4.89219825201759        3.78629989039620        0.65821782314902
C           -5.83152230147906        3.05586885423648       -0.00706807332840
O           -2.23738552736867        0.07407306579528        1.79197505684738
O           -1.87762443814884        1.81819188993187        0.22115607613938
S           -1.51663867632362       -4.95335615759414        2.29860046019984
S           -5.32549396896435        5.34902650403110        1.51604459119654
S           -7.54158257394104       -1.95581087754869       -5.25898154440326
B           -1.21883573319034        0.87836769152227        1.11682241233615
O            8.49279350463381        3.49334463346498        0.58264767595968
O            8.51134858151601        2.39289299278835        2.85107262901916
C            8.11647531583499        3.63965093851917        3.35836749417569
O           -0.12388786472346       -4.81998587716242        0.36704469169186
C           -0.10306763220559       -5.17050391009763       -0.99088165174888
O            2.36750957048074       -5.01999165012835        0.16153461974622
O           -0.39184668122109       -4.31559718863498        3.01715634943573
O           -2.67209471664163       -5.15774515701658        3.46002040039934
C           -2.66066862697989       -4.23196933383721        4.49105793883387
O           -8.32706261285350       -0.75585485603952       -5.54695646902110
O           -8.54285318685487       -3.00889713640178       -4.43337590120089
C           -9.56158243779694       -2.43074525143516       -3.66141351966337
O           -6.62783963253421        5.68183431222447        0.93422660340427
O           -4.18765912296702        6.33327879788927        0.79800770999518
C           -4.45516005994090        6.73343676641150       -0.52032170770926
O            0.05740362300629        7.45850264691022        0.53806321194317
O           -1.56573986351013        5.76845519491400       -0.39151061059472
C           -0.75827139894779        5.72232607682079       -1.53571823615289
H          -10.39343505756148       -3.13744242245426       -3.63239038277635
H           -9.89519419798657       -1.49569612763972       -4.12083989893590
H           -9.20931559657343       -2.23582026298295       -2.64430001023621
H           -3.95169535737053        7.68912829922106       -0.68054423448919
H           -5.53292353360778        6.85720874971883       -0.66224216849471
H           -4.07103755772588        5.99297666658845       -1.22688049345719
H           -1.41194232450585        5.80735995728561       -2.40604151642503
H           -0.21055152025951        4.77612632131460       -1.58245729332636
H           -0.05335884031266        6.55858659217127       -1.53011118652229
H           -3.06046158432910       -4.73056892309884        5.36708463822719
H           -3.27476146808039       -3.37933144375208        4.21279154814952
H           -1.66423585496396       -3.85931350393325        4.68912538304343
H           -0.64654783705947       -6.10837559076683       -1.12516852493307
H            0.93479077944404       -5.29403760408003       -1.30349432341922
H           -0.58025680829029       -4.37858773198009       -1.57060840381136
H            8.71618299313087        3.83679412105189        4.24964067097118
H            7.05564665184658        3.62774991534051        3.62502788320922
H            8.30014911987675        4.42168877640410        2.61568211705581
H           -7.51782730074191        0.45462947861087       -3.60993789708018
H           -5.52787925144917       -3.31713677756519       -3.67225793134342
H           -6.82493705555257        3.43630949678128       -0.17540944918352
H           -3.10804608158128       -4.68737827180145       -0.14059533773113
H           -2.82104843468391        3.99643502687906        1.06849447889225
H           -1.48689849488877       -2.08323194823399        2.81299530600656
H           -1.34047167251941        3.89892897938258        2.31997260390301
H           -0.28450484760902       -2.37045405264772        0.17614889585292
H            3.37159335226974       -3.06296019891673        2.24133246662732
H            1.95127816953326        5.81981226941221        0.41073037957112
H            6.10471155108023        3.89925767127953        0.54224560798388
H            6.69615647070127       -0.09995304499845        1.91031112570683
C           -0.37687127058339        3.84582222423237        8.84739289856283
C            0.24491292808342        2.60434588818962        8.77459484558698
C            1.57449899407690        2.50854398782591        8.27940784564406
C            2.21838759168582        3.73659854629662        7.90408605561284
C            1.47228680193557        4.93508655321278        7.80922308019170
C            0.19252002881931        4.97646108772527        8.28106263801447
C            2.36435185402415        1.30668026603871        8.28724107652573
C            3.75974955505716        1.51840785044566        8.27597203641991
C            4.30218706324337        2.79403475722284        7.94113768639398
N            3.52961731466272        3.84930411539515        7.68039976736459
C            1.94002755792696       -0.07679045744400        8.32220622320325
C            2.92576949955241       -1.03133070451256        8.74947683728074
N            4.21360328475868       -0.74487508954131        8.95834154745144
C            4.65536106964018        0.46494547012542        8.61305169291255
C            6.04090646517270        0.69659982070651        8.60852933132229
C            6.53990518260657        1.91913264912863        8.21401765451899
C            5.69807342426847        2.95078849792581        7.86577481155394
C            0.72407216912012       -0.61779123287528        7.79689270396269
C            0.57428645228619       -2.00623586744639        7.70576350892156
C            1.48783688706417       -2.89303795286939        8.25393948814231
C            2.62025580503288       -2.40856217882736        8.83765886867701
O           -0.45127297869238        1.52439031822638        9.18617460281906
O           -0.27454532196904        0.12115956954763        7.26671967383093
S           -0.88842977569459        6.42906259677234        7.98945599247235
S            1.37024676277571       -4.72376746051638        8.19165057178736
S            8.36108809925434        2.17091488790842        8.20062479992443
C           -2.08760003352526       -2.23956942161460        8.94008605196444
C           -2.56937214475042       -1.11816897459988        8.26688554211468
C           -3.35766625933119       -1.26103376307943        7.08746683897501
C           -3.52926888266047       -2.59964061696559        6.61753267352294
C           -2.98100265410518       -3.70499988538090        7.31465971276386
C           -2.28910984622845       -3.51958444344178        8.46832734719990
C           -4.10586427132818       -0.22163305469872        6.42077775219883
C           -4.98669402747607       -0.65370334974160        5.40363944020142
C           -4.92293843246549       -1.97471004249940        4.89755846087800
N           -4.22007099692281       -2.91468091111142        5.51783406312286
C           -4.21128642057573        1.18493562246126        6.74945037261513
C           -5.47222370518898        1.80941020380107        6.42450653410256
N           -6.31947916648559        1.33488489698259        5.50994135034338
C           -6.00547324153441        0.19784453944981        4.89007384980930
C           -6.76672784127762       -0.20852295204712        3.77991162329785
C           -6.55936528710182       -1.44266527893306        3.20451996402621
C           -5.66544533668460       -2.33222809989102        3.75352564633076
C           -3.20459998055418        2.06775213972462        7.25723317525022
C           -3.58612774083649        3.32794561630988        7.71261769496560
C           -4.89358446179689        3.78180341657465        7.65882788669025
C           -5.83280615059835        3.05255302989893        6.99255622287083
O           -2.23360601704681        0.07354234479110        8.79332231117682
O           -1.87837240657606        1.81456967908862        7.22047316068872
S           -1.53803782678392       -4.95109896825953        9.32158518822735
S           -5.32771916661988        5.34344504810699        8.51738022729512
S           -7.53981331806102       -1.96014321346366        1.73861077127705
B           -1.21799819836241        0.87483954121372        8.11520745336082
O            8.49059406945667        3.49012343278075        7.58212839564679
O            8.51008417593425        2.38960903326619        9.85124500475928
C            8.11426258021152        3.63573833320561       10.35900085488526
O           -0.11808711562050       -4.83088118553748        7.37004690570367
C           -0.08430714977414       -5.18747093640224        6.01669571814119
O            2.36974872358706       -5.02482804056336        7.16270669109502
O           -0.39570841212352       -4.32345388935559       10.01738241022604
O           -2.69310022481907       -5.12999666474784       10.49820825674754
C           -2.67580272406510       -4.21076440530190       11.55529478380975
O           -8.32527400930343       -0.76090968779163        1.44757236768730
O           -8.54225510643642       -3.01344572511592        2.56325863131392
C           -9.56135368599035       -2.43637820188271        3.33577707752148
O           -6.63003441347072        5.67491693595909        7.93507350240256
O           -4.19030540739441        6.32744738011803        7.79883574692481
C           -4.45800213195553        6.72788456924912        6.48087244647231
O            0.05481833358460        7.45314907533010        7.53921480234262
O           -1.56769935571385        5.76330385771232        6.60954379371029
C           -0.76008025694681        5.71756870092233        5.46536159204046
H          -10.39294767849188       -3.14347828762689        3.36466936807208
H           -9.89553066677292       -1.50123038719619        2.87723223345838
H           -9.20928616544825       -2.24208827506255        4.35303711389640
H           -3.95463154154490        7.68374618029208        6.32128329357556
H           -5.53583488844121        6.85151732743653        6.33924507310571
H           -4.07363849733396        5.98780813049075        5.77415800812505
H           -1.41347930185313        5.80274551590251        4.59509175372524
H           -0.21227224278304        4.77142370321974        5.41836680841893