116
 energy: -22.928061455056 gnorm: 0.329736929581 xtb: 6.6.1 (8d0f1dd)
C           -3.31122850772930        0.79849766164622       -0.92477639677520
C           -2.44380812530352       -0.12270372891954       -0.27661132624697
C           -1.41337090092821        0.39579727573559        0.56335275196199
C           -0.89266158675590        1.65801491088749        0.27377586709581
C           -1.72665675402493        2.51431363229076       -0.49448366572522
C           -2.95444148494349        2.13954154133227       -1.01494489940871
C           -0.74098268209890       -0.43411532818871        1.49825021926784
C            0.56872586496315        0.03782116815119        1.86248088067890
C            1.03782416582094        1.29402317993033        1.50887470833621
N            0.31238977034758        2.07067427098208        0.65193736800696
C           -1.29695700510141       -1.39996043042223        2.41574187746061
C           -0.38243517664656       -2.18060797534842        3.13232615520648
N            0.91308504082021       -1.90366887689689        3.30325166013478
C            1.37712470144904       -0.74872102533751        2.81811050966982
C            2.52149331701875       -0.17739833758153        3.39379298866852
C            2.95849061756259        1.02681208890480        2.95105897606587
C            2.24288949469137        1.78498308775960        2.03503020483770
C           -2.74860936222260       -1.74497937691422        2.38401158947411
C           -3.09416315450955       -2.91614440870436        3.00571134491758
C           -2.16786021984049       -3.77788778654213        3.63251872101904
C           -0.85708937311598       -3.40495313382985        3.68547234358092
O           -3.71994433332149       -0.94984598373544        1.67726658385724
O           -2.55702603277562       -1.47241711578389       -0.57241635275616
C           -3.84297843593025        3.13357444054366       -1.60938954875544
C           -2.68769581069131       -5.03867041417370        4.30484659386931
H           -1.39666850744143        3.51251503834900       -0.76806311868865
H           -4.27662633836220        0.55105838579656       -1.33106614114542
H            2.66329581305412        2.73912661909249        1.72562431984580
H            3.05775395548473       -0.69369546277216        4.16536137542516
H           -0.24710966264510       -4.12034095424229        4.22946223699121
H           -4.11477991332403       -3.04712728052358        3.03244694615357
O           -4.21824883374556        4.03433712717988       -0.87713382485991
O           -4.44510595673734        2.90643496899600       -2.81853501752979
C           -5.44216520282800        3.83300025693726       -3.02488532025093
C            4.23586651889298        1.50004220933226        3.59165660008449
O            5.05927614697201        0.66079890002952        3.91714215179376
O            4.47001334453535        2.86385149488593        3.72605651435371
C            5.79457498613219        3.08584475587818        4.15829123132174
O           -3.82227255313510       -5.27347675879771        4.16636005494405
O           -1.85023202017753       -5.79767454267276        5.06656077253571
C           -2.55119635829503       -6.86252441382958        5.62930343183426
C           -5.07197156564436       -1.42399175670916        1.58830531863830
C           -1.33089900128490       -2.23622472573986       -0.99264499351172
H           -2.54510546830388       -7.76426885143998        4.99136022291012
H           -3.57194749219491       -6.44405511486021        5.74196173723541
H           -2.09133598235598       -7.02043774843818        6.64022264233588
H            5.72707967266424        3.46798026205549        5.10135971236643
H            6.34060091246885        3.78468702308830        3.50069950143490
H            6.17933064298187        2.03010500085905        4.19342358084693
H           -0.91862729772622       -2.57650129080332       -0.01361370304871
H           -0.49769766914251       -1.60651221708571       -1.34094446550576
H           -1.52632419730509       -2.94569707152159       -1.75361447637286
H           -5.11788846557077       -2.41810833635233        1.17520213188926
H           -5.67929807973498       -0.69619639428435        1.04301666067831
H           -5.57598832326623       -1.42383358739762        2.57928294206544
H           -6.13050215934830        3.76035386975488       -2.23272855695873
H           -5.86615610071888        3.45938329385866       -4.02668959924245
H           -5.13479557532099        4.87790991548477       -2.98314551356402
C           -1.38192942069774        3.73616555005018        2.91232598411686
C           -1.84821468128685        2.59982427735607        3.49755545445181
C           -1.05946531454833        2.05730632010638        4.60922730982276
C            0.19893954712228        2.69376791964407        4.86302140881997
C            0.50425395911860        3.94630308659851        4.28768785650746
C           -0.26031777722226        4.46998310053134        3.25072669343212
C           -1.20488993561782        0.74454293276906        5.14851520323437
C           -0.06287609782692        0.02744069315890        5.60930570802864
C            1.19208754369866        0.71421540266195        5.78882868583885
N            1.19428660993148        2.06344359410476        5.62744624321596
C           -2.41361422770794        0.07928500213936        5.25249410304426
C           -2.45851584031083       -1.32662100968547        5.60237876023992
N           -1.29466212405906       -1.98318595734370        5.89916817085159
C           -0.14475655767527       -1.32117560077092        5.98824682881008
C            0.97209270935794       -1.98958449505532        6.53157704134458
C            2.21982707914082       -1.36973967291181        6.68703967237737
C            2.30561929262884       -0.09745313075593        6.26436900324455
C           -3.73018485967715        0.71367583494582        5.25810242262992
C           -4.89964478833448       -0.06184623426677        5.21204641615509
C           -4.82617965800088       -1.39228978090841        5.46901303780036
C           -3.67144193418464       -1.98914944386360        5.67265433266067
O           -3.75568638935321        2.07705011038914        5.52067969627343
O           -2.94192434743730        1.91263938797883        3.01658762327703
C            0.21273512614467        5.50086066357994        2.34765104514621
C           -6.06660304520411       -2.17604633098929        5.80641622556876
H            1.41756699010566        4.38133362238595        4.66974005703471
H           -1.82880610647429        4.11982501512100        2.06992133318584
H            3.26888037378556        0.32655662585251        6.31721410015598
H            0.87146188387207       -3.08471526305024        6.57830423410869
H           -3.67716811065157       -3.05999292755990        5.83019634570050
H           -5.77379677507622        0.43595144608221        4.71017130754348
O            1.34459852619901        5.82615848916894        2.44941456579099
O           -0.74718748219123        6.07961784856304        1.59848183464284
C           -0.21473095568964        7.24015934882472        1.05753806029483
C            3.53228080814219       -2.00967610361154        7.02506769044485
O            3.64093082622715       -3.14437803815732        7.50071391725347
O            4.56565258381079       -1.22937033368332        6.69086985080897
C            5.72579357310716       -1.80692399125161        7.22246151275881
O           -7.04801223588612       -1.95726935745904        5.14194115322235
O           -6.01514389321278       -2.93743591896022        6.94765316328794
C           -7.21292732384718       -3.62681918543340        7.15115816329978
C           -4.95459780685163        2.65960679932188        5.86868674392943
C           -3.68284113682406        2.59129188358641        2.05479246020704
H           -7.43119628931628       -4.22607794725959        6.20622607140901
H           -8.06548455146707       -2.91765848248592        7.29781126410398
H           -7.07314693247270       -4.33087306029711        7.91223421050944
H            6.57332189837178       -1.29353136199234        6.78341268688262
H            5.74663761932316       -2.84282155125561        6.88089468184451
H            5.69426191474290       -1.72781984964892        8.29460302186842
H           -4.10481209541493        3.44288266176275        2.60483747673152
H           -4.49244774344916        1.87419893016926        1.82433103764650
H           -3.18901540870812        2.85154642679373        1.06781919454921
H           -5.55414326821421        2.76698137191684        4.93950725322359
H           -4.78658370641210        3.62090640967288        6.25983200635257
H           -5.43485580473958        1.97242995129449        6.65265772412460
H            0.89164886030839        7.38838561720231        1.13776105146914
H           -0.62894889903848        8.04195665205089        1.64837664327952
H           -0.59282546386754        7.45699159724320        0.03719083132488
116
 energy: -22.585457157229 gnorm: 0.541473620870 xtb: 6.6.1 (8d0f1dd)
C           -2.21740842597564        0.28360877768280       -2.29272510832958
C           -1.70896771973360       -0.37805525347176       -1.16250849147960
C           -1.20422157626387        0.45032330471514       -0.01359905428518
C           -0.87010622059028        1.77529258009376       -0.32106870366431
C           -1.35492697134591        2.36858251562494       -1.57330876033471
C           -2.14007316430778        1.70701749440606       -2.54004761992210
C           -0.51439163546319       -0.02258528640863        1.21033134987612
C            0.52740653516540        0.66796186706842        1.77532700234045
C            0.81912659142949        1.90929106548446        1.16873064138940
N            0.03274221778260        2.55474316225761        0.29476326442300
C           -1.07841063639092       -1.02579838008775        2.07464406524775
C           -0.18619083263479       -1.74802693515106        2.91382221896497
N            1.06673277134602       -1.22286207788125        3.08620166882326
C            1.41322026482706       -0.01033307216981        2.57765816096889
C            2.70833423909369        0.54050650835932        2.70656950470837
C            3.03576888646067        1.80272192491757        2.18635051949842
C            2.11265920363623        2.43840180163947        1.55579621172558
C           -2.38271598749371       -1.68536265877096        1.89176685413839
C           -2.59798225525241       -2.99875833473284        2.38570620257008
C           -1.68234400756789       -3.55652491464109        3.25786422625055
C           -0.47956294040077       -3.02822803979867        3.44680250449229
O           -3.29023956487882       -0.89785568592214        1.02895990456331
O           -1.94611957010044       -1.80289927536094       -1.14006299620446
C           -2.52525128785236        2.34786085562033       -3.91720458018590
C           -1.69144590717764       -4.93033730644930        3.94243298896712
H           -1.10942175485374        3.34438727658266       -1.95777409230631
H           -2.68424153063158       -0.24019997347921       -3.07181421927741
H            2.48514786241037        3.47667724757534        1.17031009854647
H            3.26184198080504        0.05652858006840        3.32384966089374
H            0.29946007746632       -3.54893391548182        3.98768753382124
H           -3.49619178671148       -3.52898710993687        2.02867038515255
O           -1.81865969335651        3.14222073941740       -4.45557649715278
O           -3.85503201676511        2.42715048710163       -4.21447453206351
C           -4.34346743780166        3.23406318720009       -5.34303013169015
C            4.34822176800930        2.47827123275766        2.31475474140421
O            4.28035237580869        3.38402566826192        3.18941034913104
O            5.44599044426303        2.10580796780768        1.58136534683278
C            6.49225950246542        3.03155556813340        1.67199608058528
O           -2.44902363999902       -5.84959534924040        3.49041641319021
O           -0.76625268801196       -5.19037344024732        4.91976480121230
C           -1.07708490738201       -6.52697195066775        5.36797353177872
C           -4.35966342917629       -1.74370995589911        0.58478202268562
C           -0.88023862575263       -2.53274611634510       -0.55169826172808
H           -0.00404292706171       -6.96530243227815        5.47815590532525
H           -2.02848538196927       -7.06915873939422        4.94846982925709
H           -1.41515045247313       -6.34484695280692        6.30713401241376
H            6.21061724400214        3.94654066654920        2.19504588191214
H            6.84421697272078        3.57014177448758        0.85599696837287
H            7.31098963357443        2.55410760040798        2.13737519766756
H           -1.12274151378327       -3.49347991114707       -1.08412967533045
H           -0.97560049169737       -2.41854313399140        0.54444458922117
H            0.12243173766237       -1.99882453489690       -1.02529707677574
H           -3.91965499190450       -2.63319699677356        0.50595731565995
H           -4.79989823333216       -1.52652050006542       -0.53681278809361
H           -5.23724131511402       -1.70973400971305        1.31169476105728
H           -4.04462810519707        4.29870236499114       -5.34070586627440
H           -5.33629572979192        2.88610198533092       -5.66048203827359
H           -3.61021594653320        2.99965513335594       -5.98653836333230
C           -1.88602816207327        3.98524625966410        4.43269660345962
C           -2.26034946126166        2.74052227048075        5.04436506716667
C           -1.22185915737966        1.86792425396669        5.59743945534204
C            0.03762535115742        2.31884945542247        5.24626385223681
C            0.38970724330960        3.60356458772225        4.88924294373261
C           -0.63171009660506        4.39974344374114        4.49924873279761
C           -1.58242432083489        0.53103808999110        6.11960496553285
C           -0.49691068282190       -0.41047613430638        6.10277829817749
C            0.83880336792434        0.29605793198303        6.02674688415047
N            1.13421474006918        1.48775727670544        5.44228325419861
C           -2.85316224674381       -0.10902900456142        6.57906258401265
C           -2.98092555802047       -1.54440252541885        6.57590644241525
N           -1.88200879251389       -2.29699886946384        6.68231874670923
C           -0.66311068197279       -1.85204785694360        6.35982096699297
C            0.44800239367183       -2.62724822021522        6.36588263331888
C            1.69872239819068       -2.06401378829805        6.29882287300355
C            1.82700698475895       -0.68390778325522        6.25376367259677
C           -3.94827322117253        0.57348017545304        7.35228302931001
C           -5.21290775502280       -0.06055891742137        7.57096494196337
C           -5.42467742088258       -1.41765902855286        7.12342223032529
C           -4.29455282269881       -2.19393295843923        6.63331452407028
O           -3.87417248535378        1.84110991843333        7.91371083603573
O           -3.46672982337127        2.05713195916706        4.52920501125804
C           -0.58273950224451        5.81268008795315        3.99111111503062
C           -6.73823874639818       -1.87929418140042        7.44245649505658
H            1.50230804167574        3.82788142976588        4.98653960188731
H           -2.50844316898616        4.37342968325237        3.61873148956939
H            2.86885645032111       -0.46317282261925        6.33142479778201
H            0.46802821779380       -3.63346075223828        6.69753848853270
H           -4.47670192167454       -3.16239201071717        6.15827825414876
H           -5.94476444284558        0.49718247834002        8.22208161462716
O            0.14085224109626        6.63022607683112        4.39291805244437
O           -1.50938939001364        6.06142652172155        3.05329629732817
C           -1.53738735379757        7.26186884428929        2.28179924277605
C            2.91887197335791       -3.02078366008009        6.38898415159196
O            2.80202009403280       -4.11579111523104        6.77728812270635
O            4.23399902686174       -2.61917311286073        6.10194361681026
C            5.30344867247819       -3.46185815491245        6.73541857999259
O           -7.14087888880537       -2.93205968129803        7.79054512495695
O           -7.60263207344403       -0.81982110900140        7.33802670773646
C           -8.81687770585412       -1.08190180033058        6.83439227567501
C           -4.83983903721027        2.73012471936554        7.49671660943955
C           -4.59409079569081        2.68429791149813        3.98468976314437
H           -8.72511334331717       -1.69290502847139        5.98761997990762
H           -9.20139199796049       -0.16219722227426        6.45788425468153
H           -9.51885730892275       -1.52084877622496        7.62466768972256
H            4.95900525873336       -4.27354085862213        7.24312356145933
H            5.93213123212519       -2.81259164880979        7.42181242095187
H            5.92595467538353       -3.93480719743447        5.96032467735727
H           -5.50824032292430        3.00673028294730        4.55613291255034
H           -5.17291294916147        1.90944333007503        3.43924749755949
H           -4.30285916048800        3.59623271128678        3.42972055970961
H           -5.39586182889917        2.25542096510500        6.74122649501509
H           -4.54494206593000        3.89142411021257        7.62970299195337
H           -5.51741742624919        2.49523900902701        8.29989163549080
H           -2.43074018592116        7.92079165873729        2.49146285268571
H           -1.02256574192273        7.28118151121222        1.22665721673037
H           -0.69929683583397        7.86778892216209        2.61440214191167
116
 energy: -22.542764223778 gnorm: 0.557629410930 xtb: 6.6.1 (8d0f1dd)
C           -1.39207956141281       -0.21770051357235       -2.91879932208095
C           -0.90170086346767       -0.49396407067755       -1.67806642905539
C           -0.71907520256093        0.76951208914947       -0.73610839017257
C           -0.69219354402428        2.03247688580872       -1.29202358793036
C           -1.28891388582271        2.36243323953218       -2.54494210503061
C           -1.50450111310497        1.20524739912558       -3.28215128534495
C           -0.23623727053432        0.59934782211909        0.54789213518001
C            0.69990080381584        1.42884609636433        1.05991129398332
C            0.85904686285743        2.64998651470871        0.31314248306161
N            0.07926554677749        3.01302348144955       -0.78350917853449
C           -0.53198247343830       -0.56335427731816        1.31742246445537
C            0.21395203683342       -0.88743403660624        2.50697037504900
N            0.93611612467617        0.02227149016920        3.06924348654246
C            1.39179325595330        1.10135590331562        2.32753630879740
C            2.60914716108601        1.84397010929476        2.57284399307347
C            2.80173597588547        2.99582287359565        1.86218497395397
C            1.87631039780105        3.40886587840906        0.83751957817486
C           -1.71117689098717       -1.29179520231552        1.11744501720308
C           -1.92045867466927       -2.56640457602747        1.81990815121590
C           -1.23850879252684       -2.80562015225652        3.02822860220531
C           -0.09131097292781       -2.00356620449083        3.30205484447492
O           -2.79443488161786       -0.75283834497773        0.34552667999965
O           -0.39755171712024       -1.81382184737494       -1.26990422373702
C           -2.38913966623557        1.39799201237090       -4.52529166591141
C           -1.25861978924461       -3.93853296605307        3.82811265574328
H           -1.45373254123943        3.35512977237971       -2.99459109664131
H           -1.33879416090504       -1.00343028665977       -3.72335603543068
H            2.12220674107310        4.28955795071355        0.07806440092200
H            3.38284716033203        1.61074740076295        3.49760775915801
H            0.34975711631715       -2.21912834748541        4.27174551735861
H           -2.68062025721673       -3.26816956459745        1.48049274639012
O           -2.89371646887336        2.45048569015638       -4.75931654017784
O           -2.65262690127381        0.39817280462757       -5.52492037381774
C           -3.90827218562372        0.40954782628405       -6.19762152201998
C            3.93642513446616        3.85617101576982        2.30436338827124
O            3.74496563529500        5.01912441516191        2.48310531075251
O            5.23231058488210        3.36025102967467        2.55384923804331
C            6.14099646301577        4.29501079082740        2.87552715108615
O           -2.00742019814313       -4.15427756252640        4.77595656632039
O           -0.30140534625912       -5.02304895349007        3.49844236769317
C           -0.44624496191005       -6.18604554674710        4.22756039790175
C           -3.87712091981070       -1.66018600706665        0.13817843163265
C           -1.12265106395544       -2.85484004960771       -1.64229322726672
H           -1.43713166794144       -6.18661351661129        4.70441847749975
H            0.07740589317872       -6.24034441552840        5.20222422654023
H           -0.59698809800499       -7.13598029008354        3.65684100228923
H            6.39091883341958        5.20694818871109        2.18313406701085
H            7.15208366264508        3.68845427674428        3.03227643407325
H            5.92551942665650        4.53388816944244        3.90558561872351
H           -0.74530930000700       -3.71284182500482       -1.01300210775700
H           -1.34695418540274       -2.95573877095359       -2.65838394988316
H           -2.12351883396866       -2.50510639353867       -1.34307896417936
H           -3.53529870169594       -2.88777622294500        0.19430648071155
H           -3.90293894275139       -1.43277863448634       -0.93957953260648
H           -4.61576890289477       -1.79910302421983        1.00293579410772
H           -4.46587759791708        1.25738829611598       -5.90045004888793
H           -4.47569129622761       -0.23067559089571       -5.66881130856369
H           -3.93156388121751        0.03315987936954       -7.35309910838433
C           -2.03075521572561        3.75307273771404        5.13388328281338
C           -2.41954596816924        2.42976335899232        5.13072377029094
C           -1.59544080255403        1.46031114478479        5.75488207517152
C           -0.15365739483676        1.79847419665456        5.81813663118625
C            0.14471713252750        3.14017040871454        5.71117333630635
C           -0.73539015472697        4.12049789786507        5.45500619256768
C           -1.96890630012757        0.22318130602800        6.58230428212563
C           -0.91039590440810       -0.64487738772573        6.62171731608861
C            0.44673798518970       -0.24901639604109        6.30402478938348
N            0.86194168646810        0.98773217221135        5.85808044163252
C           -3.22543732177913       -0.09977002838289        7.04009446960262
C           -3.67511136699008       -1.43858750511858        7.05285026698212
N           -2.62360757612423       -2.30324053376800        7.16782501933204
C           -1.29664289138955       -1.92621936792278        7.05135444005405
C           -0.27843768194971       -2.82719924764416        7.01317394728961
C            1.06304156990764       -2.65067024200652        6.80929600245907
C            1.38530444180233       -1.38051136332104        6.34370410073753
C           -4.20583408677308        0.85607974147840        7.29313984747657
C           -5.58788966050966        0.43031487032984        7.52765197636116
C           -5.98758641284024       -0.90384999174435        7.33863587555137
C           -5.04769679863871       -1.81569343270277        6.95768984833144
O           -3.97657861092433        2.24633286278219        7.48688627605816
O           -3.73798763487391        2.11207678005729        4.74654363786493
C           -0.10348398325904        5.28045263393192        4.50415398783294
C           -7.28581250505430       -1.45747452383258        7.98865685566922
H            1.06705585580528        3.47877460296011        5.31259394185059
H           -2.76124955541375        4.63795477164162        5.18333857275565
H            2.29347885420184       -0.95872996057566        5.76974349379558
H           -0.58923302809914       -3.82492145257187        7.22496715023181
H           -5.35013206642897       -2.83724610811162        6.96291761744896
H           -6.34136653065260        1.15997878387873        7.85113800781371
O            1.00110255238743        5.62059837886305        4.72914528444328
O           -1.05584048038197        6.25349982171348        4.16857595827941
C           -0.59668772515207        7.36697169463865        3.70409434283081
C            1.73698659784687       -3.96100163833011        6.44727106500634
O            1.09866509037011       -5.01518720829000        6.69923355373251
O            3.12721943248016       -3.75779057020169        5.90631486176915
C            3.96242427425562       -4.97281190248181        5.81500050196778
O           -7.87243231313450       -2.41346408097002        7.56151883512696
O           -7.86221903982045       -0.69075057463393        9.05232081741644
C           -9.19248619058123       -0.92501227664900        9.32242111707301
C           -2.92660236543445        2.54164874061903        8.31287645939382
C           -3.80323598548176        1.03963930268271        3.77442639429008
H           -9.02895310383194       -1.73812789940718       10.02304142992763
H           -9.66449100998762       -1.32554621560321        8.35124104212764
H           -9.80329983569681        0.01030035309650        9.66051247620436
H            4.29172713507670       -5.17119258493344        6.78832259255416
H            4.65191397879893       -4.74435334333137        5.02472630863576
H            3.22507296547949       -5.82902962747512        5.53598387058580
H           -3.76849173491020        1.54362899682652        2.74876506617882
H           -4.81444675696554        0.66845988543051        4.03791417279737
H           -2.93851077459887        0.26873707658764        3.90779706489568
H           -2.41638615159622        3.49917477230188        8.04258244425209
H           -2.35361728420576        1.60076607164254        8.05744779573888
H           -3.16733778910671        2.44275611242469        9.40269289133271
H            0.37340626198515        7.37396912008660        3.23147217977081
H           -0.76693458747365        8.34544641413104        4.38383677363592
H           -1.33666679690266        7.56651467351988        2.91293501485067
116
 energy: -22.616660594869 gnorm: 0.555575093888 xtb: 6.6.1 (8d0f1dd)
C           -1.86694190890536        0.12250873362099       -3.19543478377438
C           -1.22404013381928       -0.29044340055835       -2.05597533035289
C           -0.77856403386027        0.74983143271852       -1.24575686218426
C           -0.59185077760471        1.94159380652599       -1.84256770578706
C           -1.15530404502462        2.38050444825939       -3.00309422308382
C           -1.98812127649789        1.43155814419033       -3.68659714232639
C           -0.32447114716397        0.50757044003770        0.15744171734761
C            0.81122272167882        1.34409797505166        0.45772120382369
C            1.01284260946979        2.62690044645462       -0.21135722149496
N           -0.01153850837502        2.94848721541928       -1.06104561685239
C           -0.73087468229418       -0.51737625364650        1.01943754935526
C            0.15218450178766       -0.88920563802518        2.08492109858998
N            1.17294340163834       -0.13151517350308        2.46546786407980
C            1.55428942026915        0.91955728868030        1.62430337427472
C            2.51909804018661        1.78284663735777        2.06519630320642
C            2.75983289245960        3.05143834623787        1.48525841365581
C            2.03480086035117        3.40384779331340        0.37229145056527
C           -1.83800712805888       -1.46536438663643        0.75424964724425
C           -1.96395119293269       -2.72234405580517        1.36452968768279
C           -0.94147887798161       -3.07309643102313        2.17421470331380
C            0.06954518679979       -2.20010338855969        2.44362317184340
O           -3.04576104506586       -0.95786816127776        0.14442329051925
O           -0.96121669187841       -1.70623509474928       -2.08367040611127
C           -2.32232213750860        1.59611019709151       -5.10804847452796
C           -0.69969260686731       -4.47241979797487        2.68413664842631
H           -0.78696671609842        3.29663112060478       -3.34195638989989
H           -2.00058343068759       -0.77420235737276       -3.76518962732574
H            2.20298036525491        4.44305794685458       -0.18216425371192
H            3.03438738200570        1.61928311615771        3.09826399115018
H            0.77702933918387       -2.69291679265904        2.94734698297760
H           -2.85951713410211       -3.37848816585436        1.20279109830848
O           -2.06394201726230        2.59788773248661       -5.81996227322505