116
 energy: -22.928061455056 gnorm: 0.329736929581 xtb: 6.6.1 (8d0f1dd)
C           -3.31122850772930        0.79849766164622       -0.92477639677520
C           -2.44380812530352       -0.12270372891954       -0.27661132624697
C           -1.41337090092821        0.39579727573559        0.56335275196199
C           -0.89266158675590        1.65801491088749        0.27377586709581
C           -1.72665675402493        2.51431363229076       -0.49448366572522
C           -2.95444148494349        2.13954154133227       -1.01494489940871
C           -0.74098268209890       -0.43411532818871        1.49825021926784
C            0.56872586496315        0.03782116815119        1.86248088067890
C            1.03782416582094        1.29402317993033        1.50887470833621
N            0.31238977034758        2.07067427098208        0.65193736800696
C           -1.29695700510141       -1.39996043042223        2.41574187746061
C           -0.38243517664656       -2.18060797534842        3.13232615520648
N            0.91308504082021       -1.90366887689689        3.30325166013478
C            1.37712470144904       -0.74872102533751        2.81811050966982
C            2.52149331701875       -0.17739833758153        3.39379298866852
C            2.95849061756259        1.02681208890480        2.95105897606587
C            2.24288949469137        1.78498308775960        2.03503020483770
C           -2.74860936222260       -1.74497937691422        2.38401158947411
C           -3.09416315450955       -2.91614440870436        3.00571134491758
C           -2.16786021984049       -3.77788778654213        3.63251872101904
C           -0.85708937311598       -3.40495313382985        3.68547234358092
O           -3.71994433332149       -0.94984598373544        1.67726658385724
O           -2.55702603277562       -1.47241711578389       -0.57241635275616
C           -3.84297843593025        3.13357444054366       -1.60938954875544
C           -2.68769581069131       -5.03867041417370        4.30484659386931
H           -1.39666850744143        3.51251503834900       -0.76806311868865
H           -4.27662633836220        0.55105838579656       -1.33106614114542
H            2.66329581305412        2.73912661909249        1.72562431984580
H            3.05775395548473       -0.69369546277216        4.16536137542516
H           -0.24710966264510       -4.12034095424229        4.22946223699121
H           -4.11477991332403       -3.04712728052358        3.03244694615357
O           -4.21824883374556        4.03433712717988       -0.87713382485991
O           -4.44510595673734        2.90643496899600       -2.81853501752979
C           -5.44216520282800        3.83300025693726       -3.02488532025093
C            4.23586651889298        1.50004220933226        3.59165660008449
O            5.05927614697201        0.66079890002952        3.91714215179376
O            4.47001334453535        2.86385149488593        3.72605651435371
C            5.79457498613219        3.08584475587818        4.15829123132174
O           -3.82227255313510       -5.27347675879771        4.16636005494405
O           -1.85023202017753       -5.79767454267276        5.06656077253571
C           -2.55119635829503       -6.86252441382958        5.62930343183426
C           -5.07197156564436       -1.42399175670916        1.58830531863830
C           -1.33089900128490       -2.23622472573986       -0.99264499351172
H           -2.54510546830388       -7.76426885143998        4.99136022291012
H           -3.57194749219491       -6.44405511486021        5.74196173723541
H           -2.09133598235598       -7.02043774843818        6.64022264233588
H            5.72707967266424        3.46798026205549        5.10135971236643
H            6.34060091246885        3.78468702308830        3.50069950143490
H            6.17933064298187        2.03010500085905        4.19342358084693
H           -0.91862729772622       -2.57650129080332       -0.01361370304871
H           -0.49769766914251       -1.60651221708571       -1.34094446550576
H           -1.52632419730509       -2.94569707152159       -1.75361447637286
H           -5.11788846557077       -2.41810833635233        1.17520213188926
H           -5.67929807973498       -0.69619639428435        1.04301666067831
H           -5.57598832326623       -1.42383358739762        2.57928294206544
H           -6.13050215934830        3.76035386975488       -2.23272855695873
H           -5.86615610071888        3.45938329385866       -4.02668959924245
H           -5.13479557532099        4.87790991548477       -2.98314551356402
C           -1.38192942069774        3.73616555005018        2.91232598411686
C           -1.84821468128685        2.59982427735607        3.49755545445181
C           -1.05946531454833        2.05730632010638        4.60922730982276
C            0.19893954712228        2.69376791964407        4.86302140881997
C            0.50425395911860        3.94630308659851        4.28768785650746
C           -0.26031777722226        4.46998310053134        3.25072669343212
C           -1.20488993561782        0.74454293276906        5.14851520323437
C           -0.06287609782692        0.02744069315890        5.60930570802864
C            1.19208754369866        0.71421540266195        5.78882868583885
N            1.19428660993148        2.06344359410476        5.62744624321596
C           -2.41361422770794        0.07928500213936        5.25249410304426
C           -2.45851584031083       -1.32662100968547        5.60237876023992
N           -1.29466212405906       -1.98318595734370        5.89916817085159
C           -0.14475655767527       -1.32117560077092        5.98824682881008
C            0.97209270935794       -1.98958449505532        6.53157704134458
C            2.21982707914082       -1.36973967291181        6.68703967237737
C            2.30561929262884       -0.09745313075593        6.26436900324455
C           -3.73018485967715        0.71367583494582        5.25810242262992
C           -4.89964478833448       -0.06184623426677        5.21204641615509
C           -4.82617965800088       -1.39228978090841        5.46901303780036
C           -3.67144193418464       -1.98914944386360        5.67265433266067
O           -3.75568638935321        2.07705011038914        5.52067969627343
O           -2.94192434743730        1.91263938797883        3.01658762327703
C            0.21273512614467        5.50086066357994        2.34765104514621
C           -6.06660304520411       -2.17604633098929        5.80641622556876
H            1.41756699010566        4.38133362238595        4.66974005703471
H           -1.82880610647429        4.11982501512100        2.06992133318584
H            3.26888037378556        0.32655662585251        6.31721410015598
H            0.87146188387207       -3.08471526305024        6.57830423410869
H           -3.67716811065157       -3.05999292755990        5.83019634570050
H           -5.77379677507622        0.43595144608221        4.71017130754348
O            1.34459852619901        5.82615848916894        2.44941456579099
O           -0.74718748219123        6.07961784856304        1.59848183464284
C           -0.21473095568964        7.24015934882472        1.05753806029483
C            3.53228080814219       -2.00967610361154        7.02506769044485
O            3.64093082622715       -3.14437803815732        7.50071391725347
O            4.56565258381079       -1.22937033368332        6.69086985080897
C            5.72579357310716       -1.80692399125161        7.22246151275881
O           -7.04801223588612       -1.95726935745904        5.14194115322235
O           -6.01514389321278       -2.93743591896022        6.94765316328794
C           -7.21292732384718       -3.62681918543340        7.15115816329978
C           -4.95459780685163        2.65960679932188        5.86868674392943
C           -3.68284113682406        2.59129188358641        2.05479246020704
H           -7.43119628931628       -4.22607794725959        6.20622607140901
H           -8.06548455146707       -2.91765848248592        7.29781126410398
H           -7.07314693247270       -4.33087306029711        7.91223421050944
H            6.57332189837178       -1.29353136199234        6.78341268688262
H            5.74663761932316       -2.84282155125561        6.88089468184451
H            5.69426191474290       -1.72781984964892        8.29460302186842
H           -4.10481209541493        3.44288266176275        2.60483747673152
H           -4.49244774344916        1.87419893016926        1.82433103764650
H           -3.18901540870812        2.85154642679373        1.06781919454921
H           -5.55414326821421        2.76698137191684        4.93950725322359
H           -4.78658370641210        3.62090640967288        6.25983200635257
H           -5.43485580473958        1.97242995129449        6.65265772412460
H            0.89164886030839        7.38838561720231        1.13776105146914
H           -0.62894889903848        8.04195665205089        1.64837664327952
H           -0.59282546386754        7.45699159724320        0.03719083132488
116
 energy: -22.526453713781 gnorm: 0.586900776521 xtb: 6.6.1 (8d0f1dd)
C           -3.01792080601566        0.65146439232349       -1.07168892581740
C           -2.07821966968870       -0.18679328855112       -0.43826778500180
C           -1.32515866860953        0.51815107066484        0.49214007889735
C           -1.03652995357920        1.83979850086944        0.55484590187814
C           -1.67013610194832        2.66709500758862       -0.37859192342738
C           -2.76399285654477        2.04451454009300       -1.03927512432057
C           -0.56284999889947       -0.19436893991473        1.50216204809142
C            0.71749296269443        0.17445895472477        1.94084979595723
C            1.01400801419044        1.48207782984154        1.63036035567307
N           -0.05953171900890        2.41394878817793        1.29234546369617
C           -1.04616982442159       -1.31426553735651        2.24610862496554
C           -0.13980629694462       -2.21450614303422        2.85527408144396
N            1.14869994113607       -1.95527235868257        2.86285535115092
C            1.62325144940369       -0.79424451686122        2.45577435456409
C            2.96745684199657       -0.31963531794487        2.55171580712552
C            3.21700793694196        1.15671134086123        2.32366265173730
C            2.28301694697329        2.06435179416010        1.94803321603293
C           -2.32803802107812       -1.72981511258458        2.44083292294497
C           -2.77960594460938       -2.91828211866704        3.18430360948961
C           -1.85163451012329       -3.57753763090627        3.85796256610712
C           -0.45446202556980       -3.30581734814313        3.67032736725083
O           -3.23134140304257       -1.04368947264677        1.64017535734286
O           -1.80655090365276       -1.59877233436110       -0.60419535904329
C           -3.59999101542059        2.92767988306433       -1.95165743917105
C           -2.16663027763459       -4.77620836528417        4.53123300655504
H           -1.45701695813888        3.64391678031821       -0.66469028394425
H           -3.65489017452028        0.26371353525997       -1.81319459606183
H            2.61634919048573        2.95666012339098        1.44478715293064
H            3.77240118090240       -0.94061069352587        2.99385574062335
H            0.28048013439640       -4.10827964686940        3.68019878161077
H           -3.69081540498270       -2.92189479684284        3.64041068160812
O           -2.86618605759691        3.84010637748580       -2.45167861786729
O           -4.94042573433774        2.61026005173747       -2.25624522188916
C           -5.60638138641813        2.98405221046676       -3.43700899650765
C            4.62722701105131        1.20963332502025        2.57377726665133
O            5.14484965288724        0.35885745794164        3.25304346693116
O            5.29477369733325        2.22205660833433        2.00750326143483
C            6.72402237561401        2.22904030004604        2.07716101624577
O           -3.32130002483324       -4.90451463013489        4.96261415267863
O           -1.24072892568468       -5.78977977567793        4.79461101173788
C           -1.53236665519070       -6.69503257608437        5.82912890044982
C           -4.34667173206330       -1.86141345156852        1.18561732602250
C           -2.16626583064045       -2.37988455579859       -1.77259096954674
H           -1.76234963962657       -7.71969323789711        5.26709473918704
H           -2.55714473770798       -6.45327598030192        6.34220857644326
H           -0.43510409962934       -6.56121981422354        6.21920689246838
H            7.18486283721949        2.99558332309446        2.67071194077977
H            7.21636044387310        2.11600377700643        1.19713155305684
H            7.27286221553398        1.32825440051214        2.43991446347775
H           -1.91486891392880       -1.89364188310521       -2.71043275679753
H           -3.12121173969116       -2.02116197012906       -1.76994938887050
H           -1.95368852460486       -3.42587887266851       -1.77023237837193
H           -4.99414209059985       -1.21416268804077        0.61282801235275
H           -4.99112219297972       -2.34239233533468        2.03890444263185
H           -3.80441859467117       -2.76605311672132        0.58931075038110
H           -5.11991260674333        3.97804048183179       -3.66511094999785
H           -6.65814860593251        2.75757869686223       -3.21488021600488
H           -5.42142942916373        2.24190078667400       -4.44062686509158
C           -2.01492005867788        3.85125669142016        3.74654587063055
C           -2.36871712426619        2.74805791360767        4.56432129402870
C           -1.32847458192054        2.03974172324673        5.32885546549164
C            0.02250959859706        2.58190761154001        5.12498206144422
C            0.31035134724184        3.59204458017369        4.20838530860780
C           -0.66834663631230        4.29415331155503        3.60439454808115
C           -1.50306007441462        1.04086882735103        6.31370274982627
C           -0.32675037976821        0.44343991537042        6.76108485400391
C            0.95905197573745        0.96390975670325        6.45848115807935
N            1.10785668993947        2.09473394500934        5.78948012534117
C           -2.84326177895994        0.41623487947975        6.46653210320682
C           -2.82097469225209       -1.01701301238752        6.52456680284390
N           -1.65066902794733       -1.51821740530724        6.98728200655964
C           -0.40619522409232       -0.90385572728290        7.12605670902288
C            0.71988992021304       -1.62316201786268        7.41847570462188
C            1.91945117164171       -1.09994727152768        7.49594497213966
C            2.15124768356546        0.27526485818688        6.91711793763184
C           -4.08851846227489        1.09430172172234        6.51648079898661
C           -5.11514676031435        0.36124135642456        5.91973402011460
C           -5.04137636617084       -1.06732207400865        5.54547797522899
C           -3.78922544897975       -1.71411199250922        5.85704706438489
O           -4.05779830695662        2.39320519335318        7.12822203274321
O           -3.47649372090392        2.04968416129958        4.04168262057670
C           -0.55078181035727        5.47953824390109        2.79821018409228
C           -6.33663347033493       -1.71183012518975        5.00206409087540
H            1.36452888668114        3.90886287284607        3.97499870931000
H           -2.72380920509744        4.57134193026380        3.46076341838322
H            3.12226937041535        0.62381195493395        7.05864643265572
H            0.48614102432443       -2.60793482429198        7.55146224901266
H           -3.36172910122093       -2.81503111764946        6.05092565511677
H           -6.04097053820446        0.85711095953295        6.02214894374324
O           -1.60052787925310        6.04850713841482        2.47894615541138
O            0.79924517182518        5.84856756826096        2.21922612632701
C            0.37601610919207        6.30583536380060        0.83574387211842
C            3.06820139799329       -2.01599549479037        7.38316061760832
O            2.79757328643069       -3.13469664932634        7.08246217589258
O            4.43634502089561       -1.51437514234627        7.34793029208488
C            5.37283465177129       -2.53519657834184        7.02251314086362
O           -7.16075822423218       -1.92260605219511        5.92864460562539
O           -6.37160756288062       -2.28774775826722        3.72459271807311
C           -7.35938217605767       -3.25722558758542        3.68391676103919
C           -5.23017959418765        3.16111943469218        7.38251390625557
C           -4.18876710998909        2.84375790437967        3.04522666939304
H           -7.11112927924751       -4.25470854542711        3.76139276645923
H           -7.72875482486336       -3.20305778905810        2.64493878939870
H           -8.12364637569422       -3.01762200390087        4.36268732965006
H            4.83770714580268       -3.55746197484304        7.19086408252355
H            6.17822218076564       -2.43290633504244        7.69746774573558
H            5.82537615610917       -2.52283082549245        6.02477832004789
H           -4.77439109186210        2.26810465883475        2.33463077043483
H           -3.37104388183649        3.10558562476405        2.21225166429682
H           -4.68392047906983        3.61251429681072        3.63941430374284
H           -5.79500751402016        3.14152096186323        6.39564349959768
H           -5.03075495031624        4.09816521158226        7.72652209987517
H           -5.71903372915186        2.51007987940429        8.33872113304940
H           -0.00639959976739        5.31933706291879        0.39355191285546
H            1.15274161668459        6.62802996931197        0.05895684850990
H           -0.48870491612894        6.75637602487221        0.97874887016205
116
 energy: -22.564292079619 gnorm: 0.548593937503 xtb: 6.6.1 (8d0f1dd)
C           -3.50597288658090        0.77371525033481       -0.75567493492181
C           -2.41639336265795       -0.13008614888592       -0.31090186098678
C           -1.33811727739625        0.41162694215672        0.52047719832669
C           -0.93936734404282        1.68494027910845        0.08108801835475
C           -1.69102712058268        2.45480495334582       -0.91549818803842
C           -2.93269686375071        1.94938389327778       -1.26361083501474
C           -0.52386064977949       -0.27027583281704        1.46605252170953
C            0.72022577815433        0.20210067145874        1.67613771132382
C            1.12871684167923        1.51781224404926        1.26121022168368
N            0.22508456912505        2.25609266018212        0.56934549394859
C           -0.78549674182490       -1.42745854888726        2.17187452518095
C            0.29921745063499       -2.30208910216860        2.45772963822652
N            1.55939704271508       -2.02700027451263        2.36644344900538
C            1.72278764559422       -0.66668452097143        2.15226081054273
C            2.98040888215482       -0.14051512587055        2.51073438361475
C            3.31437645242334        1.16437097253166        2.28239136565945
C            2.40864000678102        2.05533818504896        1.73614293548557
C           -2.14839644939723       -1.92344123056893        2.36787416272972
C           -2.34346996715077       -3.12606654269461        3.20106277033152
C           -1.19657977678516       -3.99908674874199        3.35601728189189
C            0.07080482226259       -3.61439562617339        2.93666274137430
O           -3.24492934009078       -1.08224685149452        1.80366714389534
O           -2.52171129928900       -1.46028398668428       -0.52704879709097
C           -3.81301879384044        2.76542281122703       -2.07006876873392
C           -1.53699172353502       -5.26171627527416        4.07497187285398
H           -1.19928067163011        3.36606933157286       -1.35254281365795
H           -4.42973717349664        0.55552965762565       -1.18630193067877
H            2.70446630266527        3.10905964803910        1.60987396906827
H            3.85744310251899       -0.74182700870408        2.39721391569075
H            0.92723823188649       -4.29415378682409        2.95810216877327
H           -3.27016641837282       -3.25588500368345        3.74561583260380
O           -3.43648521867933        3.85707476227477       -2.40469238891274
O           -5.04698631945850        2.07738794069924       -2.47695965692835
C           -5.98371264732261        2.88743648527003       -3.20072494520824
C            4.52785132312792        1.95662168723672        2.57431330323579
O            5.07674434764188        1.43525018043481        3.53423033852283
O            4.70469766520022        3.10390512932687        1.90911192008861
C            5.77963887259396        3.82625214763011        2.46174149559125
O           -2.21273147453539       -6.11293154083617        3.43298895767040
O           -0.76347151169001       -5.47356589790624        5.21387110086213
C           -0.95119278769032       -6.66789577276526        5.85205328900100
C           -4.42151268270445       -1.41823087184683        2.46222986823138
C           -3.80385900722100       -1.84449979287370       -1.43941438957962
H           -1.73074568199268       -6.56246926536843        6.50479784077376
H           -0.10933204259097       -7.05837431402886        6.54302788396107
H           -1.41654437260962       -7.39565467992652        5.26748551237501
H            5.75319510400483        4.85240771246963        2.17926855409919
H            6.59748555719717        3.58141599761171        1.79319061063836
H            5.66741583356956        3.67158001285475        3.47809858858175
H           -3.77296110135210       -2.10272460871178       -2.51332473673325
H           -4.60217517432310       -1.07350251423584       -1.34260987925955
H           -4.01596957863735       -2.54240025626485       -0.76762601801570
H           -4.48862612076042       -2.51395978985344        2.31289631015323
H           -5.03003246181364       -0.63213620007510        1.96441993581107
H           -4.43607704975358       -1.09013839307769        3.60155786644107
H           -5.61959186630087        3.99274122173769       -2.90348185767085
H           -7.02527685620062        2.20561223689996       -3.06192871625274
H           -5.65481504442855        2.72729417140442       -4.20602278252518
C           -0.81630838597364        3.49404256088456        2.65649849134864
C           -1.48138980285858        2.41191446653832        3.28358651873520
C           -0.94636776402604        1.72165709565800        4.41761316661097
C            0.38869535981683        1.98654872431969        4.73544400028500
C            0.89795143783229        3.23734470277166        4.20093331055506
C            0.42977996545397        3.95398669955655        3.11875639677037
C           -1.42312641833974        0.41394558366071        5.14847386626782
C           -0.48377124916839       -0.36412876082719        5.70987421014416
C            0.90260537026626        0.02449823778389        5.69230306637449
N            1.26965946579253        1.25846939209070        5.33300556613007
C           -2.71736602691200       -0.02675100402328        5.52057838805681
C           -3.05901720782203       -1.25124407915152        6.10161668212191
N           -2.09920654747698       -2.02352032925383        6.56665165399004
C           -0.80844215228788       -1.55362663977574        6.36426529531892
C            0.22231086820240       -2.39029217928530        6.85242537774309
C            1.50062852966629       -1.84399322948035        6.97851330742207
C            1.97133984215020       -0.76722135443810        6.14948371537803
C           -3.86239519594512        0.79150883645058        5.18268162590754
C           -5.21329255224990        0.35303207359080        5.25708070790569
C           -5.49842927387167       -0.93603511262366        5.84223121658360
C           -4.36561291889392       -1.57103179434219        6.13935263321052
O           -3.49935647175279        2.24287553847435        5.25351172562540
O           -2.80607743304775        2.06639750924147        2.73721340059698
C            0.99079747731668        5.30299308915473        2.68615448450032
C           -6.87345687701056       -1.39802657279788        6.17772158140059
H            1.88477947901830        3.57617961025610        4.52457181846427
H           -1.17584754012074        4.00562410770822        1.85292879718306
H            2.92474965235901       -0.74901321744450        5.73330207493670
H            0.43704175836042       -3.42592054811601        7.28075240792443
H           -4.48222047134756       -2.37804451093640        6.94106989736769
H           -6.06072211278501        1.07107528221025        5.13899370495597
O            0.76596720635422        5.52834104053899        1.45125067844708
O            1.51936028459688        6.27603595574411        3.47515758775936
C            1.02285057662436        7.49340856423153        3.00576698459729
C            2.47627069605040       -2.55106742964454        7.84864029705575
O            2.46429053237362       -3.75215809046538        7.76229863325679
O            3.30955780071086       -1.87601521591946        8.70770030727182
C            2.80843042314055       -0.55022583108118        9.00057877847075
O           -7.85993597547907       -0.68974587880909        6.46724897590564
O           -6.88856900875169       -2.81266880809769        5.84434361361974
C           -8.19354496085461       -3.47146078516420        6.33798529869909
C           -3.81909617763886        2.87634308284097        6.52966247952354
C           -3.64963744121234        3.16958771658837        2.76964739965936
H           -8.39016584479899       -4.14510185564926        5.53489945646030
H           -9.14547062649052       -2.94763366763250        6.40558785826401
H           -7.92118239157093       -4.10720182158336        7.14156619187860
H            3.13892528712156       -0.13119325440478        9.99679883033614
H            1.70677977374784       -0.51675043781694        8.98358283326369
H            3.25000937289275        0.17050625376578        8.33293602307402
H           -4.73149925475405        2.76334704858633        2.58366506818945
H           -3.24476312696235        3.86648600254149        2.10184983723586
H           -3.67738310503267        3.36379209111388        3.87153594692164
H           -4.74603823067511        2.80403915322280        6.85529310123401
H           -3.54646910681571        3.98958515765745        6.48598889391388
H           -3.24818372558429        2.38944043091753        7.46929161376844
H            1.70313316543540        8.19925588081134        3.33743041731011
H            0.13231042218675        7.97393097496179        3.66245282579147
H            1.01582241149073        7.68148377800347        1.90296662408759
116
 energy: -22.567762549934 gnorm: 0.532851014202 xtb: 6.6.1 (8d0f1dd)
C           -3.45512170946890       -0.48901253046078       -0.98856605465098
C           -2.33835875964351       -1.30272266676444       -0.81588326878794
C           -1.28674748656844       -0.41932268018120       -0.07917542278985
C           -1.13251953901686        0.93684929569980       -0.45345677123769
C           -2.25433569044866        1.58726922900968       -0.96166502116951
C           -3.41624863162176        0.95174985473066       -1.02848062749688
C           -0.38340998498158       -0.94435438857067        0.98824566688185
C            0.81880947595904       -0.16058563312792        1.23093039499147
C            0.96780805134387        1.17753940653315        0.52327622366580
N           -0.11439913931864        1.71062804248147       -0.17966018597935
C           -0.61940116486637       -1.94894241622053        1.89859832503003
C            0.38428777245740       -2.41535544246443        2.69934397011018
N            1.56256651051588       -1.80470608655101        2.71042571978522
C            1.74879400357214       -0.52362705047998        2.25577248875517
C            3.04169912404080        0.19005154120182        2.14411492181579
C            3.06562292220877        1.54316102097879        1.62544218815095
C            1.95486084517786        2.05204427945420        0.85857779376015
C           -1.98889561473557       -2.28908106345751        2.15114472433670
C           -2.25480287988432       -3.53130563209046        2.81308271976065
C           -1.14523143123863       -4.22618374872155        3.21843187111238
C            0.11322375009837       -3.67688928330208        3.17417173592327
O           -2.86114817162394       -1.18355587697393        1.83958805634194
O           -1.99528108852434       -2.48170710142720       -1.49685604949432
C           -4.50399497619995        1.91660369596824       -1.39165362819500
C           -1.48385563899825       -5.36924501442029        4.09712479856323
H           -2.31784343779050        2.66119180706837       -1.46126597657307
H           -4.54777403029292       -0.75567904829460       -1.27265906446835
H            1.65239877286693        3.06966708422131        0.87317665552831
H            3.96485483032418       -0.25585762821448        2.45087337564098
H            0.79968153159183       -4.04066967924790        3.87402722677809
H           -3.26018225575662       -3.87984380436995        3.21520694798376
O           -5.05271102608887        2.64633139034964       -0.55895800241644