116
 energy: -22.808028613867 gnorm: 0.437801256228 xtb: 6.6.1 (8d0f1dd)
C           -4.71815837880153       -1.65067675384036        0.79960712094108
C           -3.35191469933307       -1.79983761414523        0.52029180544537
C           -2.43051141886194       -0.83073544554071        1.12883129841264
C           -2.85513253110237        0.53698644508634        1.36477334053304
C           -4.23779057251773        0.66430168532562        1.50413799981536
C           -5.20777281365216       -0.39091796956999        1.31000486649828
C           -1.01434090167011       -1.10447656558594        1.18531886273350
C           -0.19636865665047        0.14327473818928        1.24116668411611
C           -0.83193947060682        1.42660606732564        1.46516004096050
N           -2.11140052632475        1.65698652061651        1.54266022903269
C           -0.30836950574901       -2.33833093768812        1.40964502761704
C            1.11013652589644       -2.33023012962741        1.33209072018210
N            1.80021399363882       -1.20310854971310        1.16555586770857
C            1.18394029925571       -0.00565617569399        1.32313329432018
C            1.91075769782358        1.24076595025767        1.46056736073683
C            1.36828030080524        2.47636991244734        1.53107932924013
C            0.02647447491025        2.58375971832396        1.45078063041838
C           -0.85842656923327       -3.53864737614568        1.99133007105589
C           -0.06910555849870       -4.68243028837765        1.98826302321469
C            1.31004577249741       -4.73663763265172        1.55512718882021
C            1.89541008416531       -3.49462521111597        1.35387789011058
O           -2.10356538324530       -3.36039967624829        2.67458034034856
O           -2.78246563564128       -2.81099347653945       -0.18893751955780
C           -6.67939029199550       -0.22527209282270        1.61571517607673
C            1.86287629136067       -6.05141157349310        1.34216436381346
H           -4.52214495193084        1.61763723301778        1.92326141500392
H           -5.41880034210553       -2.47757865575413        0.88777996067123
H           -0.44330062963277        3.51435682523561        1.60566272684723
H            2.90766945018350        0.94534795364440        1.56455909990796
H            2.93066117210177       -3.23963366642936        1.17085021521722
H           -0.37395594498306       -5.66714089022072        2.41782217243947
O           -7.26639604916001       -1.28916330516944        1.84908962939804
O           -7.19288542290304        0.96603657518556        1.45251780947937
C           -8.64745971248114        1.12853090100024        1.53070647177122
C            2.15384158755689        3.79908964868025        1.34183973804892
O            3.31999502319971        3.78305833168682        1.73837785078657
O            1.53485547257047        4.87890290049046        0.90005076479952
C            2.36593300685064        5.93282543893586        1.09507856172867
O            1.14830089566423       -7.05041043554711        1.38589993403408
O            3.24985241932767       -6.19109626073259        1.08412831031771
C            3.58566860306051       -7.58205938979185        0.59892850333910
C           -2.98616486560350       -4.54414378898117        2.74362224955790
C           -3.71247681159132       -3.59364743467803       -0.95661358929239
H            4.26261865181711       -7.24925303459349       -0.07345654467731
H            2.75824305939769       -8.00828551202065        0.11580144664589
H            3.89631495919852       -8.04383372532997        1.61338863168491
H            3.23157567383206        5.72127504115416        1.68125925875448
H            1.83688421607158        6.68331769883693        1.73991299899646
H            2.56080362296937        6.43818465491134        0.09440555600967
H           -3.10558817425982       -3.90434986419639       -1.87688596438107
H           -4.55683182580704       -2.87512095813921       -1.29178353479475
H           -4.29637565529647       -4.28071766717010       -0.23385395488358
H           -3.96244692460055       -4.22117016421072        2.55255521965986
H           -2.92654755063171       -5.10984979565763        3.63721419293308
H           -2.75598690235715       -5.00781576037670        1.72053099641674
H           -8.95862108453968        1.70066282307372        2.36675202793394
H           -9.11674926074074        0.15585421608272        1.74511918730394
H           -9.02712273608224        1.47812778965901        0.58485880837802
C            0.48857882349106        4.65762507145328        5.20992968671587
C           -0.40401783254386        3.75306160691599        4.63963951800593
C           -0.22376782642386        2.34162024264545        4.96659582796337
C            1.06261651198779        1.93758992480226        5.35817439743276
C            2.04509209403588        2.89246106014187        5.71106558191835
C            1.77471310350266        4.24894330203176        5.61046944397676
C           -1.24398274520525        1.30549226660908        5.04861454391566
C           -0.76069661085631        0.01055036680798        5.02298914838133
C            0.63549440906083       -0.28141530725793        5.04262032264617
N            1.54685873424311        0.75723152501446        5.15218883038447
C           -2.59690987121323        1.47403375158163        5.21282448712472
C           -3.53344647315985        0.36875038165447        5.05592902405956
N           -2.98855184686583       -0.91037501238006        4.83887807307380
C           -1.63773146285141       -1.17528764989714        4.86223582186608
C           -1.09728530861737       -2.50042909557618        4.84559966759051
C            0.29187056019815       -2.65486671098267        4.76452528924221
C            1.10775880186239       -1.56429386307882        4.95246411715323
C           -3.06370622879248        2.62380821721829        5.86092264899256
C           -4.47435129973800        2.86261247299647        5.84781767524934
C           -5.33938462326609        1.94771798846774        5.29373312885944
C           -4.86206134084811        0.72469625156967        4.89788250603044
O           -2.21107254463544        3.45593830077059        6.56402792310116
O           -1.57913552455204        4.06701912115708        3.83980607941924
C            2.88383160342727        5.16828449444996        5.96375351416889
C           -6.66791866834294        2.56737648518505        5.14822586217305
H            2.99357576873185        2.47764088190300        5.91071356330679
H            0.25482914197976        5.63510182251009        5.12358969057369
H            2.15875548617545       -1.59243954339344        4.94653388208661
H           -1.69761971472801       -3.30781944039795        5.06246497348817
H           -5.53742268497694       -0.09740830372935        4.70910307016167
H           -4.77412992970577        3.90106769394205        6.15416981364975
O            2.78194053610782        6.30158666187645        5.44837634069128
O            3.82022262170078        4.92007424600553        6.88526630080019
C            4.69963114680800        6.06127186251433        6.86571215008857
C            0.88840543272793       -3.93845070538974        4.97914306976012
O            0.24138921102237       -4.96134221385938        4.85902411913505
O            2.19308890885131       -3.87281127558383        5.29921897170670
C            2.84821551841201       -5.05378159726667        5.10439156109457
O           -6.72289709436324        3.82090978067422        5.12935981218626
O           -7.77718758045303        1.71957538267859        5.34677437664399
C           -8.91612495255942        2.49507980469601        5.65921796373676
C           -2.67182682739769        3.86372967081196        7.87390254422952
C           -2.25063682869217        5.24781095966132        4.35625321517064
H           -8.97017614704792        3.59731485395596        5.51815661475591
H           -9.07895523420074        2.28773066899069        6.70216265124673
H           -9.67781669178762        2.00149249178901        5.10947186099143
H            3.89355127128327       -4.76976533370826        4.99904154344951
H            2.59966472371650       -5.50232410669059        4.13943683730894
H            2.96352446369653       -5.90111829805327        5.90430983196232
H           -1.78333476643199        5.68298817929668        5.30718023914009
H           -3.26133967510558        5.09356258300624        4.52584456797039
H           -2.02485699008114        5.85742463852944        3.55463205993194
H           -3.35826062437518        4.73210690823279        7.73850634897286
H           -1.84618326244634        3.91210589386820        8.71643178211814
H           -3.29371920144432        3.11442521687379        8.26510644273466
H            5.38305712833498        6.15212018750007        5.90551125320045
H            5.39795326646436        5.99943507645303        7.68147869307629
H            4.17912823681499        6.99785057873142        6.95087646565444
116
 energy: -22.660691608266 gnorm: 0.591580903370 xtb: 6.6.1 (8d0f1dd)
C           -5.20439083116117       -1.23808683548873        0.80115205714175
C           -3.88043845333371       -1.61975642155735        0.71314073086475
C           -2.74486623235020       -1.05220642544927        1.36692833702458
C           -3.09086189736080        0.26785219456977        1.66169877444182
C           -4.37425109598573        0.78277892262877        1.48658125188483
C           -5.45532460625883        0.02924534706142        1.09707583128821
C           -1.43336984881294       -1.51183331414373        1.38081076158462
C           -0.41987642153829       -0.49120540405652        1.49541062431831
C           -0.72023686374943        0.84311500782970        1.71299734622125
N           -2.02684913406394        1.16538164555111        1.74816423559458
C           -0.88723648701363       -2.82007665424294        1.24498621822771
C            0.49785871813661       -2.97578689644707        0.83393869261160
N            1.37770608982003       -1.95686107840865        0.79515701260704
C            0.91056982994715       -0.77337481963862        1.12353805462205
C            1.91551808551934        0.25061335957666        1.32209824771883
C            1.56144359714910        1.55110167818714        1.68288547935594
C            0.22100315964172        1.88817877574987        1.76642664578537
C           -1.39028358653600       -4.17094988927543        1.67127906879541
C           -0.90132350039765       -5.36847696315704        1.18967998229695
C            0.30099046862933       -5.33476718662578        0.76488348016626
C            1.06088003091864       -4.20889253215446        0.65952843061699
O           -2.36387904308511       -4.04774953405681        2.55406267600741
O           -3.42149742982341       -2.73409346981758        0.14502819070886
C           -6.91322804201971        0.60292363106609        0.89003868362046
C            0.71582763077462       -6.70849607898584        0.22582444989905
H           -4.43324640178594        1.89510390007128        1.61828834201030
H           -5.84798225441195       -1.70279143450352        0.11067910553545
H            0.04622562893764        2.89816938461077        2.13572539415079
H            2.92066198873688       -0.11754503836086        1.30640896652573
H            2.15566360744272       -4.28203972449836        0.64370223845802
H           -1.50249617806936       -6.33081274836796        1.10503363613024
O           -7.80659158516898        0.02917103699916        0.38999957905860
O           -6.94040104468340        1.93764337841979        1.34656555661927
C           -7.78496919397883        2.63831183795454        0.64796345236667
C            2.64108120802863        2.49209302360054        1.88586156246195
O            3.78875210734234        2.31773582715797        1.72149736897076
O            2.19100809930405        3.68236445724956        2.36174509774249
C            3.23076382611658        4.46734862363431        2.87412268203154
O            0.35329922916437       -7.78630092659900        0.59507456608697
O            1.95902346488688       -6.64432239056624       -0.48920218740537
C            2.48561110071007       -7.92685308288033       -0.56631072779357
C           -3.16723085926531       -5.22272473859182        2.79414751578958
C           -4.29272401242409       -3.66120683944741       -0.65549002089936
H            2.46544881480576       -8.27831714363755        0.50294444383370
H            3.36583390519882       -8.08341410062685       -0.97243155716149
H            1.79604541685104       -8.47206204136596       -1.30020562657192
H            4.21795237302909        4.23544905506971        2.53319008362504
H            3.20848166178314        4.23717724436172        3.92859855288646
H            2.85641758487514        5.47835087168005        2.84009247790986
H           -3.53072712201023       -4.19169889382345       -1.20553474248863
H           -4.62149807637706       -3.07894289161166       -1.53559767684868
H           -4.86609393091293       -4.43447638997339       -0.10636226383643
H           -3.79266836737730       -5.11501941376615        3.62743998027385
H           -2.70986274330602       -6.02815096110305        3.11805015536771
H           -3.79954032030067       -5.47653134952415        1.88869923981529
H           -7.25084203772265        3.66289958257010        0.34176216409807
H           -8.67097291244710        2.85273612989160        1.33415894020428
H           -8.24507345979522        1.99757390386026       -0.14594887781670
C            0.39241284403530        5.43114843729642        5.11349005859192
C           -0.36493017149819        4.29720385980157        4.59794096890046
C           -0.17243643794841        2.96977632117307        5.25118674773226
C            0.98482115586290        2.88286879498087        6.04105966364429
C            1.73164076167201        3.98352523544088        6.49616827087828
C            1.53145793237350        5.23576547649608        5.92460132912796
C           -1.07043106250390        1.79682911708079        5.22556161507600
C           -0.39171552237733        0.60137166797709        5.14530573303579
C            0.89413394911380        0.63261287194837        5.43239915951283
N            1.52151721190166        1.61922542663185        6.11252930455283
C           -2.45973588032360        1.75079256583823        5.25919546489495
C           -2.93144468459194        0.45666814851370        5.36872911223385
N           -2.36509992398601       -0.69444205920234        4.92947030555125
C           -1.07039830622015       -0.66046260476559        4.70007168206744
C           -0.28575541974743       -1.81216930626276        4.98342050572652
C            1.07100224438088       -1.82198230209044        5.07109735066256
C            1.63145100795852       -0.53499472752160        5.30992090122249
C           -3.29020024637885        2.77735055077953        5.89000033328471
C           -4.68502630901752        2.56797417342901        6.12085828521932
C           -5.20502506921720        1.30213575368239        5.85089347839593
C           -4.34308973707239        0.26574840400609        5.59817992215188
O           -2.51389503197618        3.92192324992743        6.35244427320335
O           -1.25329198381318        4.50129297171477        3.59083645946703
C            2.68031093137912        6.38984349506621        6.09173388376235
C           -6.65341198758572        1.12633548456915        6.09056160608798
H            2.57491414885038        3.93995052868750        7.19655879470549
H            0.06916939852072        6.31751318729140        4.75221540933850
H            2.70679870227857       -0.55547472688983        5.55607030161373
H           -0.72370801245229       -2.81316440219851        4.77776562791623
H           -4.61890606562127       -0.75222260029430        5.62121542896600
H           -5.28222776531387        3.36009956334195        6.51717874075085
O            3.15708221454567        7.12857973402426        5.27347142057354
O            3.05671487403152        6.56579045115412        7.34552694666916
C            4.26974102069957        7.32615817192000        7.38413848885243
C            2.02148647825755       -2.92272783886455        5.09949555809415
O            1.87220734544530       -3.83938060582571        4.37550326346747
O            3.16946070085449       -2.86555854244746        5.83712144675793
C            3.84234333247458       -4.05788669719055        5.93204923020720
O           -7.31624235907819        2.06643168678865        6.32890154534352
O           -7.09755289509353       -0.23334101681594        5.95648902351261
C           -8.33215248267357       -0.32283774492574        5.63203071815905
C           -3.30553201062759        5.11510771771680        6.61860227021713
C           -1.34587583428950        5.73189347685559        2.91505141663780
H           -8.52428800309501        0.07813448512437        4.62668679135881
H           -8.84292849777440        0.29646814508880        6.34967898420580
H           -8.40650385709805       -1.46524697488221        5.77074844155713
H            4.90220257895691       -3.98085866762504        6.03576326675646
H            3.59419836984646       -4.84236373797703        5.12972882507879
H            3.45028255202668       -4.68223738407710        6.72217572243918
H           -2.05354318417157        6.48795530169383        3.43020371842095
H           -2.01911039198948        5.73726574037514        2.06006252250208
H           -0.36220160522840        5.80345172933543        2.64350668939961
H           -3.68311026327833        5.52631494864980        5.61039141404953
H           -2.79847547567098        6.03334024335609        7.05667990827101
H           -4.10165801337446        4.96514404113136        7.34799968750370
H            3.97475870506234        8.42371276109392        7.33342563049906
H            4.81037358329366        6.87957930899238        6.49164745022628
H            4.70930882156469        7.13722011614858        8.18002054971800
116
 energy: -22.737001133897 gnorm: 0.514875168220 xtb: 6.6.1 (8d0f1dd)
C           -4.84287251932227       -0.79498271564817        0.48438740092198
C           -3.57253787693069       -1.44818540822965        0.51221230927029
C           -2.59077838606291       -0.92508599674315        1.28352362838150
C           -2.79387202059190        0.36196822552726        1.76209666945949
C           -4.11758055539676        0.97806714073730        1.79104724810498
C           -5.16508343682757        0.43814696109319        1.11351633590992
C           -1.36999719529414       -1.62188742811416        1.67264684348028
C           -0.35228482199463       -0.76627376399630        1.96538460963398
C           -0.73390335100894        0.57750423185895        2.34834365921770
N           -1.88797513066186        1.09317332955784        2.40196991737999
C           -1.08183543904647       -2.97982493662382        1.41351874233876
C            0.31519691472824       -3.20348157946005        1.17581812125564
N            1.29993897064736       -2.57227102791928        1.86799256169004
C            0.96309610361518       -1.28841158328025        2.02435908331278
C            1.98705139028747       -0.50834344253669        2.44688001682832
C            1.71754553713188        0.82176820574030        2.90856462751273
C            0.37407581206153        1.22916788924526        2.86069015007727
C           -2.15256879386676       -3.99856369528912        1.51874309672470
C           -1.79869461330229       -5.22795029026080        1.10924767480134
C           -0.54161419699252       -5.35056121097751        0.43712570806323
C            0.43187066117295       -4.47110986866936        0.58790071264665
O           -3.35725725771405       -3.79733322495072        2.11486221720825
O           -3.21133207124306       -2.50937914857369       -0.28033307504148
C           -6.54338341729027        0.96657006049204        1.16516362671572
C           -0.24490705729087       -6.67645571668271       -0.32234733102075
H           -4.24351658163313        1.96008578734784        2.28667615224992
H           -5.49424060852837       -1.18899163835060       -0.25359613586803
H            0.11968013942457        2.16944799127296        3.40222291699705
H            3.01468084089377       -0.79228229090781        2.32900627228133
H            1.39038535730918       -4.85775382803248        0.32350865905337
H           -2.62312365557615       -6.01855448176694        1.23026946004794
O           -7.49610119097230        0.18141093158604        0.83019696034215
O           -6.75373172405382        2.16148223899719        1.69373515611818
C           -8.05607040345202        2.38460071188166        2.06580080212939
C            2.95573326136421        1.64267137890918        3.22460761203617
O            3.98437299328668        0.92447929321190        3.33310136084500
O            3.00283294547009        3.01142138548588        3.33260339670125
C            4.23488751078316        3.60757985141585        3.90087807061058
O           -1.06546139458183       -7.63116277594669       -0.45486045824139
O            0.89544979326021       -6.81787760172431       -1.03961460424486
C            0.95708622164500       -8.14069864025262       -1.58609655355781
C           -3.94683211941096       -4.93156390402261        2.78023994143359
C           -4.01189104405890       -2.62876517264874       -1.56569892955764
H            1.31084650099335       -8.92229625358129       -0.77230196914329
H            1.68675217552017       -8.22674025363321       -2.38102959685021
H           -0.08266687062368       -8.25717602609885       -2.06276541476865
H            4.01134339055434        4.47500906150698        4.52794535940564
H            4.90291018458760        3.88430274864584        3.07261826410022
H            4.83223626320527        2.82574248945628        4.32593980439390
H           -3.41321515959816       -3.12472461938215       -2.29305068476725
H           -4.28750787486873       -1.65356049894211       -2.06271473887979
H           -4.93053607801491       -3.30393131021220       -1.40188142303861
H           -4.46024727912770       -4.31217608922038        3.50232345074269
H           -3.13532879232399       -5.51075367267142        3.19549614020870
H           -4.51732584123099       -5.32171599777590        2.00030969144135
H           -8.27623100598086        3.43156379932641        1.90542817692429
H           -8.08132741120102        2.12287730352612        3.09907400236782
H           -8.72980630317587        1.76394859357724        1.40179379242241
C           -0.00842250054180        5.45893679685896        4.68573479616770
C           -0.63715341754078        4.22932030227564        4.75252051949774
C           -0.09949026573912        3.15388530720269        5.63169223382248
C            1.27860807765306        3.28188934464698        6.08441654601965
C            1.77057745636121        4.60073236181620        6.13070075118407
C            1.16609934220799        5.72308521647555        5.46767850373834
C           -0.79576047477130        1.88755098630511        5.90545768922400
C            0.03127731179653        0.74595138174196        5.99187678709396
C            1.48185338299184        1.01634913067752        5.93111793145528
N            2.00566358984391        2.26467295911200        6.27786817277409
C           -2.15842920338796        1.68058451607463        5.68612202448619
C           -2.57362474173616        0.34956697576941        5.46013079815517
N           -1.71012818516451       -0.72620918028394        5.55760845970124
C           -0.44269959778686       -0.62420049778576        5.80004711690685
C            0.51561359675609       -1.75198474619858        5.82502238375949
C            1.94667376799063       -1.43976931852523        5.92683110413142
C            2.35133108912663       -0.16770052439114        6.11788557921459
C           -3.13237679678295        2.64686561076290        5.65199422548240
C           -4.53520984834233        2.33410718780787        5.49234046908481
C           -4.82989662625789        0.97946238288661        5.41729177886836
C           -3.87858764888772       -0.03607923176207        5.43861284499355
O           -2.85288202162663        3.93439250653107        6.12735957340697
O           -1.73794915705186        4.03348808462028        3.83900047341847
C            1.73037660171093        7.14235694558459        5.58530835921345
C           -6.16358392424014        0.56111343778457        4.84356921877781
H            2.75529306448014        4.64226738291817        6.63565233717997
H           -0.57163918360820        6.32864290127811        4.38463651331525
H            3.39436938529238        0.08234570440380        6.03265002349185
H            0.16428977969127       -2.61465069692255        5.46567566266489
H           -4.14177490634205       -1.13042089290549        5.31138160120456
H           -5.28834099518095        3.09474521047149        5.57636492240415
O            1.03816809351119        8.18765398873012        5.50339398527513
O            3.01492955908657        7.25757032342800        5.73221798609864
C            3.43221590000751        8.64518019434369        5.67701458133678
C            2.92774360344564       -2.55138725195284        5.79680506724952
O            2.62009418107280       -3.71105370813643        6.12885596740398
O            4.08288440424277       -2.25995499156879        5.12203119195483
C            4.86426058775508       -3.37867486511128        5.45731908162725
O           -6.79621557916019        1.45772470707691        4.41642213879803
O           -6.82940876833502       -0.67059160705329        4.95519843553826
C           -7.87982501430488       -0.67329228859111        3.92946000250192
C           -3.93178646936778        4.94518441137099        5.72615661700033
C           -1.45899386035857        4.35111949039367        2.50151312940292
H           -8.60026007462441       -0.05156381435763        4.46284378357428
H           -8.32772630980799       -1.67514395014939        3.84660539476989
H           -7.55968758434209       -0.19447488827395        3.00504872115455
H            5.72215741564487       -3.25353015295110        4.80046199038673
H            4.19477991644518       -4.25215705154189        5.31555716138519
H            5.17517503870616       -3.17682516572743        6.49604502109742
H           -2.48515489863746        4.68030386271488        2.24764539589394
H           -1.21561893684864        3.55220200974436        1.79800633230675
H           -0.78476440437496        5.16264636597173        2.46860146667426
H           -3.93548098593467        5.19530190139852        4.58125300176680
H           -3.82696835474033        5.98157711660264        6.25382039184083
H           -4.83043346809663        4.59592758913475        6.13841981732674
H            2.81692959583106        8.95700677747801        6.41236919194640
H            3.14584781002087        9.31863617107171        4.73790412690493
H            4.41628302523041        8.66842531329096        5.78327344769594
116
 energy: -22.717354196433 gnorm: 0.506736131872 xtb: 6.6.1 (8d0f1dd)
C           -4.55068902705585        0.25215442960362        0.19457530174085
C           -3.51768997746513       -0.65233789133103        0.24633606789088
C           -2.31771753552573       -0.44911655436810        1.13271516066740
C           -2.21465753209194        0.72929701727900        1.85030717298575
C           -3.30217849343741        1.58961687415905        1.72890080053855
C           -4.45864748117182        1.35474751939988        1.09554668769581
C           -1.23461254773499       -1.32058005370161        1.09022442002128
C           -0.07863983559657       -0.84970114606138        1.59555384343355
C           -0.03014534119653        0.31011893180765        2.57850898775178
N           -1.15941352913061        1.01171568562130        2.57214280807289
C           -1.18705285973290       -2.73153820338779        1.00449404339057
C            0.06434766045616       -3.33032119350877        0.93673995736859
N            1.26790781282903       -2.71232455778619        0.90375306228298
C            1.27880562311332       -1.47765517726582        1.36391915572783
C            2.43160738445941       -0.78264296282786        1.87889638209041
C            2.42429433741715        0.35403783302835        2.69526871699083
C            1.14808768362545        0.79127198012968        3.13692827669548
C           -2.33281079585834       -3.53074279779549        1.14094409838200
C           -2.28109942613967       -4.88036005719265        0.79668690541180
C           -1.01196587396298       -5.53884043574846        0.75088598860163
C            0.11641863686393       -4.74428827271063        0.58532529689887
O           -3.45362190012629       -3.01905733698012        1.76912384970729
O           -3.48225262613651       -1.61163342060732       -0.77879365918324
C           -5.65728481392363        2.25219371248539        1.07843963310694
C           -0.97766948258996       -7.02631385622474        0.50360879005905
H           -3.24714672729998        2.49042145947496        2.31890558496905
H           -5.46699855997696        0.07790776579400       -0.35675975333501
H            1.14494364598017        1.88095574969804        3.38175471781772
H            3.36003976645192       -1.14392572875610        1.48501426359327
H            1.08763798403831       -5.15868027348409        0.46196661358476
H           -3.12685749915608       -5.60033851658896        0.73670331095444
O           -6.62209773600291        1.96734668382473        0.44834996921267