116
 energy: -22.775516096166 gnorm: 0.458193959009 xtb: 6.6.1 (8d0f1dd)
C           -1.92504266759867        6.75147079104393        3.91360146970027
C           -2.43987951369456        5.73790614487721        3.15956328267410
C           -1.63621418081891        4.55036695375388        2.82577385088680
C           -0.21308871081793        4.73212075213726        2.99800819012024
C            0.31928961463348        5.89554720109277        3.59412717189905
C           -0.44875374172541        6.85696675864612        4.10261589257763
C           -2.13440363923979        3.28000637721721        2.51070528329724
C           -1.21007391016083        2.30557028958395        1.94046071041446
C            0.15305981593245        2.58403545736449        2.05720928923535
N            0.58821668521922        3.79683602456984        2.62742437843322
C           -3.44289260206690        2.85376384096045        2.47954709132258
C           -3.80543767292968        1.83719309428360        1.62332836970556
N           -2.92127202865670        1.10103187567812        1.01560016420969
C           -1.61619566499724        1.18630284710314        1.18789348722967
C           -0.62382719131270        0.18605719929214        0.72026518776125
C            0.72205545516471        0.37411541651174        0.99381193357082
C            1.12993946929983        1.61260127742925        1.63362509412735
C           -4.40638001085038        3.51058482587251        3.35614713334076
C           -5.73810832119885        3.18768716308027        3.07917735378700
C           -6.19303274909435        2.19432184976236        2.11368098731016
C           -5.13035172052032        1.52386370121023        1.35685244423848
O           -4.09803915812014        4.30640612749139        4.41356751907443
O           -3.64707922164985        5.73070028645412        2.54127117794760
C           -0.00515563813206        8.06601343276625        4.80378030571685
C           -7.60042369751986        1.89889273338763        1.93150622489867
H            1.37698612289346        5.93908858663963        3.74610758840294
H           -2.63593388183268        7.37126745516088        4.46698246726377
H            2.23422982439553        1.83093028820252        1.84945083608848
H           -0.94950508790876       -0.74772551469676        0.22582982676876
H           -5.38434015865957        0.86221462105629        0.57138640029747
H           -6.41298602836835        3.67914159062229        3.79438286825431
O            0.97598172698155        8.01364025769659        5.60434052113483
O           -0.82304442902922        9.16622344022235        4.96960685237033
C           -0.35965359149347       10.15682042510182        5.88859544087249
C            1.83867786225835       -0.59565035869014        0.56834626259696
O            1.45788080378543       -1.63920971650351        0.00060730993520
O            3.08223197001530       -0.43144828368697        1.18829768795233
C            3.90636195705970       -1.43255030681889        0.94417589092767
O           -7.94812971520380        0.73632163705468        1.95309522271462
O           -8.41654806402347        2.99821245510175        1.43385659532198
C           -9.44573200450078        2.39789281744891        0.70749965902955
C           -3.34940747470012        3.50552919165429        5.48974505988486
C           -4.64669158403207        6.54796676717141        3.11507360378488
H           -9.50740221144651        1.32733069476753        0.97331718526217
H           -9.49340901552253        2.54054980022366       -0.34277779822345
H          -10.37098074952307        2.81466367348643        1.03440422759164
H            3.29124039569125       -2.33443265728324        0.62762632948926
H            4.51243721275300       -1.53950731544578        1.83577074511605
H            4.55201916898331       -0.99390191232972        0.08490823487677
H           -4.83029061494040        6.35348759044136        4.21197974406175
H           -5.50054392831301        6.52368182427819        2.52808829772427
H           -4.27035357986649        7.57302798072523        3.12846106646240
H           -2.49881095031965        3.02563484262542        5.07105792629350
H           -4.04642639331762        2.83151274302228        5.96150358538902
H           -3.04959521204340        4.07689365147266        6.29848435174881
H            0.15190181547116        9.71177023758318        6.73088793572868
H           -1.25834414242086       10.75915974100316        6.16147170712925
H            0.21612106703536       10.86163780088783        5.24480262196140
C           -2.56393616176522       -3.66219572196702        1.43032943902400
C           -1.31610986491741       -3.65359060007172        2.07078318575618
C           -1.11117143102667       -2.72706675247436        3.21992423642103
C           -1.83745541921199       -1.48985107204784        3.15645169282094
C           -3.10256199787075       -1.56409876148866        2.48594920715357
C           -3.36300981843181       -2.49926860330348        1.48366920964772
C            0.00946092973327       -2.92852775263380        4.13827837290232
C            0.48378112028422       -1.78098949602176        4.71550142955562
C           -0.33905305941543       -0.52791957908289        4.74684783663873
N           -1.44909431149363       -0.42944678570789        3.90699721469417
C            0.63350487642380       -4.06190666896174        4.67674016761308
C            1.87976247005396       -3.96931895826968        5.33179603083149
N            2.50383728003477       -2.80179520377065        5.36094098855322
C            1.82509581761902       -1.67636924809041        5.17685441543005
C            2.48832445289872       -0.52454716218904        5.61622287940058
C            1.71484386501736        0.67876193591314        5.69262431407288
C            0.35156114575183        0.63619750827777        5.35149003868357
C            0.06184264765172       -5.33361680364842        4.46232743400824
C            0.81180648837377       -6.48838682465401        4.76824053747089
C            2.13056906214469       -6.34478837563544        5.41377929396202
C            2.63650265813116       -5.11222550826820        5.67327723377548
O           -1.19649054242978       -5.48462474660914        3.96259356697994
O           -0.31507820471770       -4.62811725328373        1.80675694931548
C           -4.62607186233052       -2.36258451791709        0.55739397710627
C            2.59358322293285       -7.64288146245588        6.05928273015122
H           -3.98516028987666       -0.88019653887253        2.84431937588696
H           -2.89773983427441       -4.32261855033343        0.64413544249194
H           -0.12743165448375        1.49676706551683        5.37971029986463
H            3.61955209257839       -0.59727661840639        5.66653811272643
H            3.61964012201623       -4.90198432632148        6.02217347844552
H            0.45028382476606       -7.47722971538538        4.45075533267678
O           -4.89948941295035       -3.34449172525627       -0.12290235344705
O           -5.40138146913117       -1.24768453088956        0.66227882464997
C           -6.64807701993167       -1.59482721706050        0.05743287985216
C            2.31595843855339        1.78964689758155        6.34996239072777
O            2.73658482181204        1.65840047753223        7.49621049866002
O            2.51922473413853        2.99380164922047        5.72678307863932
C            3.28058262604581        3.79775085590861        6.64862676730811
O            3.49106330750493       -7.51190000213123        6.92256407794372
O            2.11057322663478       -8.77043861630783        5.52447748365329
C            2.54618640975233       -9.94624457628209        6.19810425908042
C           -2.20500938837648       -5.51790144551236        4.82418410541013
C            0.03768674774022       -4.87531376231033        0.50414523967992
H            2.96250762618847      -10.54389844423652        5.42048796450831
H            1.64240209659768      -10.36962047803660        6.76198049156574
H            3.30457017640954       -9.60505270673146        6.82621940538202
H            4.27265280497521        3.39806201620203        6.68118999793013
H            2.97412816305418        3.63471900213200        7.72506009596561
H            3.30761847339873        4.89306298678793        6.52437120087905
H            1.00360339521307       -5.36109498936576        0.40123476402597
H            0.08994769585501       -3.93610929787503       -0.04134905379895
H           -0.63734836092213       -5.48178494277777       -0.05198660980835
H           -2.03251050186862       -5.97501654280027        5.81127435512606
H           -2.91551248359748       -6.23912759803525        4.45088768031372
H           -2.68404276372898       -4.52499325424856        4.88516279282546
H           -7.22235332184356       -2.09084417207555        0.91988264645395
H           -6.39105990597978       -2.13532838770398       -0.86020878513489
H           -6.99326640124439       -0.57554357410220       -0.27674876599163
116
 energy: -22.675235894998 gnorm: 0.488774827223 xtb: 6.6.1 (8d0f1dd)
C           -1.44421504530287        6.73217904251992        3.96259488109592
C           -1.89265735214867        5.83624471481656        2.93245871060354
C           -1.22537965755814        4.59171420466645        2.83261701565665
C           -0.00938896799277        4.30290536938601        3.47423914806646
C            0.54943873124601        5.37283713424858        4.08373407430598
C           -0.20148980589676        6.49961623401038        4.33978950630892
C           -2.01344914204996        3.46820489206230        2.30940515379940
C           -1.29848968344964        2.30326680993246        2.10482285189576
C            0.12555205154107        2.27697152471689        2.37976109206292
N            0.63663315024781        3.21768179514784        3.18505693801193
C           -3.41425671313897        3.23298214918294        2.44827107916074
C           -3.99178870638745        2.03872856725631        1.73568866052518
N           -3.22709697150778        1.21136618366195        0.96337891693240
C           -1.94413428328013        1.26984306951783        1.32925516616994
C           -0.97637181996378        0.53094625002651        0.58531535710905
C            0.40088671417203        0.31533280777219        0.99406474061243
C            0.91746949562225        1.23938666048833        1.91367793618091
C           -4.36831606986036        3.98992321658528        3.15296014421452
C           -5.72026086018503        3.96467108044236        2.77155060032020
C           -6.23495666708995        2.98051983992389        1.91729106549325
C           -5.35742159785721        2.03780822797684        1.22717657474434
O           -4.08153519244530        4.44298822718702        4.47065822952435
O           -3.04897998972513        6.18081417952036        2.18469065829958
C            0.59610724261424        7.63628582574292        4.93603316959739
C           -7.80088445021069        2.89640212566103        1.72213454516588
H            1.43035771833576        5.19238413962972        4.63253313275356
H           -2.02776323563875        7.51967107004847        4.37774731294803
H            1.99113390939147        1.34792308343265        2.05360033181354
H           -1.37922404295946       -0.12211519195781       -0.32964404359604
H           -5.63846962615225        1.69435212924879        0.27025925433810
H           -6.50639908703735        4.50747712923406        3.17283823254632
O            1.61590690634763        7.34582415648811        5.46421240535246
O            0.20645859394331        8.94435616265120        4.61096018191458
C            0.37331245896233        9.72571224399650        5.65030611448149
C            1.29865602988328       -0.82494227368429        0.79844572614669
O            0.85550168991752       -1.94549056583593        0.70262403820594
O            2.58404889256045       -0.43845671075502        0.61774083444884
C            3.52181220624580       -1.55811033722040        0.40027906810474
O           -8.17294779641576        2.30291233789548        0.73899017681423
O           -8.57614238660468        3.69439252395159        2.38086859551032
C           -9.93884043232971        3.71433863966498        1.81775810475754
C           -3.19367192295682        3.72484463928173        5.25778575436511
C           -2.96641611677677        7.56436454486026        1.81233709022387
H           -9.90627434097141        3.62125659045524        0.68011386259593
H          -10.20242409898538        4.77147535523198        1.97578537379556
H          -10.42138050812291        2.84280936951139        2.43729487482328
H            2.92218343643418       -2.55729152202075        0.53876456161748
H            4.23526209276612       -1.31458289712092        1.18213498934427
H            3.98613434611217       -1.38262896181302       -0.57466375317529
H           -3.67705795749778        8.14845415791076        2.23529536032348
H           -2.84607763362615        7.55668612291295        0.63686139321607
H           -1.99992636483929        7.88553323307935        2.06855143382990
H           -3.88853381700646        3.30006582173946        6.04718331360939
H           -2.49913305643874        4.39711298817822        5.71525224399898
H           -2.61238278746156        2.85640707697813        4.95021122711148
H           -0.16433823956293        9.25603153392381        6.48611815718144
H           -0.40869868253321       10.59732753994681        5.74206851702273
H            1.38298334695128        9.83298222829481        5.92628945585948
C           -2.30100828610168       -4.00670709590005        1.08580544072599
C           -1.17382519983124       -3.96293165704557        1.94354468152025
C           -0.96724694985766       -3.11461303360345        3.04115393768086
C           -2.02781730030697       -2.17358257750035        3.23637719631689
C           -3.18903617378168       -2.27274215267972        2.49732188059640
C           -3.36382103904870       -3.13521286323041        1.45980222560688
C            0.08587463601522       -2.91921533170302        4.00993994881546
C            0.35246254322033       -1.70426293190363        4.65278411496572
C           -0.75688957326846       -0.80658853185403        4.57498369458494
N           -1.93089943622120       -1.08516183777090        4.06588479842037
C            0.88788180073222       -4.09936592823657        4.33624127759309
C            2.06892591891429       -3.85453278380314        5.12080213672468
N            2.42938436008255       -2.60697655273171        5.64858933780624
C            1.42674905177195       -1.68459736337158        5.60072706786512
C            1.52247191963870       -0.43042414350604        6.07985889697579
C            0.65447991952475        0.67877114127658        5.85244579386368
C           -0.54276508960101        0.42820841165069        5.17310672902017
C            0.50097864376267       -5.51001100963856        4.38650414408111
C            1.43719725991610       -6.58488070327470        4.63683840675343
C            2.70213803154417       -6.28596285186624        5.05486927872144
C            2.99820564622131       -4.99779570072608        5.50195334530488
O           -0.85639376840665       -5.85222744239580        4.13014968101491
O           -0.10155341421387       -4.73857103240291        1.55415117270873
C           -4.65697076362314       -3.20337470078628        0.74724306510983
C            3.60092279246906       -7.40914948156528        5.36247141339344
H           -3.84197621712764       -1.42367489477765        2.70049141723559
H           -2.46051031029171       -4.82066032471340        0.37061928562592
H           -1.24399858809230        1.17575469628758        5.02575668851651
H            2.55500471220277       -0.26298991251150        6.39373679844850
H            3.91048046158279       -4.65465817972350        5.93090051851734
H            1.07049277991438       -7.65014514157000        4.76403299398967
O           -4.63158520957257       -3.82439159457555       -0.28935926488957
O           -5.65508112686346       -2.29139244861961        0.93488802535317
C           -6.64085854917803       -2.47682102246022        0.07853805363775
C            0.84675760285426        2.01063985808939        6.63324541153534
O            1.92273235854439        2.21069976348777        7.09822604043634
O           -0.32801407464350        2.73315979257124        6.82340488073431
C            0.03613867074984        3.69175875074831        7.80254362948742
O            4.45449528020787       -7.64347148245105        4.59988250118249
O            3.51888654788694       -8.17448738569575        6.57012873186253
C            4.44159306132715       -9.33266428645931        6.78501701741873
C           -1.60045072961957       -6.06711492463004        5.48705359853372
C            0.06794660651696       -4.83670311225802        0.12874109809674
H            3.95594528499802      -10.23868143383591        6.48100676770111
H            4.71670759945731       -9.47189492479866        7.93869857086856
H            5.41267722195380       -9.27527477652158        6.26176062383918
H            0.93313960601110        3.39188408493436        8.20717083769278
H           -0.84123035582653        3.55062177584826        8.47268770326199
H            0.35472325039558        4.63686578005105        7.31947354451527
H            0.88808311990897       -5.43875116837269       -0.40980664044889
H            0.50338146894436       -3.83780292264661       -0.22610449834048
H           -0.86553451765748       -5.29092975816643       -0.21837676574180
H           -2.56771249638654       -6.43950874158093        5.22541285167904
H           -1.77348818081850       -5.25945847272283        6.20870428883334
H           -1.03638980469253       -6.88055365829535        5.88757567512551
H           -6.28095642664854       -2.67512177936770       -0.96435079125473
H           -7.18356538964967       -1.49941054485044       -0.02493050000775
H           -7.34450693039680       -3.31391084791207        0.54572004686735
116
 energy: -22.743228105152 gnorm: 0.484335983182 xtb: 6.6.1 (8d0f1dd)
C           -0.83247566934178        6.44223306181905        4.07654803849636
C           -1.43528666157740        5.59393157414864        3.17966393640406
C           -1.14449712920304        4.14617862936328        3.05142991364077
C            0.16938807337716        3.77803587666708        3.52653287536124
C            0.99521198796059        4.78170673576231        4.26905260624959
C            0.52273266094074        6.06688900742305        4.41983374937703
C           -1.92406483286887        3.14035396383141        2.33728165972930
C           -1.31818675539148        1.88980597498500        2.08406871246003
C            0.01248103994645        1.63174993318915        2.54709282885937
N            0.69227975987660        2.53888073129104        3.31509165949961
C           -3.24689812551214        3.20332449301623        2.12001522550440
C           -3.68677777820234        2.21628209365156        1.19214438555894
N           -2.95050140042310        1.38201941419850        0.41964893423420
C           -1.78904065095059        1.15699347340642        0.99002976382689
C           -1.10901050695764        0.00109860207471        0.64652029214764
C            0.08037245952533       -0.37934291940352        1.21181323392664
C            0.63014446077368        0.49715990271848        2.12886159412001
C           -4.18191578202964        3.88923016072578        2.94875040266909
C           -5.52412642723972        3.87874503441926        2.64542198021086
C           -5.97749171216575        3.02953728070058        1.70633023326650
C           -5.11613318374833        2.21918694045165        0.93185679142958
O           -3.80802203843864        4.79174998436657        4.02814175666923
O           -2.49425927983904        6.09848725663717        2.28804389014275
C            1.23820261057547        7.08744356970738        5.29684819032833
C           -7.44801800741938        3.11385666761270        1.18631972343534
H            1.92248612128293        4.64796492061592        4.69974236383531
H           -1.26339015890519        7.39350616093512        4.21460080299928
H            1.63222887087826        0.34108789435182        2.51679600328768
H           -1.48641680456730       -0.53583705744761       -0.27243476034703
H           -5.47547496500010        1.64604276656958        0.13173239478383
H           -6.19789473314970        4.23183768264544        3.43075034966193
O            1.99852967991266        6.58339116726707        6.13654515689723
O            1.25352309719143        8.48765463791467        5.20067246858480
C            1.81960610888022        9.23530132778559        6.38740548919382
C            0.85674677806537       -1.58793549448173        0.94250080163404
O            0.79659222927648       -2.14921458788513       -0.10302266012440
O            1.63727453705927       -2.04820846743360        1.94996702077553
C            2.28455020403139       -3.26024953200657        1.58472094154325
O           -7.78326796812340        2.36100092252277        0.34098462991650
O           -8.31205996528924        3.78367337477279        1.95831400786992
C           -9.68811147809890        3.30098273757381        1.82705481405979
C           -3.91730850678691        4.22399990491547        5.36401187533425
C           -2.94066446413294        7.46832335884057        2.42135512168288
H          -10.39605488128061        4.00527120184258        2.22713329300117
H           -9.79738989083811        2.24953639581420        2.14987969627679
H          -10.07254726859665        3.14264163750417        0.79414801183326
H            3.31783062331587       -2.99952144887188        1.33197462536977
H            1.67494106701398       -3.72984039222624        0.72003496879566
H            2.28800564351081       -3.98453668422836        2.33927263880367
H           -3.78648283786105        7.47733004812098        3.02285299389669
H           -2.87806930072666        7.87860377039987        1.35232475928388
H           -2.18134306763531        8.16381327974216        2.89164150918030
H           -3.18312415762441        4.78557838937134        6.09343881255054
H           -3.60075939461224        3.14028577011868        5.18487863387501
H           -5.08067350335558        4.28211942001848        5.64661108528455
H            1.18838940815298        9.17634570022098        7.34737470699314
H            2.01777692287617       10.20587661200516        5.90890456700743
H            2.90426801675582        8.89091207294196        6.56434792030744
C           -2.46201094999782       -4.32553975499559        1.67674065052988
C           -1.32376319190026       -4.03555170236331        2.28768789611966
C           -1.46356277234200       -2.95648082917052        3.23744070323393
C           -2.48372615763923       -1.96450528400358        3.19917157841971
C           -3.60549638925319       -2.22799003348101        2.49430946256735
C           -3.61373724114575       -3.44874177252367        1.76713992766191
C           -0.43870740307018       -2.74978706132185        4.16053608917606
C           -0.20930601865754       -1.49983526747353        4.66480333717015
C           -1.21843090132900       -0.56809303808840        4.51085890981214
N           -2.39346854796076       -0.77672654626762        3.78872714167131
C            0.69343959806767       -3.63947785241573        4.64509277023747
C            1.95091611389614       -3.07752462435359        4.84886369851620
N            2.15269163988220       -1.81987902608937        5.30622179982248
C            1.04815572875829       -1.13294520311748        5.28368983322449
C            1.08820146625407        0.10695833360615        6.01372875096198
C            0.02386862095062        1.05044102463681        5.93288588000518
C           -0.99213886526537        0.67483720532840        5.08112601448984
C            0.53604477192636       -5.01062953929791        4.70261358417986
C            1.67860284128797       -5.74885521074570        4.93447458338948
C            2.94414502828535       -5.20187226414283        5.03564556407642
C            3.04694513623983       -3.91652474777083        4.98508714336046
O           -0.70178073917897       -5.46006899611497        4.90008959361898
O           -0.10507458013848       -4.52419160096323        1.87796019692084
C           -4.73648530565025       -3.50613697686770        0.80456328268550
C            4.17075163638397       -6.13327654473393        5.10849636807809
H           -4.27119931813344       -1.48034061866587        2.45602076527122
H           -2.56412539340800       -5.28586098013261        1.04508906319194
H           -1.80112679822118        1.44607605178552        5.09095292537678
H            2.04290211961787        0.58043236243053        6.32462409337213
H            3.92340723066930       -3.43135133571447        5.17688993201654
H            1.76597279515499       -6.82480195117046        4.83401739385128
O           -4.75891153179306       -4.37139936567424       -0.01572259576864
O           -5.65114045799839       -2.48842481729867        0.85538401897999
C           -6.47138950953599       -2.25109338898614       -0.34367695216453
C           -0.11342149845990        2.28654723939885        6.63909236865433
O            0.78274203552024        2.44772577678003        7.50579742655913
O           -1.20215437254241        3.03183531855599        6.57506126946768
C           -0.95242779392121        4.19240150540590        7.45123274887934
O            5.14579108958580       -5.98435062582188        5.82579772003196
O            4.02272911694054       -7.25063972871290        4.25963860473752
C            5.31254913557491       -7.91840568865628        4.25091922783514
C           -0.84454000416055       -6.88477222831733        5.38941142812382
C           -0.24373383304269       -5.13256923025393        0.68454909287290
H            5.27840823685905       -8.94226524363568        3.86408498112802
H            5.48026970981891       -7.99477241129359        5.40634952485697
H            6.16293035422459       -7.30365929475799        3.91829910906403
H           -1.53267805423330        5.11858339901887        7.23541483874061
H            0.04480177481901        4.60664410953958        7.21353620969701
H           -1.08583154182507        3.87187263527342        8.55044118082619
H            0.78321360449406       -5.13413419540402        0.31891275242070
H           -0.62597401269412       -4.38631957050398        0.05457968900813
H           -0.45811227196887       -6.22941542615143        0.53845653144718
H           -0.94613098829732       -7.34227152255668        4.46275365195260
H           -1.71589159703740       -6.91830374762014        6.05770183148987
H            0.08464604585268       -7.27855793697740        5.70599999332300
H           -5.83673564971774       -2.29437621047903       -1.16300014873864
H           -6.91093815358487       -1.20929911677072       -0.34305879373763
H           -7.11052414895203       -3.03683210590199       -0.20856786377641
116
 energy: -22.764010124890 gnorm: 0.439453721683 xtb: 6.6.1 (8d0f1dd)
C           -1.13013020550191        5.89614347965178        3.87624840860345
C           -1.85559405350242        4.81942006080471        3.29516970691215
C           -1.10702806466344        3.54677817288776        3.31236069434766
C            0.22180038764394        3.40610558047454        3.74869350077473
C            0.64983934187315        4.49536547761542        4.55945799655939
C            0.07302559186234        5.77516898833583        4.64677413162634
C           -1.74084434972056        2.42869524951862        2.83616764956847
C           -0.90229118864608        1.41127364597028        2.29806278089284
C            0.43228088817690        1.27147319940172        2.70100884710902
N            0.93547854355141        2.31286208768361        3.44534970873080
C           -3.14904126509195        2.41249951326878        2.47600716649690
C           -3.48095931938442        1.43270983049543        1.51880320662895
N           -2.75675732931237        0.49481071247793        0.86543763643827
C           -1.44570475775561        0.48528301249655        1.32455815987525
C           -0.60949162281319       -0.46846684236436        0.81153811752411
C            0.69059590196638       -0.68562985779448        1.20734666936298
C            1.19202050272746        0.13807276095374        2.30917907607837
C           -4.19547111792528        3.11098081620126        3.08740419988259
C           -5.47169712514312        3.16848351494463        2.62703358592604
C           -5.81688023910086        2.32436537087631        1.51564423014668
C           -4.78977943297395        1.42142677712247        1.11087221423025
O           -3.91103434374176        3.69365625692509        4.30102091125543
O           -2.83328100686667        5.13951317639970        2.32517762139570
C            0.65213752427332        6.70883096860764        5.63022540948373
C           -6.97271900620976        2.35673108817676        0.66810457726038
H            1.61605679910626        4.49231770165074        4.94926278159614
H           -1.54222948845921        6.73291322866063        4.18827921081301
H            2.23459214245546        0.02201597962221        2.55191632921869
H           -1.09653701032169       -1.08618437507667        0.02170847515589
H           -5.16028205999700        0.69624652008803        0.41261870011895
H           -6.16346063486382        3.87335557753990        3.12287720166250
O            1.73688555371498        6.44213526475068        6.03718987057502