116
 energy: -22.928061455056 gnorm: 0.329736929581 xtb: 6.6.1 (8d0f1dd)
C           -3.31122850772930        0.79849766164622       -0.92477639677520
C           -2.44380812530352       -0.12270372891954       -0.27661132624697
C           -1.41337090092821        0.39579727573559        0.56335275196199
C           -0.89266158675590        1.65801491088749        0.27377586709581
C           -1.72665675402493        2.51431363229076       -0.49448366572522
C           -2.95444148494349        2.13954154133227       -1.01494489940871
C           -0.74098268209890       -0.43411532818871        1.49825021926784
C            0.56872586496315        0.03782116815119        1.86248088067890
C            1.03782416582094        1.29402317993033        1.50887470833621
N            0.31238977034758        2.07067427098208        0.65193736800696
C           -1.29695700510141       -1.39996043042223        2.41574187746061
C           -0.38243517664656       -2.18060797534842        3.13232615520648
N            0.91308504082021       -1.90366887689689        3.30325166013478
C            1.37712470144904       -0.74872102533751        2.81811050966982
C            2.52149331701875       -0.17739833758153        3.39379298866852
C            2.95849061756259        1.02681208890480        2.95105897606587
C            2.24288949469137        1.78498308775960        2.03503020483770
C           -2.74860936222260       -1.74497937691422        2.38401158947411
C           -3.09416315450955       -2.91614440870436        3.00571134491758
C           -2.16786021984049       -3.77788778654213        3.63251872101904
C           -0.85708937311598       -3.40495313382985        3.68547234358092
O           -3.71994433332149       -0.94984598373544        1.67726658385724
O           -2.55702603277562       -1.47241711578389       -0.57241635275616
C           -3.84297843593025        3.13357444054366       -1.60938954875544
C           -2.68769581069131       -5.03867041417370        4.30484659386931
H           -1.39666850744143        3.51251503834900       -0.76806311868865
H           -4.27662633836220        0.55105838579656       -1.33106614114542
H            2.66329581305412        2.73912661909249        1.72562431984580
H            3.05775395548473       -0.69369546277216        4.16536137542516
H           -0.24710966264510       -4.12034095424229        4.22946223699121
H           -4.11477991332403       -3.04712728052358        3.03244694615357
O           -4.21824883374556        4.03433712717988       -0.87713382485991
O           -4.44510595673734        2.90643496899600       -2.81853501752979
C           -5.44216520282800        3.83300025693726       -3.02488532025093
C            4.23586651889298        1.50004220933226        3.59165660008449
O            5.05927614697201        0.66079890002952        3.91714215179376
O            4.47001334453535        2.86385149488593        3.72605651435371
C            5.79457498613219        3.08584475587818        4.15829123132174
O           -3.82227255313510       -5.27347675879771        4.16636005494405
O           -1.85023202017753       -5.79767454267276        5.06656077253571
C           -2.55119635829503       -6.86252441382958        5.62930343183426
C           -5.07197156564436       -1.42399175670916        1.58830531863830
C           -1.33089900128490       -2.23622472573986       -0.99264499351172
H           -2.54510546830388       -7.76426885143998        4.99136022291012
H           -3.57194749219491       -6.44405511486021        5.74196173723541
H           -2.09133598235598       -7.02043774843818        6.64022264233588
H            5.72707967266424        3.46798026205549        5.10135971236643
H            6.34060091246885        3.78468702308830        3.50069950143490
H            6.17933064298187        2.03010500085905        4.19342358084693
H           -0.91862729772622       -2.57650129080332       -0.01361370304871
H           -0.49769766914251       -1.60651221708571       -1.34094446550576
H           -1.52632419730509       -2.94569707152159       -1.75361447637286
H           -5.11788846557077       -2.41810833635233        1.17520213188926
H           -5.67929807973498       -0.69619639428435        1.04301666067831
H           -5.57598832326623       -1.42383358739762        2.57928294206544
H           -6.13050215934830        3.76035386975488       -2.23272855695873
H           -5.86615610071888        3.45938329385866       -4.02668959924245
H           -5.13479557532099        4.87790991548477       -2.98314551356402
C           -1.38192942069774        3.73616555005018        2.91232598411686
C           -1.84821468128685        2.59982427735607        3.49755545445181
C           -1.05946531454833        2.05730632010638        4.60922730982276
C            0.19893954712228        2.69376791964407        4.86302140881997
C            0.50425395911860        3.94630308659851        4.28768785650746
C           -0.26031777722226        4.46998310053134        3.25072669343212
C           -1.20488993561782        0.74454293276906        5.14851520323437
C           -0.06287609782692        0.02744069315890        5.60930570802864
C            1.19208754369866        0.71421540266195        5.78882868583885
N            1.19428660993148        2.06344359410476        5.62744624321596
C           -2.41361422770794        0.07928500213936        5.25249410304426
C           -2.45851584031083       -1.32662100968547        5.60237876023992
N           -1.29466212405906       -1.98318595734370        5.89916817085159
C           -0.14475655767527       -1.32117560077092        5.98824682881008
C            0.97209270935794       -1.98958449505532        6.53157704134458
C            2.21982707914082       -1.36973967291181        6.68703967237737
C            2.30561929262884       -0.09745313075593        6.26436900324455
C           -3.73018485967715        0.71367583494582        5.25810242262992
C           -4.89964478833448       -0.06184623426677        5.21204641615509
C           -4.82617965800088       -1.39228978090841        5.46901303780036
C           -3.67144193418464       -1.98914944386360        5.67265433266067
O           -3.75568638935321        2.07705011038914        5.52067969627343
O           -2.94192434743730        1.91263938797883        3.01658762327703
C            0.21273512614467        5.50086066357994        2.34765104514621
C           -6.06660304520411       -2.17604633098929        5.80641622556876
H            1.41756699010566        4.38133362238595        4.66974005703471
H           -1.82880610647429        4.11982501512100        2.06992133318584
H            3.26888037378556        0.32655662585251        6.31721410015598
H            0.87146188387207       -3.08471526305024        6.57830423410869
H           -3.67716811065157       -3.05999292755990        5.83019634570050
H           -5.77379677507622        0.43595144608221        4.71017130754348
O            1.34459852619901        5.82615848916894        2.44941456579099
O           -0.74718748219123        6.07961784856304        1.59848183464284
C           -0.21473095568964        7.24015934882472        1.05753806029483
C            3.53228080814219       -2.00967610361154        7.02506769044485
O            3.64093082622715       -3.14437803815732        7.50071391725347
O            4.56565258381079       -1.22937033368332        6.69086985080897
C            5.72579357310716       -1.80692399125161        7.22246151275881
O           -7.04801223588612       -1.95726935745904        5.14194115322235
O           -6.01514389321278       -2.93743591896022        6.94765316328794
C           -7.21292732384718       -3.62681918543340        7.15115816329978
C           -4.95459780685163        2.65960679932188        5.86868674392943
C           -3.68284113682406        2.59129188358641        2.05479246020704
H           -7.43119628931628       -4.22607794725959        6.20622607140901
H           -8.06548455146707       -2.91765848248592        7.29781126410398
H           -7.07314693247270       -4.33087306029711        7.91223421050944
H            6.57332189837178       -1.29353136199234        6.78341268688262
H            5.74663761932316       -2.84282155125561        6.88089468184451
H            5.69426191474290       -1.72781984964892        8.29460302186842
H           -4.10481209541493        3.44288266176275        2.60483747673152
H           -4.49244774344916        1.87419893016926        1.82433103764650
H           -3.18901540870812        2.85154642679373        1.06781919454921
H           -5.55414326821421        2.76698137191684        4.93950725322359
H           -4.78658370641210        3.62090640967288        6.25983200635257
H           -5.43485580473958        1.97242995129449        6.65265772412460
H            0.89164886030839        7.38838561720231        1.13776105146914
H           -0.62894889903848        8.04195665205089        1.64837664327952
H           -0.59282546386754        7.45699159724320        0.03719083132488
116
 energy: -22.750374846375 gnorm: 0.476966359283 xtb: 6.6.1 (8d0f1dd)
C           -2.92315444235945       -0.04790600975207       -1.97700652889816
C           -2.42146226473799       -0.71879577163702       -0.76682733635520
C           -1.71603245136006        0.03184789097118        0.19179286300990
C           -1.35316470712247        1.41254942018041       -0.09783243663725
C           -1.88780888802199        1.98059732341670       -1.32504586981060
C           -2.62735157288863        1.29932439142675       -2.24312919887348
C           -1.09143599842126       -0.57799527195026        1.35680007888965
C            0.21824871254492       -0.13295274799956        1.62821579483605
C            0.57589772937357        1.15702985313559        1.22162200404187
N           -0.24465818201008        2.03281690221719        0.53694512670814
C           -1.59211719522982       -1.65640470252667        2.12477425910981
C           -0.66920140776518       -2.34323656066604        2.93385730432076
N            0.58446199612650       -1.90953944690986        3.15529017356097
C            0.99221502976036       -0.84889021381419        2.56731269127974
C            2.28616611512728       -0.28251467052891        3.05473116408890
C            2.67486719720569        0.91941147112701        2.57828265943919
C            1.74949706130198        1.63924655101452        1.81312437651145
C           -2.95800072908233       -2.01011661674410        2.13847526284436
C           -3.32804434225895       -3.30995814144520        2.60484087051706
C           -2.40116456787330       -4.04817884710581        3.25422509741369
C           -1.03454334862652       -3.55083948350121        3.47024900644694
O           -3.78167255519170       -0.98918145480611        1.67192715632226
O           -2.58024480474572       -2.11753743971356       -0.50187153957742
C           -3.26395076977528        1.90448539171483       -3.49141083589679
C           -2.88821870820558       -5.30793974648613        3.99902284577193
H           -1.70579761696495        3.01279119036418       -1.61339088571811
H           -3.39207367738395       -0.64203460437417       -2.69260509176453
H            1.95667495954797        2.78938616661240        1.69916037996074
H            2.91802232427760       -0.70673634830023        3.84476324253801
H           -0.30406624000498       -4.08702350441468        3.97034393719863
H           -4.31600823983381       -3.62107248788399        2.43101836351969
O           -2.48424258945704        2.16315744498512       -4.33823108296604
O           -4.60951176657135        2.27819456896407       -3.36816701485863
C           -4.77798108926607        3.28617406767163       -4.31239941230452
C            3.91102830525891        1.55950209410394        3.16221323136116
O            4.81499970986459        0.80461083598904        3.25999907441193
O            3.98460716975937        2.89908261192592        3.53204737635006
C            5.39855466737243        3.22007006999563        3.46052708518946
O           -3.97111657846422       -5.82970580114451        3.69332531399800
O           -2.02337428936122       -5.63645076641434        5.02070102674409
C           -2.36489059746950       -6.70342088313141        5.88200594290788
C           -5.03164153220681       -0.98654251043490        2.33982857705891
C           -1.74845111556301       -2.94336845183387       -1.34411357644805
H           -3.15385840380919       -6.54785068887773        6.66490496203322
H           -1.50293743160110       -7.16749080075715        6.29437712150205
H           -2.70349564214953       -7.37439973690380        5.18073827223948
H            5.51988732425646        4.30952044182665        3.90088856011956
H            5.42962098141165        3.29315003771410        2.38511405459514
H            6.04034053446918        2.48435975030128        3.72396448378890
H           -0.63437015548346       -3.10347604803270       -1.02080504867274
H           -1.63781468161183       -2.53667570661783       -2.38474483040224
H           -2.14916893647701       -3.93434449556082       -1.20329989349141
H           -5.04688546686474       -1.86800434636351        2.92438542623868
H           -5.84824340474164       -0.68902373418246        1.76623712735963
H           -4.98253484013743       -0.08654328194545        3.09743870727910
H           -4.28973769104597        4.12564622310849       -4.02027329035591
H           -5.78787059448259        3.75280137170233       -4.14277760791609
H           -4.21078715272549        2.97764941595991       -5.19992989703239
C           -1.50840161853788        4.09866949301059        3.82719451347153
C           -1.96874295737819        2.96573175300689        4.55973653410897
C           -1.01192263442679        2.43850270162845        5.56171052041611
C            0.27503177844652        3.11075865674475        5.69685925128640
C            0.55691487439906        4.21657103321212        4.98803028459793
C           -0.27054239769305        4.71086138762486        4.02011516418087
C           -1.08131217260435        1.09785370605022        6.18658906324277
C            0.15659249706338        0.40099558845399        6.15857299604019
C            1.35241679297607        1.16368189236001        6.13129391325342
N            1.39497069829318        2.49448874945736        6.27077518680561
C           -2.34991711532847        0.40696317886492        6.44947046022169
C           -2.27115555516927       -0.90457186941405        6.07908415051113
N           -1.08370553657916       -1.63382840334636        6.37266078903427
C            0.13619534769797       -1.05169857880791        6.40412011023630
C            1.28062006292667       -1.68687464570521        6.62272839312940
C            2.45535147347819       -0.96048225305339        6.77055501051228
C            2.56520251593543        0.38045311353017        6.46458038044947
C           -3.57763411952459        1.14988407240591        6.59276541936828
C           -4.69097900854501        0.37272570237190        6.21338055353778
C           -4.65647496576781       -1.01968723472057        5.77337589062422
C           -3.39140400107325       -1.64370481451811        5.67331071036140
O           -3.72033814470289        2.48545563671393        7.03868939982620
O           -3.13073302397203        2.23561673605830        4.17254852546116
C           -0.09657790918724        5.96164820377579        3.27473510188075
C           -5.94689137084761       -1.68897001726068        5.36774819187049
H            1.48511866982630        4.74094659715661        5.29381314116560
H           -2.04829788898572        4.71085921985482        3.13900834845012
H            3.44535756676506        0.92585637295992        6.67549371232579
H            1.23499829336127       -2.64789937960869        6.99307575895645
H           -3.15692521108066       -2.58267367224320        5.16708009762476
H           -5.52755152917478        0.74959001626396        6.83074398513300
O            0.92773472925248        6.71035227160004        3.34807035534233
O           -1.12134898097113        6.17078636384030        2.33820584072942
C           -0.76122561944870        7.33292787285205        1.67352525089832
C            3.63037116427934       -1.76954807733606        7.01178086238980
O            3.48431350182928       -2.76233590013734        7.70009162219319
O            4.86828631571935       -1.40239920576898        6.40349659263798
C            5.74155708514651       -2.42251266072675        6.81592471864309
O           -7.00106964900924       -1.04033057782081        5.38108919632464
O           -5.85657898867555       -2.96835840285386        4.72366898703944
C           -7.12259428593486       -3.64060750258339        4.34439093028285
C           -3.24717589882007        2.61281265673797        8.39613264173538
C           -4.22703037583965        2.99369773812305        3.77174912048487
H           -7.70769387836126       -2.83630099862933        3.95794652054775
H           -7.51749641336511       -4.04733267665379        5.29693064733124
H           -7.01294063616849       -4.44254206419746        3.60077850172326
H            6.82403109322637       -2.24337408158922        6.40497496423592
H            5.48711527495386       -3.36704616935731        6.43109972056570
H            5.79389400624413       -2.43609742218104        7.89682128226491
H           -5.17533368933061        2.67478276090294        4.39218135315755
H           -4.46778709858648        2.87425954752047        2.69521984317446
H           -4.16554766984237        4.02504975499947        4.12564877819639
H           -2.44216826669203        1.95629070358120        8.55990856413252
H           -4.06086939784667        2.59561841099706        9.10689042749780
H           -2.71155708649245        3.72309325764995        8.31126989727518
H            0.34921274736894        7.59108112972070        1.96828644621684
H           -1.29280880976256        8.18529900328124        2.23674880873418
H           -1.00766379109901        7.31319124925492        0.56761866869409
116
 energy: -22.758563598976 gnorm: 0.477694989482 xtb: 6.6.1 (8d0f1dd)
C           -3.13224173930586       -0.36254270714975       -2.02947204361965
C           -2.56764189328314       -0.85815905040485       -0.87408333692445
C           -1.79789044709939        0.07571343318342       -0.11793147038227
C           -1.39316713061856        1.26210655117422       -0.63379071630103
C           -2.09394806389141        1.75241814278365       -1.74444934891968
C           -2.90912090988676        0.97106929815711       -2.50411400699878
C           -1.23151298203024       -0.37909319118204        1.20854921623089
C            0.06239701025383        0.23754495026687        1.57568014499730
C            0.46027172131027        1.35258736795771        0.85020667219157
N           -0.31710458729030        1.89995756851001       -0.07781084772150
C           -1.58446381291667       -1.39447560779831        2.10189531184151
C           -0.60849890709980       -1.97068261108691        3.04460022383132
N            0.58647837842856       -1.38035914634160        3.25970426320898
C            0.88698070680096       -0.19955167145117        2.60963022330580
C            1.93364491396065        0.61689783400488        3.05724001611955
C            2.31046323009472        1.69425889018668        2.29357326072653
C            1.58416705018337        2.02106252237941        1.20355834375679
C           -3.03596201839284       -1.99851552978833        2.20758691870745
C           -3.28906652704492       -3.26831065135190        2.73858702281207
C           -2.22912627856680       -3.89014202815515        3.52747451735332
C           -0.93461777145618       -3.23465515125508        3.63491620389328
O           -4.03349054837879       -1.20317547527785        1.57435935272555
O           -2.96795790573389       -2.05048352585458       -0.54634057979954
C           -3.44620058213172        1.50837979555019       -3.79251222671960
C           -2.47928132684528       -5.19160984722279        4.18650055953768
H           -1.74187796388101        2.70930019636026       -2.13085888912717
H           -3.74575193349081       -1.06618571203171       -2.52525330093055
H            2.09017179760427        2.72842206417833        0.51933862980461
H            2.52401936956936        0.29077588258118        4.02317205006965
H           -0.22400485015735       -3.82709906023279        3.97656682620051
H           -4.29924542512795       -3.69361562842526        2.61926341715503
O           -4.06119754552843        0.66163176854457       -4.42864782107955
O           -2.97918220262519        2.71624948365460       -4.17152895374534
C           -3.83249579335057        3.20431081448965       -5.18497378310273
C            3.56603713945653        2.51020582883101        2.55702099365350
O            3.67172506989012        2.71679144203444        3.73468834989709
O            4.30121317084832        3.02876394455060        1.53982209188346
C            5.45010879964292        3.67491078543246        1.92755577020597
O           -3.51689529343906       -5.45043139096950        4.77336214999796
O           -1.43116352850936       -6.02942632776835        4.12001954630772
C           -1.64859908353395       -7.16407950722442        5.01582477164773
C           -5.21541841492768       -1.84473638819306        1.09974795070840
C           -2.19382026471482       -3.25744515572727       -0.76027319965728
H           -1.72747799055714       -6.58018494010476        5.95288879041708
H           -0.83808338285219       -7.70993448184687        4.83775171281149
H           -2.57629321471721       -7.68108579427844        4.86260162634808
H            6.38324102639768        3.49252093997651        1.19686300969758
H            5.79185657329183        3.15647304110579        2.80862770334558
H            5.34584101365649        4.81940883029811        1.87228339254866
H           -2.93816595933849       -4.10838064165064       -0.89156937815963
H           -1.36086870854189       -3.41048104390622       -0.04450218823825
H           -1.73932441251236       -3.30219410037514       -1.83003668613943
H           -5.79171919138293       -2.19612629870685        1.93405490516975
H           -4.57569386891126       -2.63310185570442        0.50873364467239
H           -5.79289229725865       -1.28555047370067        0.43209536892370
H           -3.66071971492231        2.76351101526595       -6.27054116801514
H           -3.62893750347131        4.26682405124873       -5.29282074044186
H           -4.84484599989364        3.08447209313818       -4.89323226987519
C           -1.17613646632719        4.15374640537382        3.89248253949230
C           -1.43546876311939        2.87672633347490        4.27524242757966
C           -0.71819888281399        2.26120044314521        5.44362569825586
C            0.61983177746871        2.80022495223885        5.59585741125423
C            0.91547135252552        4.11998372093338        5.08626620842427
C           -0.08650403905719        4.88766278018165        4.44657927304384
C           -1.01501921527373        1.08638908008915        6.12586244297843
C            0.11222285134537        0.19263983029138        6.22906703630138
C            1.42698788546022        0.75117269856673        6.36018543553589
N            1.67189114429707        2.04638217979554        6.13327878096082
C           -2.27550633957477        0.35565408309451        6.25311728473305
C           -2.39133836161893       -1.02161169585425        6.21575554817772
N           -1.29907316130930       -1.82108584147853        6.17201546954109
C           -0.12263153188008       -1.23932688165763        6.22023161412885
C            0.95473345838786       -2.14646201677514        6.53845064247070
C            2.26777896039653       -1.61401286140851        6.75484180668709
C            2.38100007632669       -0.26311433157757        6.56686283072939
C           -3.53919904842751        1.06934505345514        6.46993757640402
C           -4.81117833444101        0.42696081745934        6.46848749463049
C           -4.74588855705496       -0.94815687921282        6.57332520664110
C           -3.60613184420837       -1.76569268330995        6.52454787029101
O           -3.53254259015143        2.44603088482237        6.39615623212834
O           -2.45636786384485        2.16251007025767        3.64913357266862
C            0.05647349169162        6.33124187754789        4.28033094751073
C           -6.03188607050400       -1.57721781003620        6.36958670959136
H            1.89561307457895        4.68530014795470        5.14470699203914
H           -1.66602103169442        4.58433468935897        3.05122043801094
H            3.19677359604535        0.17772731087210        6.99553692318353
H            0.69158882946501       -3.15812766550684        6.64283737081815
H           -3.64499332557099       -2.88816657755384        6.34313494936907
H           -5.72694691853495        0.87485074621905        6.26379302907196
O            1.14742903332109        6.88969415379710        4.31360697580945
O           -1.09557455270811        7.08026839430272        4.08620602564422
C           -0.68456301750440        8.40387669051036        3.80764745295555
C            3.47798330766305       -2.55975204468491        7.00066691454421
O            3.49963400101500       -3.75385790814729        6.70820800417094
O            4.41020972733912       -2.03269518923223        7.92000413309011
C            5.29486324694166       -3.02016516703379        8.06084801774635
O           -6.96940850618739       -1.13898647985548        6.98364940529209
O           -5.98065658382647       -2.62082315564364        5.51656187308713
C           -7.22356727583209       -3.21271414339460        5.27264619961303
C           -3.60829841210899        3.04409859967574        7.66347794160668
C           -3.62479492014118        2.87747338221753        3.21913891009524
H           -7.15580487110034       -3.67551065601448        4.21328168313823
H           -7.99259695434551       -2.45567339895208        5.29493932418691
H           -7.42539327718337       -4.00734633989820        6.01028867896232
H            6.05645379194449       -2.68418940137033        8.77324512563209
H            6.09177591778052       -3.29022145932764        7.20814319751214
H            4.81326715076163       -3.88744048046785        8.48226188215318
H           -4.41250928422259        2.23770309940984        2.92096513171957
H           -3.44530264325551        3.41728924640619        2.27835406377445
H           -3.83712863239571        3.60119092885012        3.99146911171547
H           -3.49637705906656        4.18407142576359        7.48847097090240
H           -2.75583585661210        2.79407003200264        8.21000165119374
H           -4.51407895946303        2.62056783426024        8.19055516501822
H            0.03859493063947        8.43941920652779        2.89829890595546
H           -0.23745216722176        8.81013715332627        4.70074563196208
H           -1.42195388505044        9.08555930169769        3.50643034789182
116
 energy: -22.790382244871 gnorm: 0.410861262735 xtb: 6.6.1 (8d0f1dd)
C           -3.56788962025202       -0.20747945306487       -1.94523021525090
C           -2.76610605908782       -0.59837691617089       -0.86179156880210
C           -1.68855052764398        0.22165551955146       -0.25786385237381
C           -1.35775364372496        1.42768407231960       -0.99090022334209
C           -2.32090959478979        1.74633793135090       -2.01383393260782
C           -3.46346421171908        1.04209837586884       -2.36513631355063
C           -0.88788635546544       -0.18314176911082        0.80954361692875
C            0.33472841661788        0.48950681581831        0.95793051605494
C            0.51130822470627        1.71423975151444        0.31112175402804
N           -0.32518587581711        2.20868810746111       -0.66607233076296
C           -1.05818243758983       -1.35133013643141        1.64243428528300
C           -0.07562132448972       -1.79058363538825        2.55979916288028
N            1.17848028733400       -1.24349928896970        2.61594900172902
C            1.17265552061229       -0.05847294079987        1.98365845224640
C            2.14129821851819        0.82043433151199        2.38597263816364
C            2.27841617712717        2.13030318474122        1.98210983939030
C            1.38251434724853        2.63299314537822        0.93462067935369
C           -2.38056973091192       -1.77173394147229        1.86429325303393
C           -2.68560110450603       -2.78452152123790        2.73090805878746
C           -1.70958629833041       -3.38138758451964        3.50732009443403
C           -0.47831716234050       -2.75236004416069        3.50271989355226
O           -3.42370947676502       -0.86347224127311        1.58334806937664
O           -2.71174260529600       -2.05422225463685       -0.70530592750299
C           -4.27079699829910        1.31234692422995       -3.62365290719509
C           -2.08170563363708       -4.52343093849285        4.37732766036344
H           -2.08599723864886        2.80659211658603       -2.36725571355435
H           -4.32540563594180       -0.90100841362519       -2.18236556706584
H            1.43943241947288        3.70553501679995        0.75247338572363
H            2.87210261201394        0.41320107712995        3.13719620848934
H            0.21689291405959       -3.27618383034730        3.99186631259272
H           -3.71773027858871       -2.99670676371704        2.92715952578596
O           -5.31421894015955        0.66430679230270       -3.59503805814987