116
 energy: -22.928061455056 gnorm: 0.329736929581 xtb: 6.6.1 (8d0f1dd)
C           -3.31122850772930        0.79849766164622       -0.92477639677520
C           -2.44380812530352       -0.12270372891954       -0.27661132624697
C           -1.41337090092821        0.39579727573559        0.56335275196199
C           -0.89266158675590        1.65801491088749        0.27377586709581
C           -1.72665675402493        2.51431363229076       -0.49448366572522
C           -2.95444148494349        2.13954154133227       -1.01494489940871
C           -0.74098268209890       -0.43411532818871        1.49825021926784
C            0.56872586496315        0.03782116815119        1.86248088067890
C            1.03782416582094        1.29402317993033        1.50887470833621
N            0.31238977034758        2.07067427098208        0.65193736800696
C           -1.29695700510141       -1.39996043042223        2.41574187746061
C           -0.38243517664656       -2.18060797534842        3.13232615520648
N            0.91308504082021       -1.90366887689689        3.30325166013478
C            1.37712470144904       -0.74872102533751        2.81811050966982
C            2.52149331701875       -0.17739833758153        3.39379298866852
C            2.95849061756259        1.02681208890480        2.95105897606587
C            2.24288949469137        1.78498308775960        2.03503020483770
C           -2.74860936222260       -1.74497937691422        2.38401158947411
C           -3.09416315450955       -2.91614440870436        3.00571134491758
C           -2.16786021984049       -3.77788778654213        3.63251872101904
C           -0.85708937311598       -3.40495313382985        3.68547234358092
O           -3.71994433332149       -0.94984598373544        1.67726658385724
O           -2.55702603277562       -1.47241711578389       -0.57241635275616
C           -3.84297843593025        3.13357444054366       -1.60938954875544
C           -2.68769581069131       -5.03867041417370        4.30484659386931
H           -1.39666850744143        3.51251503834900       -0.76806311868865
H           -4.27662633836220        0.55105838579656       -1.33106614114542
H            2.66329581305412        2.73912661909249        1.72562431984580
H            3.05775395548473       -0.69369546277216        4.16536137542516
H           -0.24710966264510       -4.12034095424229        4.22946223699121
H           -4.11477991332403       -3.04712728052358        3.03244694615357
O           -4.21824883374556        4.03433712717988       -0.87713382485991
O           -4.44510595673734        2.90643496899600       -2.81853501752979
C           -5.44216520282800        3.83300025693726       -3.02488532025093
C            4.23586651889298        1.50004220933226        3.59165660008449
O            5.05927614697201        0.66079890002952        3.91714215179376
O            4.47001334453535        2.86385149488593        3.72605651435371
C            5.79457498613219        3.08584475587818        4.15829123132174
O           -3.82227255313510       -5.27347675879771        4.16636005494405
O           -1.85023202017753       -5.79767454267276        5.06656077253571
C           -2.55119635829503       -6.86252441382958        5.62930343183426
C           -5.07197156564436       -1.42399175670916        1.58830531863830
C           -1.33089900128490       -2.23622472573986       -0.99264499351172
H           -2.54510546830388       -7.76426885143998        4.99136022291012
H           -3.57194749219491       -6.44405511486021        5.74196173723541
H           -2.09133598235598       -7.02043774843818        6.64022264233588
H            5.72707967266424        3.46798026205549        5.10135971236643
H            6.34060091246885        3.78468702308830        3.50069950143490
H            6.17933064298187        2.03010500085905        4.19342358084693
H           -0.91862729772622       -2.57650129080332       -0.01361370304871
H           -0.49769766914251       -1.60651221708571       -1.34094446550576
H           -1.52632419730509       -2.94569707152159       -1.75361447637286
H           -5.11788846557077       -2.41810833635233        1.17520213188926
H           -5.67929807973498       -0.69619639428435        1.04301666067831
H           -5.57598832326623       -1.42383358739762        2.57928294206544
H           -6.13050215934830        3.76035386975488       -2.23272855695873
H           -5.86615610071888        3.45938329385866       -4.02668959924245
H           -5.13479557532099        4.87790991548477       -2.98314551356402
C           -1.38192942069774        3.73616555005018        2.91232598411686
C           -1.84821468128685        2.59982427735607        3.49755545445181
C           -1.05946531454833        2.05730632010638        4.60922730982276
C            0.19893954712228        2.69376791964407        4.86302140881997
C            0.50425395911860        3.94630308659851        4.28768785650746
C           -0.26031777722226        4.46998310053134        3.25072669343212
C           -1.20488993561782        0.74454293276906        5.14851520323437
C           -0.06287609782692        0.02744069315890        5.60930570802864
C            1.19208754369866        0.71421540266195        5.78882868583885
N            1.19428660993148        2.06344359410476        5.62744624321596
C           -2.41361422770794        0.07928500213936        5.25249410304426
C           -2.45851584031083       -1.32662100968547        5.60237876023992
N           -1.29466212405906       -1.98318595734370        5.89916817085159
C           -0.14475655767527       -1.32117560077092        5.98824682881008
C            0.97209270935794       -1.98958449505532        6.53157704134458
C            2.21982707914082       -1.36973967291181        6.68703967237737
C            2.30561929262884       -0.09745313075593        6.26436900324455
C           -3.73018485967715        0.71367583494582        5.25810242262992
C           -4.89964478833448       -0.06184623426677        5.21204641615509
C           -4.82617965800088       -1.39228978090841        5.46901303780036
C           -3.67144193418464       -1.98914944386360        5.67265433266067
O           -3.75568638935321        2.07705011038914        5.52067969627343
O           -2.94192434743730        1.91263938797883        3.01658762327703
C            0.21273512614467        5.50086066357994        2.34765104514621
C           -6.06660304520411       -2.17604633098929        5.80641622556876
H            1.41756699010566        4.38133362238595        4.66974005703471
H           -1.82880610647429        4.11982501512100        2.06992133318584
H            3.26888037378556        0.32655662585251        6.31721410015598
H            0.87146188387207       -3.08471526305024        6.57830423410869
H           -3.67716811065157       -3.05999292755990        5.83019634570050
H           -5.77379677507622        0.43595144608221        4.71017130754348
O            1.34459852619901        5.82615848916894        2.44941456579099
O           -0.74718748219123        6.07961784856304        1.59848183464284
C           -0.21473095568964        7.24015934882472        1.05753806029483
C            3.53228080814219       -2.00967610361154        7.02506769044485
O            3.64093082622715       -3.14437803815732        7.50071391725347
O            4.56565258381079       -1.22937033368332        6.69086985080897
C            5.72579357310716       -1.80692399125161        7.22246151275881
O           -7.04801223588612       -1.95726935745904        5.14194115322235
O           -6.01514389321278       -2.93743591896022        6.94765316328794
C           -7.21292732384718       -3.62681918543340        7.15115816329978
C           -4.95459780685163        2.65960679932188        5.86868674392943
C           -3.68284113682406        2.59129188358641        2.05479246020704
H           -7.43119628931628       -4.22607794725959        6.20622607140901
H           -8.06548455146707       -2.91765848248592        7.29781126410398
H           -7.07314693247270       -4.33087306029711        7.91223421050944
H            6.57332189837178       -1.29353136199234        6.78341268688262
H            5.74663761932316       -2.84282155125561        6.88089468184451
H            5.69426191474290       -1.72781984964892        8.29460302186842
H           -4.10481209541493        3.44288266176275        2.60483747673152
H           -4.49244774344916        1.87419893016926        1.82433103764650
H           -3.18901540870812        2.85154642679373        1.06781919454921
H           -5.55414326821421        2.76698137191684        4.93950725322359
H           -4.78658370641210        3.62090640967288        6.25983200635257
H           -5.43485580473958        1.97242995129449        6.65265772412460
H            0.89164886030839        7.38838561720231        1.13776105146914
H           -0.62894889903848        8.04195665205089        1.64837664327952
H           -0.59282546386754        7.45699159724320        0.03719083132488
116
 energy: -22.580545507236 gnorm: 0.491152022533 xtb: 6.6.1 (8d0f1dd)
C           -2.40367572919080        1.11775311748090       -1.60556620303895
C           -2.09967859119881        0.15937285708086       -0.51578241314287
C           -1.53935392562648        0.67752400928570        0.68763455939294
C           -1.00685969539528        1.94233583586929        0.63492460004319
C           -1.32555090370733        2.92066132496187       -0.38520695115620
C           -2.13113752967347        2.52552539035279       -1.48513027400071
C           -0.76850876362540       -0.22341793612878        1.62669624204987
C            0.56777277940414        0.04352304356225        1.78560827206873
C            1.08379440028538        1.35670525097865        1.63473743658592
N            0.09658578820043        2.27867131633064        1.35359896570798
C           -1.21729585102107       -1.55315115585059        1.98215115566345
C           -0.22224907273927       -2.48787343051233        2.35262724926898
N            1.04031553139344       -2.27365337006240        2.27418665756879
C            1.43741500102248       -1.04100586525701        2.09232135916148
C            2.72821717858446       -0.58504765720362        2.51081405950412
C            3.21838885492979        0.69843060872599        2.34263262359945
C            2.40761186960630        1.65068577460564        1.78079302547688
C           -2.55878890270255       -2.06633874840049        1.97307129981887
C           -2.78190200831833       -3.21165857443548        2.72031452979940
C           -1.78998239653261       -4.22795459612562        2.84272442542869
C           -0.46093837824662       -3.81724726217538        2.55744385827743
O           -3.60029562687050       -1.25735693791009        1.82100064845072
O           -1.86423309604050       -1.24277201555718       -0.86235017013947
C           -1.85450070691928        3.13307556352239       -2.96131981989242
C           -2.19619836833440       -5.60515788725467        2.69926325654962
H           -0.66841512490272        3.73714718978817       -0.56303863927184
H           -3.02885793181710        0.60156266615360       -2.49249510559951
H            2.48685952318942        2.69479993793576        1.47193855164295
H            3.32725754993187       -1.23430757396959        3.21148219516443
H            0.14712787226688       -4.51846132958317        1.95621091427411
H           -3.70497531769114       -3.31136463649810        3.33082141276421
O           -2.37616139161394        2.72838466087502       -3.98839492882055
O           -0.77729887268446        4.00434555526009       -2.97477187278970
C           -1.01952425729858        4.58031430213169       -4.16182111631424
C            4.73453205703309        0.83544120933488        2.77617496362746
O            5.43101932646324       -0.09956944076693        3.06573059792293
O            5.32237755114068        2.07815997358934        2.52241247958701
C            6.64473225396533        1.82585263011907        1.94771264436456
O           -3.35855656542619       -5.92260764890701        2.72620353033235
O           -1.33903467811809       -6.59520297568790        2.31604043013711
C           -1.54912847248484       -7.86493348141696        2.93201222498711
C           -4.80617678480147       -1.82976906901801        1.23316656732500
C           -1.69759704466948       -1.59485846100943       -2.21256332439943
H           -2.48931216587926       -8.20575960573251        2.73993497945130
H           -1.35540326728183       -8.15226505778393        3.99134167813079
H           -0.94337625721039       -8.47284508084583        2.25480058513172
H            7.40795567398154        1.91275891543490        2.68530014616092
H            6.71225635547192        2.26848292816146        0.92934916923117
H            6.70990504145262        0.70763271899951        1.79064742189977
H           -2.38729342513208       -1.24886977668513       -2.88522803455594
H           -1.78136327688456       -2.66404098786129       -2.49789522586486
H           -0.78622881254924       -0.94920912929705       -2.66954489637005
H           -5.62658007179229       -1.40728347959190        1.74297054082998
H           -4.85820880883489       -2.92112593697552        1.31770125795831
H           -4.91873580542957       -1.48512262284963        0.17368888974590
H           -2.02334872878523        4.92986700228730       -4.01812434059017
H           -0.84055943620460        3.80090981504554       -4.99237279581006
H           -0.33832799945731        5.46068280559274       -4.41479861333255
C           -2.80142055009093        3.42265756700220        3.64079197331154
C           -2.88058823050617        2.35113569634760        4.51598205186556
C           -1.69650764204192        2.03775935527943        5.44431986833251
C           -0.43109770294166        2.60138701615117        5.00390238594514
C           -0.41259066611837        3.73697502603471        4.23133509100076
C           -1.58132721547232        4.12474624905203        3.49742992531620
C           -1.65924290188638        0.98586970438003        6.34356979231421
C           -0.43232238620538        0.25046845921915        6.28116962897085
C            0.74119497511191        0.85417014364480        5.65053056485630
N            0.79473901431401        2.02122217142627        5.00067549094825
C           -2.85161973186207        0.57306906526116        7.08633499255061
C           -2.74240143627485       -0.62006965263113        7.66768029197956
N           -1.66677166320042       -1.43922311846081        7.64235663878526
C           -0.45952540201162       -0.88460576848154        7.19651047517316
C            0.85958452681019       -1.26017152502642        7.52624221228661
C            1.97825057695434       -0.78574315620282        6.95682083535748
C            1.97429117839890        0.11929383079668        5.94217010019378
C           -4.16235069682420        1.23158310324585        6.96808948193668
C           -5.40896687710681        0.51975788144991        6.98238043244401
C           -5.29228212305964       -0.82710861537920        7.54637348950595
C           -4.04496180704505       -1.30086740522381        7.92961655526854
O           -4.09859718276658        2.57078104348626        6.81519153900936
O           -3.86305254363380        1.46092426608436        4.38525223979494
C           -1.69156157660600        5.27369512993887        2.67839929812421
C           -6.35494913892495       -1.65222477525671        7.97369705608607
H            0.53896066224617        4.11839772713207        3.89716354321752
H           -3.58988959032910        3.66706555982930        2.95938086877748
H            2.84203141337741        0.24523086655884        5.38000381290084
H            1.20720170613200       -1.74410436344199        8.49926420618620
H           -3.95425133379283       -2.33513457087464        8.12566247852532
H           -6.25263426164700        1.16994830821500        6.99547025116105
O           -0.96050189538744        6.21423994094702        2.94889946436926
O           -2.37327291460430        5.31434181330239        1.48846307982355
C           -2.20231592730072        6.71026538291377        0.87492104942912
C            3.31307441601582       -1.30516274970467        7.21093571159209
O            3.45634543729669       -2.11005185403544        8.12489164275551
O            4.32735420814707       -1.07553048303704        6.19333131308427
C            5.64398631863842       -1.29993653423100        6.48296949470265
O           -7.41204430985356       -1.28409159652654        7.52601761579423
O           -6.45377083959458       -2.61140610270414        9.00053379410661
C           -7.79289983319885       -2.92168173469009        9.16095086112887
C           -5.28249625955186        3.22417892252418        7.09937197015581
C           -4.83391631784859        1.45286991671788        3.30446793265614
H           -7.89399720718660       -4.00188815370013        8.89364092177031
H           -8.60197970926651       -2.34126807256451        8.61906909605315
H           -8.05354443429648       -3.01374905876835       10.26811919619983
H            6.07020429622698       -1.47280059495992        5.49380683953399
H            5.65176845233688       -2.23016990959208        7.12385899016025
H            6.30066622947371       -0.67411222018781        7.12300129030190
H           -5.40601297246486        2.35983121326159        3.10386058198777
H           -5.39856868114185        0.44512071850715        3.30661633820151
H           -4.18578390186705        1.47987534085308        2.46830193167324
H           -6.01489328334315        2.88520430332972        6.21027491475836
H           -5.00916730554775        4.18082790313549        7.61603325918401
H           -5.86285847460861        2.91536271800680        7.91408537936615
H           -2.72722671572899        7.59680004357348        1.15554531276080
H           -2.58311966987607        6.40094652414833       -0.21229503096232
H           -1.14462676788554        7.12817162353933        0.85403830453787
116
 energy: -22.617924883377 gnorm: 0.490493297399 xtb: 6.6.1 (8d0f1dd)
C           -1.19791515401371        1.04337902820083       -2.30227017065436
C           -0.68191346894450       -0.06875793442896       -1.66016303895736
C            0.05025193076805        0.22177339790866       -0.43258176968936
C            0.16592078061630        1.55761437075466        0.08169072857987
C           -0.49127294403237        2.61546440841391       -0.73102011006109
C           -1.16531606684884        2.31294408891626       -1.84551499235247
C            0.51039061329555       -0.70564421785774        0.53035013637862
C            1.63987263618664       -0.32911058116111        1.22355343666375
C            2.01345476286012        1.02014401970488        1.41183215588004
N            1.14849871354437        2.00717709452193        0.94095681143206
C           -0.33020377380365       -1.63806312186913        1.12331946380083
C            0.24837733635236       -2.69671615417356        1.85265607048797
N            1.56357057466150       -2.53566702410343        2.30711218831234
C            2.14357009776347       -1.31598476856457        2.02908492203501
C            3.35528204135486       -1.12555600673694        2.73923255425562
C            3.89015191505489        0.12368494116536        2.76070827500050
C            3.18344309082933        1.19499464400316        2.19748928967133
C           -1.71507891626693       -1.69038034642080        0.90081524467290
C           -2.35349392892941       -2.92516014242908        0.99115914820938
C           -1.70155607114262       -4.10050742642611        1.51792052809460
C           -0.52223762147309       -3.83069252454388        2.19053785186681
O           -2.31174567262779       -0.48747055545295        0.56197293246426
O           -1.20496698116829       -1.31097899237466       -2.24285910547434
C           -1.98491891218757        3.31342264944207       -2.61534165100023
C           -2.31004456023950       -5.44133152896540        1.63429096989577
H           -0.49097404276168        3.72669437724399       -0.42062289495987
H           -1.97429178568054        0.78176763638243       -2.93895631464725
H            3.59127199026534        2.06134245110560        2.76035372080298
H            3.66483233889953       -1.69608491403207        3.65339210967735
H           -0.19896357389918       -4.77148503175587        2.63019065471258
H           -3.33272626016019       -3.15248850190987        0.60330555203543
O           -2.95405243775887        2.87128177014117       -3.23287013414241
O           -1.88123631187346        4.74217078518722       -2.63515434519946
C           -2.55785384264933        5.07691182035248       -3.93806319015246
C            5.07596103585418        0.22430723123894        3.74890268231109
O            5.15384144983692       -0.56181330958511        4.69711262929599
O            5.97521000718921        1.22815811814254        3.71451504403382
C            7.18071773951145        0.89600597238253        4.35198222607133
O           -2.77791176729731       -6.04485778472936        0.64315613392357
O           -1.80973168185792       -6.27728848547057        2.62817127759735
C           -2.16575075987495       -7.65376347685943        2.36343887989397
C           -3.64134547459289       -0.52973491211674        0.94610423010040
C           -0.47175547861388       -2.04995113585889       -3.22371461838318
H           -2.50278406185685       -8.29801927240807        3.23763509379758
H           -1.30064554674812       -8.20084846410842        2.03662696468704
H           -3.00326888043242       -7.55330002730952        1.60629499756377
H            7.24097485727593        0.33886733989746        5.34077467388818
H            7.91896989790864        1.69225961076450        4.13389011518919
H            7.59507210488382        0.06959406410605        3.75812458159640
H            0.24179870599280       -2.73435403656618       -2.69727787630561
H            0.36133024861220       -1.33904373886544       -3.69996241497759
H           -1.22845258220347       -2.56879719150973       -3.77554373887164
H           -3.62813919525358       -0.77404998976053        2.07395352128973
H           -4.26850938613287       -1.15119490415185        0.21517300271230
H           -3.90977906798524        0.52145153990529        0.98088000072055
H           -2.80126375198966        4.32440748031405       -4.68341548189234
H           -1.74570950358471        5.55569125898129       -4.56419298980787
H           -3.28041788533604        5.83538422839413       -3.51521923388161
C           -3.66089502867474        3.87049258392795        3.80609118053320
C           -3.60601394056427        2.74927416162937        4.58727131063420
C           -2.46594837588794        2.24475591614517        5.04937161098744
C           -1.13794863900368        2.75801521157097        4.31761855602278
C           -1.31328282332347        3.64944138915646        3.21449874149260
C           -2.56888908032245        4.17600083365267        2.95044112330793
C           -2.37931854721271        1.03423065198557        5.93003038927216
C           -1.14098826373050        0.24889681053825        5.80458749976852
C           -0.01694604010164        0.92452636800961        5.18606323321068
N            0.06640148324064        2.26970526463964        4.68251937762331
C           -3.07534898653063        0.60224073397627        7.12072242597438
C           -2.93107100514565       -0.69417307004936        7.70460660589917
N           -1.88128045405604       -1.47988152368173        7.35132259144308
C           -0.92455729015097       -1.00609041479416        6.47013182998092
C            0.39340678128284       -1.45257360770056        6.65631290515425
C            1.38019000706668       -0.64661621022526        6.26313088415233
C            1.25839751789353        0.33465422007331        5.32139010107509
C           -4.09658291603538        1.47451604553702        7.73991278553645
C           -5.14864203635947        0.88198560319612        8.57482217845326
C           -4.87962087321467       -0.38207874610504        9.10767212081979
C           -3.81131661200305       -1.19942180528455        8.72331549707592
O           -4.06864925182288        2.93044187052998        7.54841396481759
O           -4.86141640520318        2.22793586567544        4.90919756791559
C           -2.62660724817597        4.63643912684017        1.54012521583033
C           -5.89901164503500       -0.93524733084798       10.16079720391335
H           -0.61606403617686        3.71556130642996        2.31980382780611
H           -4.67941738998984        4.14811857285732        3.41511315711433
H            1.95488811765343        1.09042834671301        5.19058851328143
H            0.54194118076442       -2.50109385288740        7.15117466146568
H           -3.95276137290051       -2.26235498068959        9.05631607919321
H           -6.00040295237107        1.36571874928787        8.91767441345619
O           -1.72179305021380        4.80652378175065        0.79611085539771
O           -3.92268783889807        4.96538222806876        1.20459816560786
C           -4.08356989245424        5.27142471594651       -0.10227080964898
C            2.74856882036745       -1.46577709537266        6.42658021630342
O            2.96392538289887       -2.21119720370204        5.44332604652845
O            3.56623027507648       -1.10960872598013        7.47344181289242
C            4.84500359649492       -1.82283641974381        7.38046322808508
O           -6.91625786320027       -0.40371605861697       10.62117772645027
O           -5.50575706864168       -2.19260463036142       10.53329016220890
C           -6.65737545235501       -2.61651150516888       11.37351075566784
C           -5.24878741186837        3.42843281171137        8.19962021625616
C           -6.01894973820055        2.98496645471158        4.49710377296767
H           -6.35530316775710       -3.66124946090861       11.52347251417362
H           -7.60437696991509       -2.41087216408196       10.80698359546791
H           -6.59151933737476       -2.16976973606795       12.48086213851059
H            5.21056047005032       -1.81987573010770        8.36513997981610
H            5.42392087361534       -1.39503404849540        6.60454350880319
H            4.59758152848983       -2.89759491687908        7.24673550614096
H           -5.86877135315461        3.86711085001177        5.13659674172305
H           -6.91771594441729        2.36920917870903        4.66630707732093
H           -5.96642234514941        3.26344135921697        3.41604038066848
H           -6.09141050332008        2.91787320030699        7.87519340564609
H           -5.18042217601793        4.50084081326989        8.11381351840795
H           -5.08056373280519        3.13498887555479        9.39560823549198
H           -5.21618729967707        5.41099343259415       -0.17125915074668
H           -3.68967952444764        4.32962191651207       -0.61062995546976
H           -3.40681177086082        6.07272447392486       -0.12004907626639
116
 energy: -22.631133929124 gnorm: 0.571846138174 xtb: 6.6.1 (8d0f1dd)
C           -1.06552887213041        1.97766401204276       -2.26000177229574
C           -0.79775821962478        0.81795732941436       -1.53880194986853
C           -0.14308588715774        0.90788755543870       -0.25839861827945
C            0.30467902187257        2.17448665995877        0.25866875199980
C            0.02234922685764        3.29548985127003       -0.53087127093359
C           -0.57332342580628        3.22916874801607       -1.78154118666381
C            0.26366553150262       -0.23242024662557        0.56369871125322
C            1.47362024293105       -0.00272689870076        1.31717931549188
C            1.75606801887325        1.34280130820296        1.68930569352293
N            1.27673170654903        2.37869459367574        1.10948771852212
C           -0.31018682652551       -1.49324013374577        1.06847081092608
C            0.63096434338804       -2.48165897381308        1.61451755075801
N            1.97363549776874       -2.34223084805868        1.59557436900771
C            2.33204737386148       -1.05577079275551        1.71732762766846
C            3.59514993624729       -0.73579657914506        2.27624278409137
C            3.70552450260490        0.42043909052294        2.98941994918592
C            2.78468929958960        1.45949257043904        2.64112351408646
C           -1.73105572188282       -1.74273329057329        0.94374877664146
C           -2.17363246811191       -2.96463362315893        1.56633108548409
C           -1.25332305818590       -3.87706496749185        1.95603781359672
C            0.10449051442508       -3.79393278678984        1.89972014691156
O           -2.70644269306475       -0.98071223138478        0.19509912511183
O           -1.18532511229747       -0.37997066593357       -2.06820366595789
C           -0.70603080614616        4.37156992965348       -2.63483979962728
C           -1.59952635053289       -5.32593298096404        2.25520832007828
H            0.53717431145488        4.26623586885982       -0.27637269221385
H           -1.87902778744787        2.17435901277858       -2.96256133717173
H            3.09188996701931        2.44275750881411        2.91745764779646
H            4.46851010245970       -1.30082686170968        2.19003138106664
H            0.68930987505085       -4.73676445033488        1.89167437409203
H           -3.11257112028293       -3.35568086160581        1.31931774864781
O           -1.06163946694238        4.23803732090580       -3.81895212858013