116
 energy: -22.928061455056 gnorm: 0.329736929581 xtb: 6.6.1 (8d0f1dd)
C           -3.31122850772930        0.79849766164622       -0.92477639677520
C           -2.44380812530352       -0.12270372891954       -0.27661132624697
C           -1.41337090092821        0.39579727573559        0.56335275196199
C           -0.89266158675590        1.65801491088749        0.27377586709581
C           -1.72665675402493        2.51431363229076       -0.49448366572522
C           -2.95444148494349        2.13954154133227       -1.01494489940871
C           -0.74098268209890       -0.43411532818871        1.49825021926784
C            0.56872586496315        0.03782116815119        1.86248088067890
C            1.03782416582094        1.29402317993033        1.50887470833621
N            0.31238977034758        2.07067427098208        0.65193736800696
C           -1.29695700510141       -1.39996043042223        2.41574187746061
C           -0.38243517664656       -2.18060797534842        3.13232615520648
N            0.91308504082021       -1.90366887689689        3.30325166013478
C            1.37712470144904       -0.74872102533751        2.81811050966982
C            2.52149331701875       -0.17739833758153        3.39379298866852
C            2.95849061756259        1.02681208890480        2.95105897606587
C            2.24288949469137        1.78498308775960        2.03503020483770
C           -2.74860936222260       -1.74497937691422        2.38401158947411
C           -3.09416315450955       -2.91614440870436        3.00571134491758
C           -2.16786021984049       -3.77788778654213        3.63251872101904
C           -0.85708937311598       -3.40495313382985        3.68547234358092
O           -3.71994433332149       -0.94984598373544        1.67726658385724
O           -2.55702603277562       -1.47241711578389       -0.57241635275616
C           -3.84297843593025        3.13357444054366       -1.60938954875544
C           -2.68769581069131       -5.03867041417370        4.30484659386931
H           -1.39666850744143        3.51251503834900       -0.76806311868865
H           -4.27662633836220        0.55105838579656       -1.33106614114542
H            2.66329581305412        2.73912661909249        1.72562431984580
H            3.05775395548473       -0.69369546277216        4.16536137542516
H           -0.24710966264510       -4.12034095424229        4.22946223699121
H           -4.11477991332403       -3.04712728052358        3.03244694615357
O           -4.21824883374556        4.03433712717988       -0.87713382485991
O           -4.44510595673734        2.90643496899600       -2.81853501752979
C           -5.44216520282800        3.83300025693726       -3.02488532025093
C            4.23586651889298        1.50004220933226        3.59165660008449
O            5.05927614697201        0.66079890002952        3.91714215179376
O            4.47001334453535        2.86385149488593        3.72605651435371
C            5.79457498613219        3.08584475587818        4.15829123132174
O           -3.82227255313510       -5.27347675879771        4.16636005494405
O           -1.85023202017753       -5.79767454267276        5.06656077253571
C           -2.55119635829503       -6.86252441382958        5.62930343183426
C           -5.07197156564436       -1.42399175670916        1.58830531863830
C           -1.33089900128490       -2.23622472573986       -0.99264499351172
H           -2.54510546830388       -7.76426885143998        4.99136022291012
H           -3.57194749219491       -6.44405511486021        5.74196173723541
H           -2.09133598235598       -7.02043774843818        6.64022264233588
H            5.72707967266424        3.46798026205549        5.10135971236643
H            6.34060091246885        3.78468702308830        3.50069950143490
H            6.17933064298187        2.03010500085905        4.19342358084693
H           -0.91862729772622       -2.57650129080332       -0.01361370304871
H           -0.49769766914251       -1.60651221708571       -1.34094446550576
H           -1.52632419730509       -2.94569707152159       -1.75361447637286
H           -5.11788846557077       -2.41810833635233        1.17520213188926
H           -5.67929807973498       -0.69619639428435        1.04301666067831
H           -5.57598832326623       -1.42383358739762        2.57928294206544
H           -6.13050215934830        3.76035386975488       -2.23272855695873
H           -5.86615610071888        3.45938329385866       -4.02668959924245
H           -5.13479557532099        4.87790991548477       -2.98314551356402
C           -1.38192942069774        3.73616555005018        2.91232598411686
C           -1.84821468128685        2.59982427735607        3.49755545445181
C           -1.05946531454833        2.05730632010638        4.60922730982276
C            0.19893954712228        2.69376791964407        4.86302140881997
C            0.50425395911860        3.94630308659851        4.28768785650746
C           -0.26031777722226        4.46998310053134        3.25072669343212
C           -1.20488993561782        0.74454293276906        5.14851520323437
C           -0.06287609782692        0.02744069315890        5.60930570802864
C            1.19208754369866        0.71421540266195        5.78882868583885
N            1.19428660993148        2.06344359410476        5.62744624321596
C           -2.41361422770794        0.07928500213936        5.25249410304426
C           -2.45851584031083       -1.32662100968547        5.60237876023992
N           -1.29466212405906       -1.98318595734370        5.89916817085159
C           -0.14475655767527       -1.32117560077092        5.98824682881008
C            0.97209270935794       -1.98958449505532        6.53157704134458
C            2.21982707914082       -1.36973967291181        6.68703967237737
C            2.30561929262884       -0.09745313075593        6.26436900324455
C           -3.73018485967715        0.71367583494582        5.25810242262992
C           -4.89964478833448       -0.06184623426677        5.21204641615509
C           -4.82617965800088       -1.39228978090841        5.46901303780036
C           -3.67144193418464       -1.98914944386360        5.67265433266067
O           -3.75568638935321        2.07705011038914        5.52067969627343
O           -2.94192434743730        1.91263938797883        3.01658762327703
C            0.21273512614467        5.50086066357994        2.34765104514621
C           -6.06660304520411       -2.17604633098929        5.80641622556876
H            1.41756699010566        4.38133362238595        4.66974005703471
H           -1.82880610647429        4.11982501512100        2.06992133318584
H            3.26888037378556        0.32655662585251        6.31721410015598
H            0.87146188387207       -3.08471526305024        6.57830423410869
H           -3.67716811065157       -3.05999292755990        5.83019634570050
H           -5.77379677507622        0.43595144608221        4.71017130754348
O            1.34459852619901        5.82615848916894        2.44941456579099
O           -0.74718748219123        6.07961784856304        1.59848183464284
C           -0.21473095568964        7.24015934882472        1.05753806029483
C            3.53228080814219       -2.00967610361154        7.02506769044485
O            3.64093082622715       -3.14437803815732        7.50071391725347
O            4.56565258381079       -1.22937033368332        6.69086985080897
C            5.72579357310716       -1.80692399125161        7.22246151275881
O           -7.04801223588612       -1.95726935745904        5.14194115322235
O           -6.01514389321278       -2.93743591896022        6.94765316328794
C           -7.21292732384718       -3.62681918543340        7.15115816329978
C           -4.95459780685163        2.65960679932188        5.86868674392943
C           -3.68284113682406        2.59129188358641        2.05479246020704
H           -7.43119628931628       -4.22607794725959        6.20622607140901
H           -8.06548455146707       -2.91765848248592        7.29781126410398
H           -7.07314693247270       -4.33087306029711        7.91223421050944
H            6.57332189837178       -1.29353136199234        6.78341268688262
H            5.74663761932316       -2.84282155125561        6.88089468184451
H            5.69426191474290       -1.72781984964892        8.29460302186842
H           -4.10481209541493        3.44288266176275        2.60483747673152
H           -4.49244774344916        1.87419893016926        1.82433103764650
H           -3.18901540870812        2.85154642679373        1.06781919454921
H           -5.55414326821421        2.76698137191684        4.93950725322359
H           -4.78658370641210        3.62090640967288        6.25983200635257
H           -5.43485580473958        1.97242995129449        6.65265772412460
H            0.89164886030839        7.38838561720231        1.13776105146914
H           -0.62894889903848        8.04195665205089        1.64837664327952
H           -0.59282546386754        7.45699159724320        0.03719083132488
116
 energy: -22.826013871640 gnorm: 0.384087620747 xtb: 6.6.1 (8d0f1dd)
C           -3.34596950846108        0.19383804298675       -1.70257808228183
C           -2.46834741132825       -0.56926797884169       -0.88807423003512
C           -1.55749263151428        0.22110839680535       -0.01784639932942
C           -1.07295963464588        1.49618607609959       -0.49130667533187
C           -1.78172517390490        2.11533231476402       -1.56670292705344
C           -2.89541975190796        1.49504703742711       -2.05605979045912
C           -0.95402660326484       -0.45212926191216        1.13446420493230
C            0.21801560242741        0.18350925627678        1.54885703458693
C            0.61765073616536        1.45593863607131        0.98773823240355
N            0.05697954586276        2.04441983621854       -0.05989802325370
C           -1.45480303327859       -1.49240692817865        1.95003165709056
C           -0.52295657050319       -2.17105096775295        2.81442464329271
N            0.75992202972114       -1.68707081685075        3.01037270630465
C            1.01572099500357       -0.44864771565260        2.54428034846781
C            2.23477174832183        0.10772333677607        2.94855225749978
C            2.57560972822297        1.33748387857530        2.43211106899750
C            1.70761288975648        2.01898354583297        1.59906369649092
C           -2.78592925872425       -1.97328739156233        1.82617947067857
C           -3.10379732404378       -3.24595854796601        2.32488417306954
C           -2.16999751520934       -3.83901158369997        3.26962545067593
C           -0.95090056726693       -3.24689749901339        3.52180779301003
O           -3.70144760038342       -1.07096548580571        1.33246787049311
O           -2.59010280148103       -1.95801760940491       -0.92887696477029
C           -3.94909743109989        2.33549596165202       -2.67304793417915
C           -2.79061875353739       -4.77018217822148        4.27111029335284
H           -1.43944752126925        3.07192422514404       -1.96814264914069
H           -4.25423182095922       -0.13634670727653       -2.07970493367138
H            1.97259474433612        2.97099978161393        1.28579838142891
H            2.84131725841229       -0.31883504080477        3.74808941294093
H           -0.24930809300297       -3.45035286146124        4.35022317143900
H           -3.92783238726648       -3.70577160008360        1.95142335999054
O           -3.69646431351824        3.44649884407363       -3.09346041271798
O           -5.20709819927655        1.91248231056717       -2.41278762276382
C           -6.16443848261387        2.89767648605946       -2.82386604796090
C            3.83477716946329        1.83685154232893        3.03067328879993
O            4.61123968867077        1.08196192169165        3.65082877033284
O            4.11384952424073        3.16089171526277        2.91083569255073
C            5.01443705929392        3.43393446182309        3.80593783760281
O           -3.97330606954998       -5.13061865224330        4.43036746239377
O           -1.82831515392857       -4.96197116132249        5.20899857833377
C           -2.21953504803609       -5.57318926956962        6.38991937026313
C           -5.02959002608830       -1.46474229593214        1.02844166118926
C           -1.46281866536896       -2.69894635249012       -0.93956714455910
H           -1.77949321476486       -5.15482830554772        7.33038243341787
H           -1.75673846010421       -6.54824602073814        6.29283867964432
H           -3.27090110359318       -5.47153500840150        6.33592129268804
H            4.98758236223064        2.89217103925720        4.84601968328167
H            4.99923614380503        4.56759679119586        4.04525077279580
H            6.03650145284171        3.31379290739709        3.36962040743484
H           -1.17330943427321       -3.10945363452372        0.06517817154665
H           -0.61140344686571       -1.97993667044842       -1.28858239216926
H           -1.68030535615963       -3.34907879021351       -1.80274495578732
H           -4.70643143138508       -2.10441760395659        0.09471876817128
H           -5.54232366943064       -0.59183262614905        0.70165087234358
H           -5.78513286298929       -1.95559105269240        1.79207061808739
H           -5.62379136196635        3.87600447850668       -2.75098338532980
H           -7.20665308958060        2.79290023458499       -2.68899076116060
H           -6.15482641139898        2.72662680848367       -3.82065301313168
C           -1.12639502106419        3.75216144773916        3.42464865902520
C           -1.36760735968210        2.41910352171035        3.74044427442061
C           -0.54274745180816        1.79504878032935        4.64014039769013
C            0.66094914558787        2.43936685142118        5.10088548831240
C            0.88277030963138        3.80444848787616        4.79626019744098
C           -0.02629180229629        4.45307833456881        3.93210933805374
C           -0.85161478678372        0.53686369618689        5.19458283421005
C            0.20422671545085       -0.19449477885489        5.76044027688443
C            1.47493511054645        0.39603792956245        5.74858349433760
N            1.73855970215156        1.74880343907378        5.68247672390953
C           -2.17772321612039        0.06063160148986        5.41961754249743
C           -2.33194888309511       -1.28554990438723        5.84770654781408
N           -1.27586606546368       -2.05080862258422        6.33540922557217
C           -0.03881675057566       -1.46372201409436        6.35154672940669
C            1.14772866892985       -2.06102059318187        6.86908709119221
C            2.44063020650513       -1.53683080692868        6.96694412196666
C            2.57674314818569       -0.28880520657659        6.36037391812627
C           -3.27489099856988        0.97409597577528        5.44520065155628
C           -4.60317919002982        0.45802732004032        5.38446184111688
C           -4.85113675585116       -0.90403887586752        5.54575110370531
C           -3.72511060252517       -1.67125421751860        5.79735474492516
O           -3.06446458445857        2.33994981562959        5.88946379399034
O           -2.44783099008365        1.67736020894691        3.25882106497345
C            0.07468730717713        5.89834174592218        3.64255585293140
C           -6.21922625736766       -1.49311285057942        5.76406699917959
H            1.70087827108630        4.33462159092910        5.14080141760511
H           -1.78879927870397        4.20818763825649        2.77764139303982
H            3.53494073444185        0.13197595915451        6.41520983670242
H            1.03813079005086       -2.92967033368621        7.48542039069068
H           -3.88832852339438       -2.66754329773343        6.18317733883230
H           -5.45444660065595        1.11322098554604        5.31040495333517
O            1.07825851529943        6.49821300579413        4.09523464044388
O           -0.81329210756361        6.45068945490572        2.77135336634642
C           -0.53872417603222        7.81638455744816        2.76475583856069
C            3.53200762004368       -2.29415699304973        7.72635320351808
O            3.34552444020458       -3.37809332636536        8.22449694354553
O            4.75645524519058       -1.66325168761523        7.60791961588229
C            5.75149292497444       -2.55661251567261        7.92196828741317
O           -7.22048476541758       -0.75042958459990        5.86652101124277
O           -6.23021833101554       -2.82543068767562        6.11794055826382
C           -7.51495286997981       -3.28250583256070        5.83564400608124
C           -3.99529835803613        2.71474259675877        6.85548097392981
C           -2.88490439554389        2.03371791492755        2.00985921887169
H           -8.14751218812579       -2.65254787936226        5.19504220032910
H           -8.01640170682741       -3.70971259153324        6.69438687860376
H           -7.53108758780606       -4.10674521115073        5.08743045117327
H            6.34852822635368       -2.16973776514466        8.71914175455491
H            6.36179811868044       -2.85859935747760        6.97594553448990
H            5.10735443994153       -3.36456408091073        8.25295828580952
H           -3.18910494141775        3.09079704488542        1.90396904250389
H           -3.58146649804817        1.26680784971331        1.63904312319525
H           -1.88630377894318        2.11955180112978        1.38989732925821
H           -3.50280599967120        3.47988057385682        7.46768207794049
H           -4.34520006424670        1.83421114533669        7.34450578924189
H           -4.94243073543879        3.29009274181973        6.47926585289975
H            0.50130400303371        7.98767810515978        3.10780942149377
H           -1.18689108600585        8.14832542004483        3.60233871410336
H           -0.56069822951204        8.30964251032577        1.76091212414969
116
 energy: -22.853825304989 gnorm: 0.376587943554 xtb: 6.6.1 (8d0f1dd)
C           -3.68585612772382        0.16046347273004       -1.76668116391232
C           -3.00724127319423       -0.46193797937223       -0.69299230678351
C           -2.03905028921375        0.22944677458055        0.00113224994427
C           -1.72743598664116        1.59940341583321       -0.44463486940617
C           -2.42153949734645        2.13180489295558       -1.49217371933628
C           -3.33154698026210        1.42926951482111       -2.19967583801189
C           -1.34971964180782       -0.19679853221215        1.20991581298939
C           -0.15588898433407        0.46429276198122        1.53158721682530
C            0.06838630666902        1.76174308184378        0.98231964653888
N           -0.61056745106534        2.28420216642996       -0.01595367406825
C           -1.76461023969461       -1.15573105363817        2.16114466191275
C           -0.82141776807018       -1.62724638006747        3.06291277718493
N            0.39043481833105       -1.13513141772384        3.32450977149004
C            0.67340417534960       -0.02119940671694        2.55619948173542
C            1.92439187982745        0.64426342623170        2.72862254149622
C            2.15428687720673        1.92465202607019        2.34008377141004
C            1.18542436346664        2.48707670588039        1.44659179556877
C           -3.09467713134406       -1.67846553846878        2.22191423584710
C           -3.40165216404043       -2.99074792519911        2.77057271606217
C           -2.36528543957112       -3.49368976194061        3.55590441673172
C           -1.13232933766308       -2.82372664754554        3.65401893145472
O           -4.10788574489080       -0.97209343002977        1.65961570651288
O           -3.02471674471887       -1.84025392667958       -0.55004775567364
C           -4.05738191436771        1.92598947598782       -3.48316872312683
C           -2.52845282677039       -4.78386639467463        4.27454846298570
H           -2.00818872493522        3.00724826582763       -1.97764663749605
H           -4.42535814063423       -0.39236370948324       -2.29000776546969
H            1.33025510933471        3.55943478891906        1.33056745682536
H            2.56420180187966        0.20055573950807        3.43364355007661
H           -0.35347662812692       -3.14112835785062        4.37773674866443
H           -4.21858517741457       -3.62842337321812        2.53825781105345
O           -4.10903775073049        3.09502570749743       -3.87011675081879
O           -4.63725735161793        0.96479418359429       -4.23717879870883
C           -5.01746670986963        1.46401392142514       -5.55134008937141
C            3.43002868369308        2.65505122270449        2.82125423558939
O            3.85372413411966        2.59633771390161        3.96791499550706
O            4.03799687445368        3.28747299050316        1.76693388651573
C            5.05208944146255        4.17819824094455        2.31178643067173
O           -3.60949079488651       -5.31907550392086        4.16355146991961
O           -1.38614598354828       -5.26310005255787        4.96794867176839
C           -1.52896116353140       -6.54012119290037        5.47969486225862
C           -5.48855121582076       -1.15093661182399        2.23539756936276
C           -1.93627071548595       -2.47083676787236       -1.02517941620337
H           -0.64617315408230       -6.92285565773163        5.96598906910456
H           -1.58113451387184       -7.22244220205078        4.58899615370924
H           -2.50535696861209       -6.59976319041186        6.02415182630552
H            4.55560459211934        4.99182355481911        2.81689983388166
H            5.68653068597543        4.44764423612775        1.53784309717438
H            5.59772633816284        3.59911534732924        2.98743062901066
H           -2.30153760378597       -3.50204504129978       -1.14216269353423
H           -1.03468816162740       -2.33167523062003       -0.27458503685132
H           -1.53525750338325       -2.15213400177264       -2.07164694831332
H           -6.32248160480443       -1.50340205052640        1.61569270302387
H           -5.82431182975970       -0.16584381893955        2.63868738313931
H           -5.47095221638791       -1.71409766759615        3.24800087670697
H           -5.60067418196683        2.27120216473141       -5.31138166162104
H           -5.62695655706945        0.70872476541972       -6.13321547546653
H           -4.19722984959891        1.78709885156534       -6.27286262496547
C           -0.63816603736661        3.98285353030679        3.81908774153532
C           -1.11105685353787        2.75087615816798        4.31518383814158
C           -0.35731399800431        2.07433659417421        5.37073109474749
C            0.90381508357827        2.61385946440802        5.81898910429128
C            1.33603628789795        3.80118842467045        5.24021197909547
C            0.62505127491293        4.42310951105252        4.25158469966234
C           -0.73535390488303        0.85518589809328        5.95350688907449
C            0.20504025020205        0.06974476290673        6.53254647901287
C            1.55633205642673        0.52204461389817        6.63779899679554
N            1.85792660085670        1.82514506064836        6.28845359661708
C           -2.02092516464219        0.15322115000500        5.94305682258261
C           -2.21512469565065       -1.26643426909308        6.15529412310010
N           -1.22132022091867       -2.01047413574281        6.55782642537411
C           -0.03196180350348       -1.39729923631661        6.70044657456682
C            1.07245565181716       -2.17391335749490        7.11133936088994
C            2.33485100642581       -1.68099872217127        7.30038060743667
C            2.62905705464167       -0.34123360824973        6.96552284944079
C           -3.18551465547750        0.91569794291496        5.94283397930256
C           -4.41751760380127        0.26003256748861        5.63932428024150
C           -4.68937276982923       -1.14434579722899        5.66859354391685
C           -3.52440116890084       -1.88721045370729        5.92452843998280
O           -3.08312995125799        2.30066939477289        6.19913304695791
O           -2.15692722267393        2.17186582612329        3.65764982970683
C            1.03887222562058        5.73312458763359        3.70197905631682
C           -6.05151793564495       -1.84451759167370        5.46799223328856
H            2.34897305976129        4.01737974210256        5.44164022507039
H           -1.27031960670122        4.65131595800998        3.33009344262956
H            3.49308555808256        0.22427873934434        7.13980361791214
H            0.92714431283795       -3.19840459163003        7.40407766837985
H           -3.69894914492015       -2.94586137161706        6.03038454898862
H           -5.24321725596883        0.90912050163102        5.40001663393047
O            2.17158066387421        6.04254756323523        3.55335403571296
O            0.02319131860382        6.52509705976120        3.18243998909062
C            0.74071904879021        7.73711620222197        2.79095324229701
C            3.35186528903062       -2.68907953308916        7.63701355681421
O            2.98675177195887       -3.85361773868579        7.53308962060779
O            4.60599676038177       -2.39000539657827        8.03233248861122
C            5.29710662397807       -3.70189312517665        8.38019491212343
O           -7.04745516825176       -1.23625774933837        5.08029250205995
O           -5.93343437842699       -3.26192521623095        5.50956227035836
C           -7.28904384151153       -3.65789741275012        5.20929023791939
C           -4.12998072452970        2.52436099278070        7.13959107400177
C           -3.15907632468681        3.00001485471558        3.21150480442533
H           -7.34365166901498       -3.76582532740316        4.10209739375524
H           -8.01266914459239       -2.91265724055138        5.62827135548771
H           -7.52950805264990       -4.69777323251205        5.39257258289119
H            6.36961862772957       -3.44930595500178        8.46543046014527
H            5.12167545290128       -4.48216712243880        7.71595009600550
H            5.08324138477676       -4.05547015392409        9.41135549382049
H           -3.54425418106597        3.65162772006599        4.03365288622358
H           -3.96331166699853        2.29940428401489        2.98563581544835
H           -2.86477228341700        3.55668081699267        2.30940816618889
H           -5.03823247215009        2.10038862043416        6.74785717910434
H           -4.36663929241807        3.57325368615917        7.18010629685898
H           -4.02230484864159        2.32452979383385        8.15932144874934
H            1.52673500395707        7.38777584820210        2.02652770404201
H            1.34735138780969        8.09427257030616        3.63102851985271
H            0.20552891724970        8.58181970712680        2.44878597425690
116
 energy: -22.885440114354 gnorm: 0.352317673471 xtb: 6.6.1 (8d0f1dd)
C           -3.56280884606052       -0.09174161679755       -1.91142976599095
C           -2.78459985311259       -0.54215814482704       -0.90986937854939
C           -1.91010106955891        0.38581438507047       -0.16615350661328
C           -1.64270244196545        1.68034768152300       -0.75807245070262
C           -2.26559662337330        1.94479628159621       -1.95615284610733
C           -3.27020293671291        1.14282985255906       -2.49658662285599
C           -1.17105983497150        0.09397451559308        0.97958945607025
C           -0.00475644623712        0.83827580955841        1.24495573355897
C            0.17571952598614        2.12502609296263        0.63888042988201
N           -0.71294329652811        2.48640665498277       -0.35770160153654
C           -1.65474157814776       -0.89282903965820        1.99304771498149
C           -0.65115641674154       -1.34740083492876        2.92503088967694
N            0.66200983024367       -0.89868397774726        2.85221207393641
C            0.79129263947895        0.39440867551499        2.32325580276653
C            1.92013321018294        1.20651798956316        2.62486718339861
C            2.16890947640431        2.42813001525886        1.95553369562127
C            1.22911439755545        2.95355243330049        1.07428790173488
C           -2.98722369102505       -1.36663631066906        2.12981371336211
C           -3.18505329418375       -2.48567118823383        2.90707931865692
C           -2.14818187370036       -3.12863497250231        3.53049205640799
C           -0.92484380437987       -2.56847707540544        3.57504507461616
O           -4.09649814013652       -0.76618371769520        1.57973340752225
O           -2.82394717772818       -1.93212008298021       -0.63975784570419
C           -3.96559591394700        1.73275475588398       -3.71235385219405
C           -2.48378658000852       -4.38849924841212        4.21131013558479
H           -1.97398826258694        2.81316766062480       -2.51450598470380
H           -4.28369323391688       -0.73421232120181       -2.41474183468260
H            1.23531668270848        3.86186269508121        0.51500799037226
H            2.67797544010617        0.70314454085682        3.24773763858724
H           -0.22548493783624       -3.03526396145170        4.24828545236487
H           -4.23978310114896       -2.91283990180832        2.93552266450099
O           -3.68776584707688        2.80248474575998       -4.18582083560952