116
 energy: -22.928061455056 gnorm: 0.329736929581 xtb: 6.6.1 (8d0f1dd)
C           -3.31122850772930        0.79849766164622       -0.92477639677520
C           -2.44380812530352       -0.12270372891954       -0.27661132624697
C           -1.41337090092821        0.39579727573559        0.56335275196199
C           -0.89266158675590        1.65801491088749        0.27377586709581
C           -1.72665675402493        2.51431363229076       -0.49448366572522
C           -2.95444148494349        2.13954154133227       -1.01494489940871
C           -0.74098268209890       -0.43411532818871        1.49825021926784
C            0.56872586496315        0.03782116815119        1.86248088067890
C            1.03782416582094        1.29402317993033        1.50887470833621
N            0.31238977034758        2.07067427098208        0.65193736800696
C           -1.29695700510141       -1.39996043042223        2.41574187746061
C           -0.38243517664656       -2.18060797534842        3.13232615520648
N            0.91308504082021       -1.90366887689689        3.30325166013478
C            1.37712470144904       -0.74872102533751        2.81811050966982
C            2.52149331701875       -0.17739833758153        3.39379298866852
C            2.95849061756259        1.02681208890480        2.95105897606587
C            2.24288949469137        1.78498308775960        2.03503020483770
C           -2.74860936222260       -1.74497937691422        2.38401158947411
C           -3.09416315450955       -2.91614440870436        3.00571134491758
C           -2.16786021984049       -3.77788778654213        3.63251872101904
C           -0.85708937311598       -3.40495313382985        3.68547234358092
O           -3.71994433332149       -0.94984598373544        1.67726658385724
O           -2.55702603277562       -1.47241711578389       -0.57241635275616
C           -3.84297843593025        3.13357444054366       -1.60938954875544
C           -2.68769581069131       -5.03867041417370        4.30484659386931
H           -1.39666850744143        3.51251503834900       -0.76806311868865
H           -4.27662633836220        0.55105838579656       -1.33106614114542
H            2.66329581305412        2.73912661909249        1.72562431984580
H            3.05775395548473       -0.69369546277216        4.16536137542516
H           -0.24710966264510       -4.12034095424229        4.22946223699121
H           -4.11477991332403       -3.04712728052358        3.03244694615357
O           -4.21824883374556        4.03433712717988       -0.87713382485991
O           -4.44510595673734        2.90643496899600       -2.81853501752979
C           -5.44216520282800        3.83300025693726       -3.02488532025093
C            4.23586651889298        1.50004220933226        3.59165660008449
O            5.05927614697201        0.66079890002952        3.91714215179376
O            4.47001334453535        2.86385149488593        3.72605651435371
C            5.79457498613219        3.08584475587818        4.15829123132174
O           -3.82227255313510       -5.27347675879771        4.16636005494405
O           -1.85023202017753       -5.79767454267276        5.06656077253571
C           -2.55119635829503       -6.86252441382958        5.62930343183426
C           -5.07197156564436       -1.42399175670916        1.58830531863830
C           -1.33089900128490       -2.23622472573986       -0.99264499351172
H           -2.54510546830388       -7.76426885143998        4.99136022291012
H           -3.57194749219491       -6.44405511486021        5.74196173723541
H           -2.09133598235598       -7.02043774843818        6.64022264233588
H            5.72707967266424        3.46798026205549        5.10135971236643
H            6.34060091246885        3.78468702308830        3.50069950143490
H            6.17933064298187        2.03010500085905        4.19342358084693
H           -0.91862729772622       -2.57650129080332       -0.01361370304871
H           -0.49769766914251       -1.60651221708571       -1.34094446550576
H           -1.52632419730509       -2.94569707152159       -1.75361447637286
H           -5.11788846557077       -2.41810833635233        1.17520213188926
H           -5.67929807973498       -0.69619639428435        1.04301666067831
H           -5.57598832326623       -1.42383358739762        2.57928294206544
H           -6.13050215934830        3.76035386975488       -2.23272855695873
H           -5.86615610071888        3.45938329385866       -4.02668959924245
H           -5.13479557532099        4.87790991548477       -2.98314551356402
C           -1.38192942069774        3.73616555005018        2.91232598411686
C           -1.84821468128685        2.59982427735607        3.49755545445181
C           -1.05946531454833        2.05730632010638        4.60922730982276
C            0.19893954712228        2.69376791964407        4.86302140881997
C            0.50425395911860        3.94630308659851        4.28768785650746
C           -0.26031777722226        4.46998310053134        3.25072669343212
C           -1.20488993561782        0.74454293276906        5.14851520323437
C           -0.06287609782692        0.02744069315890        5.60930570802864
C            1.19208754369866        0.71421540266195        5.78882868583885
N            1.19428660993148        2.06344359410476        5.62744624321596
C           -2.41361422770794        0.07928500213936        5.25249410304426
C           -2.45851584031083       -1.32662100968547        5.60237876023992
N           -1.29466212405906       -1.98318595734370        5.89916817085159
C           -0.14475655767527       -1.32117560077092        5.98824682881008
C            0.97209270935794       -1.98958449505532        6.53157704134458
C            2.21982707914082       -1.36973967291181        6.68703967237737
C            2.30561929262884       -0.09745313075593        6.26436900324455
C           -3.73018485967715        0.71367583494582        5.25810242262992
C           -4.89964478833448       -0.06184623426677        5.21204641615509
C           -4.82617965800088       -1.39228978090841        5.46901303780036
C           -3.67144193418464       -1.98914944386360        5.67265433266067
O           -3.75568638935321        2.07705011038914        5.52067969627343
O           -2.94192434743730        1.91263938797883        3.01658762327703
C            0.21273512614467        5.50086066357994        2.34765104514621
C           -6.06660304520411       -2.17604633098929        5.80641622556876
H            1.41756699010566        4.38133362238595        4.66974005703471
H           -1.82880610647429        4.11982501512100        2.06992133318584
H            3.26888037378556        0.32655662585251        6.31721410015598
H            0.87146188387207       -3.08471526305024        6.57830423410869
H           -3.67716811065157       -3.05999292755990        5.83019634570050
H           -5.77379677507622        0.43595144608221        4.71017130754348
O            1.34459852619901        5.82615848916894        2.44941456579099
O           -0.74718748219123        6.07961784856304        1.59848183464284
C           -0.21473095568964        7.24015934882472        1.05753806029483
C            3.53228080814219       -2.00967610361154        7.02506769044485
O            3.64093082622715       -3.14437803815732        7.50071391725347
O            4.56565258381079       -1.22937033368332        6.69086985080897
C            5.72579357310716       -1.80692399125161        7.22246151275881
O           -7.04801223588612       -1.95726935745904        5.14194115322235
O           -6.01514389321278       -2.93743591896022        6.94765316328794
C           -7.21292732384718       -3.62681918543340        7.15115816329978
C           -4.95459780685163        2.65960679932188        5.86868674392943
C           -3.68284113682406        2.59129188358641        2.05479246020704
H           -7.43119628931628       -4.22607794725959        6.20622607140901
H           -8.06548455146707       -2.91765848248592        7.29781126410398
H           -7.07314693247270       -4.33087306029711        7.91223421050944
H            6.57332189837178       -1.29353136199234        6.78341268688262
H            5.74663761932316       -2.84282155125561        6.88089468184451
H            5.69426191474290       -1.72781984964892        8.29460302186842
H           -4.10481209541493        3.44288266176275        2.60483747673152
H           -4.49244774344916        1.87419893016926        1.82433103764650
H           -3.18901540870812        2.85154642679373        1.06781919454921
H           -5.55414326821421        2.76698137191684        4.93950725322359
H           -4.78658370641210        3.62090640967288        6.25983200635257
H           -5.43485580473958        1.97242995129449        6.65265772412460
H            0.89164886030839        7.38838561720231        1.13776105146914
H           -0.62894889903848        8.04195665205089        1.64837664327952
H           -0.59282546386754        7.45699159724320        0.03719083132488
116
 energy: -22.846335965995 gnorm: 0.383896184991 xtb: 6.6.1 (8d0f1dd)
C           -2.65453547235555        0.89050462630272       -0.99829810993156
C           -1.93694746456060        0.07789265544349       -0.20231645465791
C           -1.07279169364751        0.67070925793686        0.84182636291065
C           -0.71684742232714        2.03387664559519        0.76477093980361
C           -1.42813573814001        2.86361138813401       -0.09745036794333
C           -2.44633733820481        2.33113104388321       -0.86794299113096
C           -0.37359064159744       -0.15704264649024        1.77449896595392
C            0.92466430087784        0.20019517261401        2.01559300599011
C            1.25426537950185        1.57161803758773        1.79960019190774
N            0.38438863485121        2.55731764689404        1.30045028943133
C           -0.80129636009602       -1.46965587969174        2.21357642518360
C            0.07383265909261       -2.35097563503863        2.79099422554248
N            1.38966574037527       -2.03387343568612        2.77452135361541
C            1.79627493329791       -0.79845466003538        2.41745241488301
C            3.09414022225601       -0.40052152428444        2.65133697103115
C            3.45068041628173        0.95323259230612        2.46432277597099
C            2.55661554888073        1.94220026828549        2.12961974014562
C           -2.17762070534255       -1.86973940956242        2.36097367708891
C           -2.60194919092888       -2.97007944182327        3.12167846680382
C           -1.66028931172008       -3.79687821544404        3.67920976403327
C           -0.35246143925021       -3.46163053678487        3.54398829895510
O           -3.14169547040005       -0.92516866516025        1.87135825506775
O           -1.94683684907514       -1.31019961846536       -0.48572559625960
C           -3.26250702589332        3.10981048791713       -1.83971963487894
C           -2.13470549819803       -4.81267664635466        4.71039891861551
H           -0.97260047918333        3.77077186073884       -0.38875288459282
H           -3.45942720589289        0.56221180647626       -1.56045786984895
H            3.02154939555691        2.91008461506737        1.93525451674523
H            3.89152060832318       -1.02818666053439        3.10579101736373
H            0.40150345122159       -4.04168923842671        3.98656258732285
H           -3.68792283086839       -3.30284217380823        3.25649485922689
O           -2.90474576088788        4.25802114112500       -2.04996477388226
O           -4.08347792520491        2.42675657085533       -2.60847246693681
C           -4.70404506177437        3.22251863822414       -3.63168582199290
C            4.80638122298085        1.25990367199499        2.99866358862495
O            5.45922393165731        0.49245506066993        3.60492668257976
O            5.16481039085920        2.52702017038795        2.56770875465694
C            6.48448766434516        2.75006690850406        2.97938665366468
O           -3.32883929310227       -4.82813659509023        5.12080282214139
O           -1.12253075210271       -5.69726888625921        5.12417418248439
C           -1.57156085644115       -6.62188486369023        6.05327466311873
C           -4.33509677642259       -0.80089171298267        2.62941805771011
C           -2.06607701342417       -1.75283447627171       -1.79473371188253
H           -2.42017714979058       -7.18850377672571        5.60265349237238
H           -1.95086893138659       -6.02115990059872        6.93266635678912
H           -0.76476724805462       -7.36267337688453        6.18713447737232
H            6.28369575968227        3.05210430494439        4.01228969611608
H            6.89250435598621        3.53856573323868        2.35804264226102
H            6.95748824030241        1.67934996389111        2.81733208081041
H           -1.74818485675031       -0.86198050722328       -2.39708433311131
H           -3.00155499203181       -2.30918625657498       -2.13088911340329
H           -1.27928013015360       -2.52071385762686       -1.79621654718782
H           -5.25708805650858       -1.18869324193314        2.21146290910909
H           -4.38527998405055        0.30365825418898        2.88462856027804
H           -4.19796316728748       -1.27834691564377        3.66176736824079
H           -5.14909796924920        2.61420299294146       -4.45873238565976
H           -3.84785988180414        3.73265437804380       -4.03627354968692
H           -5.30374104787144        4.06902588977893       -3.30418829789072
C           -2.15884967252621        4.08982130810193        3.70407193308737
C           -2.36447992504808        2.79117881430810        4.11331301954750
C           -1.30516083104707        1.95525809691174        4.68386055208217
C            0.04647478131538        2.40853944997965        4.46991158709766
C            0.25797779648226        3.65871925394914        3.91007892235878
C           -0.85236879837994        4.49912658815686        3.42819606557590
C           -1.52093034462979        0.67230748777842        5.34647843965929
C           -0.36658878596325       -0.10237717071582        5.46305152312906
C            0.88282407703316        0.39171350572161        5.22079235873446
N            1.18727856096790        1.68091051718919        4.87896357179516
C           -2.76762971502079        0.03079411873997        5.78556259252513
C           -2.69711165113381       -1.36777897171737        5.94344674163521
N           -1.58585484349501       -2.09374330644148        6.21016424273987
C           -0.41043887881139       -1.45950609870412        6.00148443953997
C            0.75768044693491       -2.23237768311627        6.13514050635609
C            1.98427149155701       -1.61062994393914        6.00789334818127
C            2.08483312581210       -0.33276822314732        5.53283742050445
C           -3.96536883483989        0.77194598360228        6.13715651587111
C           -5.17799612557010        0.06664108885828        6.08257059824156
C           -5.23586601801083       -1.32708282725203        5.96058662744688
C           -3.98054744337857       -1.99237808008320        6.08793109710847
O           -3.96448686541720        2.19054774058738        6.46396394556104
O           -3.65404373247320        2.31774742004423        3.96435348953306
C           -0.68188290792143        5.75035846913308        2.65777807444870
C           -6.51703400727945       -2.06781639576585        5.89403441806824
H            1.27539900755646        4.03328450421926        3.68820130376666
H           -3.01805860222225        4.54932670278018        3.26325317495852
H            3.02021954368069        0.01450212370178        5.19287323268900
H            0.76823739573901       -3.15270076646735        6.71795212197687
H           -3.94384402041061       -3.07287570845485        5.98807578519840
H           -6.15082334958776        0.61483239047489        5.98120803485362
O            0.39090019469234        6.39287751610733        2.48891896409707
O           -1.80576212082179        6.02744359775181        1.91839158507417
C           -1.54139230492972        7.13880004227151        1.10244612027962
C            2.99303797615183       -2.42599667597846        6.75360873917665
O            2.69484440584823       -3.40418797370419        7.43333811591459
O            4.18907271254344       -1.85358055338425        6.65321928816277
C            5.02503933538829       -2.51620867783766        7.56591676460572
O           -7.51687084987775       -1.40595101771040        6.23774980785982
O           -6.56649556406055       -3.33454143595952        5.40283651200899
C           -7.90176120452798       -3.84911785753610        5.55300020925385
C           -5.14565869246531        2.95744462566297        6.47517245570400
C           -4.37303090613258        2.80826375460995        2.81211580724522
H           -8.67687913254101       -3.68147189447881        4.76450675822923
H           -8.09644077998261       -3.25387586837189        6.40605481761306
H           -8.06853294503234       -4.80683659249682        6.04846744412333
H            4.50760924058796       -2.91741077053788        8.47703791139810
H            5.88069860323245       -1.88940322445525        7.94525314534317
H            5.22545657580851       -3.45782688773320        6.94182091474219
H           -5.32923022425873        2.31119500551587        2.77141749779303
H           -3.95919923660894        2.61461308470474        1.87483979189221
H           -4.57765368721419        3.98253449128368        2.74160515312312
H           -5.67752280363809        2.59304634586904        5.58803341805341
H           -4.86517969445541        4.02168593769461        6.40990499492534
H           -5.54538752504358        2.86139018379549        7.43118678129227
H           -0.85428173735768        7.01193893346295        0.25718418118529
H           -0.91584313523792        7.87354252499030        1.76764436316117
H           -2.54448482369887        7.34931799365324        0.50578213380451
116
 energy: -22.896488781057 gnorm: 0.336821797763 xtb: 6.6.1 (8d0f1dd)
C           -2.87240473778543        0.70508694238556       -0.70233384050858
C           -1.97819408796892       -0.23974619963218       -0.09944993130770
C           -0.89262587677587        0.30593096021589        0.68624459302126
C           -0.44923879293036        1.65562956143771        0.40864689357735
C           -1.26233452916993        2.47975894384515       -0.34512978927998
C           -2.45105412633333        1.99606527433244       -0.82855258430691
C           -0.10725901345078       -0.46247506978544        1.62247790708284
C            1.09584532670849        0.08043281389638        2.04604111886418
C            1.52482340283875        1.38805288927882        1.60654093808937
N            0.74248514227897        2.16809478820198        0.87613803086516
C           -0.53230056301602       -1.64575693507644        2.29876266844981
C            0.49100969920607       -2.35022868903771        3.04515062382822
N            1.72365774803699       -1.93129758600620        3.32400317644007
C            2.00635467434038       -0.68106653537847        2.91907424776648
C            3.33711282452444       -0.27126422354410        3.11697631829402
C            3.76640662327839        0.99206662821342        2.67866351363034
C            2.76440154912381        1.87382922564035        2.08548649427445
C           -1.86441344583854       -2.08675983263974        2.44592402329934
C           -2.13639220218524       -3.37293939485739        2.92679063458249
C           -1.13332006181180       -4.14734390208855        3.43383308358435
C            0.15960802851135       -3.64317013470631        3.55386722840234
O           -2.79732334503463       -1.08109629976956        2.13482443110181
O           -2.06980721716032       -1.62875325404456       -0.40070070602735
C           -3.13735312143264        3.00985685500446       -1.64588193879036
C           -1.51229967891040       -5.52784546579760        4.06479905054622
H           -1.06972072608924        3.52223584022375       -0.56562485078919
H           -3.77130313873936        0.36163479397117       -1.07590423943866
H            2.85170037666324        2.99781924050135        2.08969959011079
H            4.00378318520873       -0.68973817548569        3.90242823592306
H            0.92762119284239       -4.20317897977480        4.00446240837189
H           -3.19423955265788       -3.81412122442927        2.91910186296144
O           -2.73093840062061        4.14955126578672       -1.59226911034072
O           -4.17229778869559        2.49495995883029       -2.46502926011156
C           -4.87061847754663        3.59445334063008       -2.93390340736563
C            5.09481893879981        1.58185749622733        3.00225912860519
O            5.22063031167778        1.90078936695987        4.18286231822846
O            5.98041368701831        1.85495590540101        2.05487408401365
C            6.87203736311751        2.82074063637466        2.60190327693427
O           -2.57301666352417       -6.05827558208759        3.67846910265987
O           -0.53006826908954       -6.08450039305973        4.74967327987294
C           -0.79019920714370       -7.30785546766206        5.29765150983100
C           -4.09725614650803       -0.93924334594338        2.72623631623720
C           -2.64730193380802       -2.03917502293070       -1.61472180282405
H           -0.70247140035467       -8.09599821712309        4.56781031418099
H           -1.78607198809242       -7.23328803981055        5.64889842138010
H           -0.17165854426514       -7.54075964830092        6.15630403814639
H            7.64547128904059        3.02198848785397        1.80566427541663
H            7.44350548610573        2.52853246200298        3.45685882602007
H            6.18174839135038        3.59164233207728        3.05312657147994
H           -3.42689172698869       -1.27144525755385       -1.90336068391939
H           -3.14535484615338       -2.96855712100540       -1.36338701412632
H           -2.03847382177104       -2.09794343535739       -2.54519873164754
H           -4.61109348116886       -1.92002583374443        2.92360079408173
H           -4.68472119087624       -0.28136143070095        2.01073278072120
H           -4.04846789367482       -0.41229142819275        3.66845473453451
H           -5.87523687783505        3.27180164202782       -3.00300440946646
H           -4.60599908720047        3.64785017957070       -3.97885235832430
H           -4.67497712179501        4.59459384150448       -2.43299807019504
C           -2.11724281953326        4.00892956131898        3.31792998168442
C           -2.52570131448573        2.87945886245370        3.95906474906252
C           -1.59233332585442        2.19649212598725        4.85924867823281
C           -0.30190948595479        2.66480020932659        4.91321064279882
C           -0.03073091487885        3.92712025339011        4.37276141280967
C           -0.91160114040078        4.65689825013977        3.59277554299195
C           -1.89933196260810        1.01938565167015        5.57619160162350
C           -0.79688993498220        0.26380002101650        5.86577596618338
C            0.56194535616953        0.79913715294039        5.83496530758484
N            0.77641071119493        2.01853098794173        5.38222884360016
C           -3.15390158946075        0.33418579414765        5.81653936244369
C           -3.10181871771190       -1.09243702639850        5.92308132673888
N           -2.03235084753689       -1.85687313231105        6.09525708447315
C           -0.89860966995532       -1.18524788370656        6.07181511379427
C            0.25024330477678       -1.93423148322979        6.33742035912064
C            1.56417484239925       -1.34669121771060        6.44806036729759
C            1.71343245638879       -0.00415124084912        6.02342681823932
C           -4.35519351974578        1.09469445392328        6.18920671092577
C           -5.57994374937612        0.42575670178306        6.24862198337959
C           -5.47851810786780       -0.94444423112354        6.13113573780887
C           -4.36647357519362       -1.74200567429311        6.05853784734558
O           -4.23304113143671        2.46652279412297        6.36684696584260
O           -3.69194496289951        2.30072803962760        3.56329112905759
C           -0.48739280623995        5.79275706299755        2.79957739385681
C           -6.90925379755426       -1.59777624384262        6.09243288699861
H            1.04548314746431        4.12455541914554        4.45073418352232
H           -2.62453762422864        4.48491521154038        2.47228650435923
H            2.67422045406312        0.42105191732819        5.94485236155207
H            0.05666935865444       -2.98917792494821        6.46354442179294
H           -4.47538061447118       -2.81100010339143        5.90089649785378
H           -6.58566229294363        0.88822331201285        6.33701337963887
O            0.56817065322873        6.29099445215282        3.00062056124021
O           -1.37379938686635        6.12600363075056        1.76388187521079
C           -0.78192353845906        7.00612627984712        0.88923893511270
C            2.71996583222776       -2.26552381745717        6.67413978618808
O            2.61576748050647       -3.26198042478832        7.36586849563862
O            3.86932094111109       -1.84634411074619        6.04577025560939
C            4.62094372291451       -2.99943627639597        5.79700032182500
O           -7.90156569300109       -0.88840198577008        5.88407911658801
O           -6.95436868172176       -2.98248566028737        6.05312591121278
C           -8.24458823704555       -3.63372529127642        5.93635856905827
C           -5.41423124166745        3.01184280279006        6.86760535463287
C           -4.56760875033998        2.88480560398640        2.65747884872881
H           -9.00551591788461       -2.91709714467611        5.60547936230690
H           -8.49575448489385       -3.91686837527819        6.96521805985670
H           -8.29903437009328       -4.43913787934884        5.16563316309317
H            5.01258184508976       -3.28695036729649        6.72934794013645
H            5.47310759632589       -2.80533679313368        5.16329721915764
H            4.08508645717408       -3.75190107153809        5.33022420393860
H           -5.57695127779367        2.52424169652890        2.75441920470497
H           -4.21559762478221        2.67100838794999        1.64302732544265
H           -4.71827709281342        3.99789450834143        2.88231204217727
H           -6.24774490311795        2.78946261594861        6.25631901132052
H           -5.28520756021713        4.06613094446795        6.80541741673620
H           -5.56556205596855        2.68941764504971        7.92247748741783
H           -1.11675695019968        6.70145796755853       -0.05010914383733
H            0.30170158479582        6.82664966218995        0.96983026592699
H           -1.32047061614009        7.91985631208619        1.12945267910799
116
 energy: -22.885270916030 gnorm: 0.350239667028 xtb: 6.6.1 (8d0f1dd)
C           -2.56867508057738        0.74251978949276       -0.98129221387235
C           -1.73547673255320       -0.16237181332947       -0.42323503397347
C           -0.76174752845602        0.31049331676842        0.49521370296286
C           -0.38507991259772        1.74658354295207        0.37662847775140
C           -1.16716331687034        2.65193075058639       -0.34365566443690
C           -2.36104593181455        2.15699243780628       -0.84481187938373
C           -0.12677865641047       -0.38579736942724        1.55300785566391
C            1.14152528310914        0.15545618900386        1.90701902138965
C            1.57432651662398        1.48817062157608        1.56219524553107
N            0.76705765115029        2.24726736708031        0.83453968083174
C           -0.60938572620120       -1.59622834247994        2.18193976267465
C            0.24924102763923       -2.34035802804087        2.98506174001595
N            1.51680349191694       -1.90512035074777        3.11711273564527
C            1.98445389122762       -0.67655575206802        2.70155547169989
C            3.19071704836300       -0.05627033071613        3.23990072888859
C            3.49376875851657        1.28670218710728        2.97469511063428
C            2.79054221973447        1.96833112545118        2.07523793880991
C           -1.96754877804843       -1.97634277071365        2.10330782546366
C           -2.32883251979510       -3.17195808603131        2.71475294755841
C           -1.47981029817727       -3.92385452853336        3.56033027628758
C           -0.16755424951674       -3.53566759831654        3.55472525473053
O           -2.87784108622394       -1.07354809954384        1.54772132240244
O           -1.87275346151378       -1.52808431091989       -0.60474278361464
C           -3.25002448909383        3.25905533241468       -1.19417604410536
C           -1.83935953639114       -5.22847986462738        4.15994442394714
H           -0.92993415346354        3.70581403457765       -0.25442628522643
H           -3.43825795201694        0.46830047904707       -1.48644635588299
H            3.17666839225857        2.92001330675171        1.74885709043050
H            3.79290368541570       -0.66312891199225        3.95220011094006
H            0.44009376040283       -4.30919661014684        4.01727487109061
H           -3.33208608947363       -3.56741474982614        2.68171952712603
O           -3.07717351107292        4.29305318002015       -0.55478049337268