136
 energy: -187.523307710770 gnorm: 0.082508264580 xtb: 6.7.1 (edcfbbe)
C           -1.22430000000000        1.82110000000000        0.15300000000000
C           -1.28950000000000        0.43770000000000        0.13700000000000
C           -0.06900000000000       -0.28110000000000        0.12990000000000
C            1.18420000000000        0.37980000000000        0.13410000000000
C            1.16830000000000        1.78840000000000        0.14950000000000
C           -0.00700000000000        2.51080000000000        0.15790000000000
C           -0.09910000000000       -1.67170000000000        0.11230000000000
C            1.11110000000000       -2.36660000000000        0.09720000000000
C            2.32510000000000       -1.63660000000000        0.10030000000000
N            2.36200000000000       -0.28530000000000        0.11820000000000
C           -1.33700000000000       -2.35460000000000        0.10090000000000
C           -1.35030000000000       -3.76080000000000        0.07600000000000
N           -0.12880000000000       -4.43720000000000        0.06300000000000
C            1.10240000000000       -3.78210000000000        0.07130000000000
C            2.31510000000000       -4.45020000000000        0.04770000000000
C            3.53370000000000       -3.76200000000000        0.04830000000000
C            3.52150000000000       -2.38070000000000        0.07610000000000
C           -2.53280000000000       -1.61250000000000        0.10710000000000
C           -3.73390000000000       -2.31630000000000        0.08970000000000
C           -3.77610000000000       -3.70700000000000        0.06410000000000
C           -2.57950000000000       -4.41230000000000        0.05810000000000
C           -0.02150000000000        4.04680000000000        0.17420000000000
C           -5.10280000000000       -4.48090000000000        0.03510000000000
C            4.84320000000000       -4.56530000000000        0.01110000000000
C           -6.31820000000000       -3.53420000000000        0.06370000000000
C           -5.17220000000000       -5.32240000000000       -1.25210000000000
C           -5.17940000000000       -5.40390000000000        1.26460000000000
C            4.88390000000000       -5.41160000000000       -1.27440000000000
C            6.08010000000000       -3.64640000000000        0.02730000000000
C            4.90870000000000       -5.48660000000000        1.24250000000000
C           -0.73860000000000        4.53160000000000        1.44660000000000
C           -0.76520000000000        4.56250000000000       -1.07130000000000
C            1.40310000000000        4.63360000000000        0.16630000000000
H            2.11810000000000        2.28810000000000        0.15350000000000
H           -2.15020000000000        2.36440000000000        0.16060000000000
H            4.44040000000000       -1.82640000000000        0.07720000000000
H            2.30770000000000       -5.52400000000000        0.02490000000000
H           -2.58950000000000       -5.48610000000000        0.03580000000000
H           -4.63930000000000       -1.74060000000000        0.09440000000000
H            1.96450000000000        4.31290000000000        1.04340000000000
H            1.94840000000000        4.32780000000000       -0.72610000000000
H            1.37220000000000        5.72290000000000        0.17590000000000
H           -1.79940000000000        4.22140000000000       -1.08570000000000
H           -0.77380000000000        5.65190000000000       -1.09730000000000
H           -0.28310000000000        4.20690000000000       -1.98150000000000
H           -1.77190000000000        4.18850000000000        1.47550000000000
H           -0.74640000000000        5.61990000000000        1.50100000000000
H           -0.23540000000000        4.15170000000000        2.33470000000000
H            4.05710000000000       -6.11970000000000       -1.30940000000000
H            5.81170000000000       -5.97960000000000       -1.33840000000000
H            4.81630000000000       -4.77490000000000       -2.15610000000000
H            4.08480000000000       -6.19880000000000        1.25090000000000
H            5.83940000000000       -6.05310000000000        1.25810000000000
H            4.85390000000000       -4.90100000000000        2.15910000000000
H            6.99790000000000       -4.23360000000000        0.00380000000000
H            6.09020000000000       -2.98630000000000       -0.83960000000000
H            6.10330000000000       -3.03560000000000        0.92940000000000
H           -5.10260000000000       -4.82250000000000        2.18220000000000
H           -4.37260000000000       -6.13560000000000        1.26370000000000
H           -6.12310000000000       -5.94830000000000        1.28680000000000
H           -5.09810000000000       -4.68490000000000       -2.13270000000000
H           -4.36100000000000       -6.04790000000000       -1.29560000000000
H           -6.11250000000000       -5.87020000000000       -1.31000000000000
H           -6.32090000000000       -2.87260000000000       -0.80210000000000
H           -6.31910000000000       -2.92450000000000        0.96680000000000
H           -7.24930000000000       -4.10030000000000        0.04760000000000
O           -2.51940000000000       -0.21810000000000        0.12480000000000
H           -0.13790000000000       -5.45380000000000        0.04510000000000
C           -1.22190000000000        1.80890000000000        6.79850000000000
C           -1.28760000000000        0.42590000000000        6.76440000000000
C           -0.06740000000000       -0.29300000000000        6.73890000000000
C            1.18600000000000        0.36730000000000        6.75320000000000
C            1.17060000000000        1.77560000000000        6.78900000000000
C           -0.00440000000000        2.49810000000000        6.81210000000000
C           -0.09790000000000       -1.68320000000000        6.70420000000000
C            1.11200000000000       -2.37850000000000        6.68700000000000
C            2.32620000000000       -1.64910000000000        6.70740000000000
N            2.36360000000000       -0.29810000000000        6.73980000000000
C           -1.33600000000000       -2.36580000000000        6.69520000000000
C           -1.34980000000000       -3.77190000000000        6.66420000000000
N           -0.12850000000000       -4.44850000000000        6.64400000000000
C            1.10290000000000       -3.79390000000000        6.65700000000000
C            2.31550000000000       -4.46260000000000        6.64950000000000
C            3.53430000000000       -3.77510000000000        6.67410000000000
C            3.52240000000000       -2.39380000000000        6.69930000000000
C           -2.53150000000000       -1.62370000000000        6.72440000000000
C           -3.73280000000000       -2.32740000000000        6.72220000000000
C           -3.77550000000000       -3.71790000000000        6.69440000000000
C           -2.57930000000000       -4.42330000000000        6.66270000000000
C           -0.01840000000000        4.03370000000000        6.85310000000000
C           -5.10270000000000       -4.49170000000000        6.69580000000000
C            4.84380000000000       -4.57910000000000        6.67070000000000
C           -6.31690000000000       -3.54530000000000        6.75860000000000
C           -5.20310000000000       -5.32480000000000        5.40570000000000
C           -5.14990000000000       -5.42210000000000        7.92170000000000
C            4.91850000000000       -5.41760000000000        5.38230000000000
C            6.08050000000000       -3.66120000000000        6.72500000000000
C            4.87590000000000       -5.50730000000000        7.89900000000000
C           -0.75100000000000        4.50230000000000        8.12350000000000
C           -0.74650000000000        4.56640000000000        5.60630000000000
C            1.40650000000000        4.61950000000000        6.87020000000000
H            2.12060000000000        2.27480000000000        6.79890000000000
H           -2.14760000000000        2.35230000000000        6.81590000000000
H            4.44150000000000       -1.84000000000000        6.71580000000000
H            2.30790000000000       -5.53630000000000        6.62620000000000
H           -2.58970000000000       -5.49700000000000        6.63790000000000
H           -4.63790000000000       -1.75170000000000        6.74470000000000
H            1.95910000000000        4.28180000000000        7.74650000000000
H            1.96040000000000        4.33030000000000        5.97750000000000
H            1.37600000000000        5.70850000000000        6.90000000000000
H           -1.77940000000000        4.22280000000000        5.57210000000000
H           -0.75660000000000        5.65600000000000        5.59470000000000
H           -0.24970000000000        4.22310000000000        4.69990000000000
H           -1.78500000000000        4.16050000000000        8.13420000000000
H           -0.75920000000000        5.58990000000000        8.19030000000000
H           -0.26090000000000        4.11290000000000        9.01540000000000
H            4.09110000000000       -6.12310000000000        5.31900000000000
H            5.84680000000000       -5.98660000000000        5.33890000000000
H            4.87580000000000       -4.77210000000000        4.50610000000000
H            4.05230000000000       -6.21960000000000        7.88040000000000
H            5.80550000000000       -6.07490000000000        7.93480000000000
H            4.79780000000000       -4.92940000000000        8.81950000000000
H            6.99810000000000       -4.24920000000000        6.72720000000000
H            6.11650000000000       -2.99950000000000        5.86010000000000
H            6.07770000000000       -3.05230000000000        7.62860000000000
H           -5.05380000000000       -4.84860000000000        8.84330000000000
H           -4.34300000000000       -6.15310000000000        7.89710000000000
H           -6.09210000000000       -5.96830000000000        7.96080000000000
H           -5.15110000000000       -4.67800000000000        4.53100000000000
H           -4.39190000000000       -6.04820000000000        5.33590000000000
H           -6.14410000000000       -5.87290000000000        5.36610000000000
H           -6.34160000000000       -2.88060000000000        5.89550000000000
H           -6.29500000000000       -2.93880000000000        7.66360000000000
H           -7.24810000000000       -4.11140000000000        6.76410000000000
O           -2.51770000000000       -0.22970000000000        6.75930000000000
H           -0.13790000000000       -5.46490000000000        6.62150000000000
136
 energy: -187.531316941916 gnorm: 0.039153940207 xtb: 6.7.1 (edcfbbe)
C           -1.23770513289413        1.81043861743930        0.15271279497144
C           -1.28682921410294        0.43315062276529        0.13786021039260
C           -0.06968294591971       -0.28237086940362        0.12994585295000
C            1.18689032775280        0.37882876491193        0.13367427299750
C            1.17165188156361        1.78881386358582        0.14884281091202
C           -0.00765770472983        2.50162368556267        0.15774607185143
C           -0.09102742781433       -1.67390409182366        0.11222325811559
C            1.11202262749301       -2.37236267503629        0.09697085968673
C            2.32645454406528       -1.63573237147438        0.09981283764631
N            2.35150564647940       -0.29171424620471        0.11753347940702
C           -1.33210649444513       -2.35676378157017        0.10071145821467
C           -1.34572131642823       -3.76013052362415        0.07534999155794
N           -0.13252941394846       -4.42668796138683        0.06370360061012
C            1.10175894975154       -3.78601686258952        0.07060318364477
C            2.30805749712909       -4.45497314421083        0.04651408340081
C            3.53138675950810       -3.75555421321261        0.04732304928078
C            3.52615179826235       -2.37673123355005        0.07519080670082
C           -2.52045684876229       -1.61525491914768        0.10752123038853
C           -3.72933608149453       -2.30147029696599        0.08957403964143
C           -3.77022319885908       -3.69598533654403        0.06326913363592
C           -2.57469526519460       -4.41192795772606        0.05728610231826
C           -0.02173013034186        4.03232946454351        0.17358222757135
C           -5.09314052030895       -4.46667807656630        0.03537865036019
C            4.83487749519445       -4.55681004083916        0.01131313548438
C           -6.31181267784398       -3.53530381342651        0.06358522326352
C           -5.16277424866604       -5.31083885288002       -1.24685773733772
C           -5.17013776525125       -5.39209857626321        1.25977117654502
C            4.87585889190905       -5.40367016381457       -1.26997684533564
C            6.07335425861178       -3.65130023224454        0.02723707038236
C            4.90073406879349       -5.47841457550015        1.23849550562080
C           -0.73763249596227        4.51881796876707        1.44223086402985
C           -0.76412712614986        4.54994596836151       -1.06769152544044
C            1.39332511690651        4.62714842784375        0.16618644055382
H            2.12610100597356        2.28326791083623        0.15269024101998
H           -2.16882673564470        2.35329579690359        0.15981436908534
H            4.44177741531106       -1.81431490807114        0.07710208014931
H            2.30085253206883       -5.53381476826684        0.02398142659908
H           -2.58658260954671       -5.49039328422314        0.03494097427658
H           -4.63359022906322       -1.71911230064527        0.09417428790641
H            1.95336276639328        4.31243312034167        1.04436116007909
H            1.93780096168648        4.32748467124774       -0.72694038625362
H            1.34089998501397        5.71494868651177        0.17603775384966
H           -1.79780175158650        4.21268031091033       -1.08221479239968
H           -0.76504782878357        5.63892309545834       -1.08181560594130
H           -0.27766216161129        4.19692506256930       -1.97517766108997
H           -1.77032546237645        4.17971704785003        1.47204216763987
H           -0.73806787044646        5.60692407536096        1.48571581715988
H           -0.23056423492018        4.14114573707930        2.32779715533304
H            4.05223934676624       -6.11333787275060       -1.30510375250291
H            5.80678670006337       -5.96622842146687       -1.32302196541544
H            4.81186475957824       -4.76482651192095       -2.14888434362377
H            4.08050631415146       -6.19257886334021        1.24709407424735
H            5.83434613762588       -6.03874833273101        1.24410220557205
H            4.84882356466722       -4.89111702971874        2.15285203942125
H            6.97861787702081       -4.25631633058228        0.00368234065371
H            6.08702608794461       -2.99543505474407       -0.84073438255681
H            6.09942494182717       -3.04445235629629        0.92992425976237
H           -5.09679049713740       -4.81162560450041        2.17691721726004
H           -4.36800959635588       -6.12634192998315        1.25839636560335
H           -6.11659008436256       -5.93011752212486        1.27060859851324
H           -5.09274775964663       -4.67358198884877       -2.12623603054673
H           -4.35559021508076       -6.03849002327199       -1.28974936124026
H           -6.10588863510309       -5.85314912320051       -1.29240918865438
H           -6.32019953325850       -2.87903257362964       -0.80414870311645
H           -6.31786438675792       -2.93033116895110        0.96802238286830
H           -7.22946229744704       -4.12107193820075        0.04717890838771
O           -2.50150501896359       -0.23585970269601        0.12669784571189
H           -0.14402234830598       -5.43739520335145        0.04420376400395
C           -1.23535559040516        1.79833511902639        6.79863771388861
C           -1.28495009482248        0.42145641404827        6.76348570668943
C           -0.06809418568343       -0.29416988558465        6.73888300920508
C            1.18868129354023        0.36643700581196        6.75364573609040
C            1.17393799085038        1.77608057957532        6.78979313952758
C           -0.00509159219224        2.48901749068503        6.81230694498573
C           -0.08986916343064       -1.68535387379816        6.70414684999507
C            1.11293366125156       -2.38416300510832        6.68707813281510
C            2.32758018547917       -1.64816563571608        6.70783139263521
N            2.35309707975791       -0.30443609498570        6.74031922163004
C           -1.33115062522932       -2.36789333839147        6.69524366343283
C           -1.34524774722178       -3.77116040744593        6.66458459596979
N           -0.13225695508685       -4.43788511699587        6.64348782813319
C            1.10225984747720       -3.79774149498667        6.65732203279247
C            2.30846443507927       -4.46730608144908        6.64972771764230
C            3.53199020157026       -3.76859358558158        6.67424942315477
C            3.52708769292603       -2.38976714253507        6.70016506382130
C           -2.51916791331395       -1.62635488940911        6.72371451741074
C           -3.72823433142193       -2.31246526733333        6.72268989705508
C           -3.76961368038805       -3.70684801210457        6.69440771200085
C           -2.57448021425450       -4.42282844608191        6.66252899191603
C           -0.01864184759703        4.01929076052459        6.85313248130893
C           -5.09298694416677       -4.47739175405806        6.69658419170786
C            4.83550565338052       -4.57054607126785        6.67135745218534
C           -6.31055134526349       -3.54626591119696        6.75850786462692
C           -5.19359244132599       -5.31319113392217        5.41118394511148
C           -5.14080848414119       -5.41015841162395        7.91707943632489
C            4.91027193700570       -5.40956519262790        5.38694821719347
C            6.07373331204476       -3.66603255960413        6.72472824955989
C            4.86813865722325       -5.49912980218838        7.89510502112044
C           -0.74991171585680        4.48986337067747        8.11947281836986
C           -0.74549531950945        4.55366759435162        5.61022073121691
C            1.39671014685230        4.61316028767410        6.87022676072401
H            2.12859868745271        2.27004359161300        6.79945892804116
H           -2.16628970708589        2.34126775239076        6.81639939476729
H            4.44288929662154       -1.82787571846379        6.71703108958429
H            2.30104785121620       -5.54611696554503        6.62667648518668
H           -2.58677662456303       -5.50125109187694        6.63865919998390
H           -4.63219859045604       -1.73013891125360        6.74642880819607
H            1.94843943640157        4.28163116703402        7.74750332589210
H            1.94930473966635        4.32992189137513        5.97674670084181
H            1.34476362538296        5.70063231695477        6.89980323340010
H           -1.77780320408171        4.21400606152811        5.57522916953741
H           -0.74814314067852        5.64263816881387        5.60970379399640
H           -0.24492974028473        4.21279194850721        4.70630142173198
H           -1.78341120401793        4.15190986009577        8.13038090168441
H           -0.75059976169048        5.57752524630787        8.17438485493364
H           -0.25550653195104        4.10315962936367        9.00875795799772
H            4.08622700883457       -6.11666368818334        5.32299219264705
H            5.84132247381139       -5.97324232266731        5.35349926872088
H            4.87048907818850       -4.76190658159881        4.51349145375682
H            4.04797525844944       -6.21325666548943        7.87660190283638
H            5.80103630682375       -6.06036948959120        7.92020657461849
H            4.79345207724732       -4.91897191804330        8.81299287101425
H            6.97878253229117       -4.27184336577526        6.72626308660019
H            6.11295775621842       -3.00861498111797        5.85875209766055
H            6.07418622660604       -3.06096987163694        7.62896511359152
H           -5.04860876538465       -4.83690838951843        8.83750936091545
H           -4.33827371871198       -6.14357962739877        7.89182432776633
H           -6.08619239721535       -5.94973197701011        7.94422636282443
H           -5.14521410370633       -4.66670361062658        4.53735426496425
H           -4.38657438552120       -6.03885058108712        5.34144160089033
H           -6.13696448800529       -5.85604910825779        5.38308450247233
H           -6.34086789938046       -2.88670917744487        5.89361301075563
H           -6.29384960200133       -2.94472423314759        7.66495997053068
H           -7.22829861291829       -4.13210440675739        6.76330558240784
O           -2.49981096709644       -0.24728202334315        6.75676474724737
H           -0.14404580758556       -5.44853370585643        6.62256540597831
136
 energy: -187.533658755907 gnorm: 0.007152961809 xtb: 6.7.1 (edcfbbe)
C           -1.24778713381396        1.80141829033317        0.15244758305443
C           -1.28493194789829        0.42942779127029        0.13872116211744
C           -0.06920463322063       -0.28388679921849        0.13025935093427
C            1.19049150731857        0.37654436480768        0.13311246802182
C            1.17256626421341        1.78797125061920        0.14785460361878
C           -0.00850213456428        2.49136748121039        0.15708543812810
C           -0.08244405142519       -1.67513515007707        0.11240334447778
C            1.11446402793085       -2.37728332363452        0.09655182370067
C            2.32891587855425       -1.63491606927289        0.09893366712153
N            2.34448611171418       -0.29782485058369        0.11649764716669
C           -1.32711229213985       -2.35716380068681        0.10084614960140
C           -1.34024257180328       -3.75932611947192        0.07466355859270
N           -0.13434635706437       -4.41974662418010        0.06415609429394
C            1.10306422309183       -3.79069363104879        0.06962962349714
C            2.30407359644177       -4.45910306262146        0.04526189348161
C            3.52921712193995       -3.75034815039848        0.04683236578338
C            3.53057560202341       -2.37523985365035        0.07440948822144
C           -2.50963792505824       -1.61390386646714        0.10821983418698
C           -3.72479474294927       -2.28785339275974        0.08989197382581
C           -3.76272305658192       -3.68351808266176        0.06322891641917
C           -2.57029429602214       -4.40788534948406        0.05660528470752
C           -0.02646514774927        4.01657733373127        0.17305200912392
C           -5.08029033932782       -4.45291186690064        0.03555146772717
C            4.82524594763919       -4.55223160993024        0.01130142937550
C           -6.30266891483236       -3.53255151809950        0.06339460427636
C           -5.15022522179246       -5.29674620149470       -1.24550016575913
C           -5.15742862634350       -5.37800217704619        1.25865223515841
C            4.86560796353913       -5.39721780469123       -1.26949413954813
C            6.06730123316503       -3.65765097379900        0.02709055655026
C            4.89011394586003       -5.47180230370993        1.23814892974387
C           -0.74086192962286        4.50196963929570        1.44127089195115
C           -0.76728857428052        4.53373414409490       -1.06742051905050
C            1.38149152215201        4.62002441862786        0.16609470832947
H            2.13007706070460        2.27757918745533        0.15127277331468
H           -2.17978897880934        2.34479371911177        0.15930167715259
H            4.44254652096340       -1.80574917737563        0.07659722887249
H            2.30033394215896       -5.53980869169666        0.02235480129561
H           -2.58586875403519       -5.48792145621248        0.03378132467903
H           -4.62705820150316       -1.70142669359242        0.09427777685969
H            1.94327218675882        4.31263840278116        1.04444256685911
H            1.92819756700608        4.32804905499998       -0.72698818638175
H            1.31042558335494        5.70643854951136        0.17624759090075
H           -1.80001115925453        4.19801399599105       -1.08390152064924
H           -0.76389110505492        5.62224215814403       -1.07404718200281
H           -0.27710487678643        4.18279894330099       -1.97279898981822
H           -1.77260408167476        4.16456868539597        1.47303428040153
H           -0.73686364389655        5.58977043662565        1.47822551900125
H           -0.23038232038779        4.12556461460658        2.32459776869040
H            4.04363014918822       -6.10685875085750       -1.30580651710698
H            5.79816496219053       -5.95648619172259       -1.31630044021769
H            4.80377236187569       -4.75616553030176       -2.14599000561815
H            4.07213368650063       -6.18667799361648        1.24770741436151
H            5.82558004964288       -6.02790991906258        1.23816875782455
H            4.83954171933248       -4.88256644824925        2.15052215851609
H            6.96221259410968       -4.27711072818564        0.00378421766334
H            6.08816824916735       -3.00397870091745       -0.84104693851694
H            6.09968383290717       -3.05253461263451        0.92942927514662
H           -5.08559607663906       -4.79815104970802        2.17550121639709
H           -4.35842976216949       -6.11368147098221        1.25691794439776
H           -6.10612660114786       -5.91103032519870        1.26181267150093
H           -5.08242679208822       -4.65958297090863       -2.12406058598967
H           -4.34545624832927       -6.02513418497289       -1.28823014693677
H           -6.09522265332655       -5.83529471647095       -1.28279551490726
H           -6.31966860365620       -2.87883019094976       -0.80477593443345
H           -6.31677197304763       -2.92952323711802        0.96777675317853
H           -7.20956819328060       -4.13424321330773        0.04700705240632
O           -2.48858163639376       -0.24835936381316        0.12892451550549
H           -0.14788181815217       -5.42820779847563        0.04210681763584
C           -1.24547146683362        1.78949388060427        6.79875031437697
C           -1.28306791736285        0.41792009459759        6.76265809578914
C           -0.06762828217080       -0.29549921830036        6.73860884249828
C            1.19227064332452        0.36432379533693        6.75422911952238
C            1.17483538431640        1.77536998002818        6.79076906650410
C           -0.00596602905071        2.47892895920503        6.81263127347732
C           -0.08132451087634       -1.68642930680546        6.70371076194138
C            1.11537038153067       -2.38890785538268        6.68706606617143
C            2.33005253572182       -1.64722574031192        6.70859203202617
N            2.34606875337485       -0.31041673428071        6.74120774438636
C           -1.32619414231616       -2.36811083912814        6.69472755284596
C           -1.33979785695221       -3.77019424284673        6.66460115054822
N           -0.13410995058961       -4.43074449087351        6.64255665075983
C            1.10354679883926       -3.80226584964765        6.65748316800977
C            2.30445907730492       -4.47130347244084        6.65027033870643
C            3.52978457197300       -3.76326998417493        6.67520321129576
C            3.53152015340947       -2.38815649682830        6.70147055211293
C           -2.50837326556357       -1.62480871490452        6.72287488933092
C           -3.72370731849177       -2.29865519414812        6.72335919197381
C           -3.76212917537386       -3.69424508680997        6.69514886307878
C           -2.57009209600143       -4.41860466754648        6.66279910525320
C           -0.02337670891193        4.00369382622747        6.85320771446645
C           -5.08013195149359       -4.46344281594128        6.69711111526329
C            4.82587010254706       -4.56585217017838        6.67179180528300
C           -6.30145121249105       -3.54327914382386        6.75860577857056
C           -5.18063956857081       -5.29881119851072        5.41271944896579
C           -5.12858093476047       -5.39570706719941        7.91632276293977
C            4.89933865592922       -5.40266302429445        5.38754655300411
C            6.06765109601963       -3.67227873505332        6.72448380391951
C            4.85815686908773       -5.49245653825608        7.89501332233297
C           -0.75308993160008        4.47375864599935        8.11876971394992
C           -0.74875297417218        4.53715446197183        5.61081354035943
C            1.38488895215497        4.60620518161163        6.87028062294388
H            2.13255865917224        2.26448699611914        6.80062032655045
H           -2.17729664770425        2.33291718710147        6.81679838582914
H            4.44366347044027       -1.81922833160928        6.71893433446325
H            2.30050204152654       -5.55202662636179        6.62743546898210
H           -2.58610822384887       -5.49863898104892        6.63940239827616
H           -4.62568529114788       -1.71229842968354        6.74804405521252
H            1.93876825915129        4.28241144523326        7.74782361512921
H            1.93930567105960        4.33024333081513        5.97693327655157