156
 energy: -222.796585303978 gnorm: 0.112293244416 xtb: 6.7.1 (edcfbbe)
C           -1.76910000000000        2.78610000000000        1.36740000000000
C           -1.78840000000000        1.40620000000000        1.54130000000000
C           -0.58360000000000        0.75770000000000        1.97050000000000
C            0.62260000000000        1.49310000000000        1.89350000000000
C            0.58560000000000        2.87050000000000        1.68050000000000
C           -0.60260000000000        3.54250000000000        1.47110000000000
C           -0.54390000000000       -0.62390000000000        2.40500000000000
C            0.68860000000000       -1.32980000000000        2.29730000000000
C            1.90930000000000       -0.63090000000000        2.11380000000000
C            1.91350000000000        0.82490000000000        2.02760000000000
C           -1.68180000000000       -1.32910000000000        2.95810000000000
C           -1.71590000000000       -2.74340000000000        2.90880000000000
C           -0.50390000000000       -3.50240000000000        2.60720000000000
C            0.72600000000000       -2.74460000000000        2.39640000000000
C            1.94570000000000       -3.40170000000000        2.32030000000000
C            3.14770000000000       -2.72030000000000        2.17400000000000
C            3.10390000000000       -1.33490000000000        2.07200000000000
C           -2.73990000000000       -0.66260000000000        3.66160000000000
C           -3.90750000000000       -1.37540000000000        3.92080000000000
C           -4.01700000000000       -2.74640000000000        3.68370000000000
C           -2.89250000000000       -3.41730000000000        3.23880000000000
O           -2.50890000000000        0.63680000000000        4.13930000000000
O           -2.91140000000000        0.62130000000000        1.24850000000000
O            2.96420000000000        1.46600000000000        2.06500000000000
O           -0.50300000000000       -4.73330000000000        2.60970000000000
C           -3.63620000000000        1.27670000000000        4.69540000000000
C           -4.06230000000000        1.33650000000000        0.85860000000000
C           -5.35230000000000       -3.46060000000000        3.95680000000000
C           -5.27450000000000       -4.96430000000000        3.62530000000000
C           -5.73410000000000       -3.31350000000000        5.44140000000000
C           -6.44930000000000       -2.82690000000000        3.07990000000000
C           -0.67040000000000        5.07020000000000        1.30870000000000
C           -1.65160000000000        5.64890000000000        2.34730000000000
C            0.70590000000000        5.72980000000000        1.52900000000000
C           -1.15660000000000        5.41470000000000       -0.11170000000000
C            4.46930000000000       -3.50510000000000        2.15850000000000
C            5.68670000000000       -2.57460000000000        1.98630000000000
C            4.45720000000000       -4.50840000000000        0.98970000000000
C            4.62320000000000       -4.26240000000000        3.49140000000000
H            5.56350000000000       -4.81680000000000        3.52170000000000
H            3.81120000000000       -4.97620000000000        3.63880000000000
H            4.61390000000000       -3.56770000000000        4.33350000000000
H            6.61630000000000       -3.14780000000000        1.97500000000000
H            5.75340000000000       -1.85740000000000        2.80670000000000
H            5.62990000000000       -2.02180000000000        1.04670000000000
H            5.39380000000000       -5.06810000000000        0.94290000000000
H            4.32620000000000       -3.99050000000000        0.03760000000000
H            3.64460000000000       -5.22910000000000        1.09280000000000
H           -7.41000000000000       -3.32400000000000        3.23090000000000
H           -6.19100000000000       -2.90580000000000        2.02230000000000
H           -6.58180000000000       -1.76910000000000        3.31290000000000
H           -6.68300000000000       -3.81130000000000        5.65290000000000
H           -5.83940000000000       -2.26540000000000        5.72640000000000
H           -4.97370000000000       -3.76260000000000        6.08090000000000
H           -6.23520000000000       -5.45260000000000        3.80290000000000
H           -4.53230000000000       -5.46750000000000        4.24740000000000
H           -5.01230000000000       -5.12270000000000        2.57770000000000
H           -3.37550000000000        2.30740000000000        4.93560000000000
H           -3.94750000000000        0.77400000000000        5.61100000000000
H           -4.45370000000000        1.28500000000000        3.97550000000000
H           -4.87630000000000        0.63060000000000        0.69430000000000
H           -3.87590000000000        1.87560000000000       -0.07030000000000
H           -4.35910000000000        2.03010000000000        1.64470000000000
H           -1.19680000000000        6.49590000000000       -0.26160000000000
H           -2.15530000000000        5.01610000000000       -0.29760000000000
H           -0.48430000000000        4.99540000000000       -0.86270000000000
H            1.09740000000000        5.49960000000000        2.52190000000000
H            0.63470000000000        6.81660000000000        1.44600000000000
H            1.42940000000000        5.39200000000000        0.78480000000000
H           -1.70390000000000        6.73740000000000        2.27480000000000
H           -1.33570000000000        5.39340000000000        3.36070000000000
H           -2.66050000000000        5.25870000000000        2.20410000000000
H            1.94640000000000       -4.47410000000000        2.40050000000000
H            4.01030000000000       -0.76930000000000        1.95610000000000
H            1.52010000000000        3.40140000000000        1.68490000000000
H           -2.68110000000000        3.29390000000000        1.11690000000000
H           -4.74410000000000       -0.86600000000000        4.36050000000000
H           -2.89820000000000       -4.48740000000000        3.13860000000000
C            1.12340000000000       -0.84310000000000        6.44760000000000
C            0.92480000000000       -1.92290000000000        7.31330000000000
C            0.90590000000000       -1.65810000000000        8.72570000000000
C            1.43300000000000       -0.42670000000000        9.18190000000000
C            1.65060000000000        0.59710000000000        8.27460000000000
C            1.42740000000000        0.42510000000000        6.91140000000000
C            0.42130000000000       -2.61790000000000        9.68230000000000
C            0.92350000000000       -2.55910000000000       11.02110000000000
C            1.59590000000000       -1.40660000000000       11.48380000000000
C            1.76420000000000       -0.24830000000000       10.59970000000000
C           -0.57730000000000       -3.60500000000000        9.37100000000000
C           -0.69510000000000       -4.76130000000000       10.17680000000000
C            0.02190000000000       -4.84490000000000       11.45410000000000
C            0.73950000000000       -3.64680000000000       11.90250000000000
C            1.24040000000000       -3.56820000000000       13.19020000000000
C            1.90290000000000       -2.44040000000000       13.65650000000000
C            2.06280000000000       -1.36870000000000       12.78650000000000
C           -1.54110000000000       -3.40520000000000        8.32680000000000
C           -2.34070000000000       -4.48820000000000        7.95180000000000
C           -2.32840000000000       -5.68870000000000        8.63950000000000
C           -1.53880000000000       -5.78680000000000        9.78130000000000
O           -1.67240000000000       -2.13330000000000        7.79640000000000
O            0.78880000000000       -3.23350000000000        6.89030000000000
O            2.19490000000000        0.81440000000000       11.02300000000000
O           -0.01620000000000       -5.85600000000000       12.14020000000000
C           -2.51100000000000       -2.02420000000000        6.67420000000000
C            0.78020000000000       -3.41150000000000        5.49600000000000
C           -3.22060000000000       -6.83860000000000        8.15150000000000
C           -3.00000000000000       -8.11950000000000        8.97820000000000
C           -4.69760000000000       -6.42400000000000        8.27220000000000
C           -2.88640000000000       -7.14690000000000        6.67930000000000
C            1.53360000000000        1.57880000000000        5.90650000000000
C            0.22320000000000        1.66140000000000        5.09710000000000
C            1.74730000000000        2.93310000000000        6.60710000000000
C            2.72510000000000        1.31660000000000        4.97100000000000
C            2.41870000000000       -2.40980000000000       15.10270000000000
C            3.13490000000000       -1.08440000000000       15.42470000000000
C            3.41520000000000       -3.56450000000000       15.31190000000000
C            1.23040000000000       -2.56870000000000       16.06830000000000
H            1.56250000000000       -2.53460000000000       17.10580000000000
H            0.71890000000000       -3.51770000000000       15.91290000000000
H            0.50470000000000       -1.76960000000000       15.91940000000000
H            3.49930000000000       -1.08090000000000       16.45200000000000
H            2.45990000000000       -0.23650000000000       15.31180000000000
H            3.99250000000000       -0.93340000000000       14.76980000000000
H            3.81400000000000       -3.55750000000000       16.32620000000000
H            4.25210000000000       -3.48010000000000       14.61920000000000
H            2.94120000000000       -4.53110000000000       15.14710000000000
H           -3.48950000000000       -7.97400000000000        6.30650000000000
H           -1.83670000000000       -7.41760000000000        6.57230000000000
H           -3.07270000000000       -6.28590000000000        6.03990000000000
H           -5.35650000000000       -7.22610000000000        7.94120000000000
H           -4.91180000000000       -5.54600000000000        7.66550000000000
H           -4.94730000000000       -6.18490000000000        9.30550000000000
H           -3.60980000000000       -8.93730000000000        8.59470000000000
H           -3.27530000000000       -7.96650000000000       10.02120000000000
H           -1.95790000000000       -8.43490000000000        8.93830000000000
H           -2.38330000000000       -1.02610000000000        6.25260000000000
H           -3.54970000000000       -2.15610000000000        6.97600000000000
H           -2.22770000000000       -2.76080000000000        5.92170000000000
H            0.60470000000000       -4.46600000000000        5.27710000000000
H            1.74290000000000       -3.11440000000000        5.07770000000000
H           -0.02760000000000       -2.82640000000000        5.05650000000000
H            2.80360000000000        2.08680000000000        4.20400000000000
H            2.62330000000000        0.36130000000000        4.45940000000000
H            3.66020000000000        1.29430000000000        5.52890000000000
H            0.93830000000000        3.14200000000000        7.30620000000000
H            1.77470000000000        3.74260000000000        5.87810000000000
H            2.68980000000000        2.95010000000000        7.15290000000000
H            0.25050000000000        2.48490000000000        4.38510000000000
H           -0.63190000000000        1.81440000000000        5.75400000000000
H            0.03640000000000        0.74880000000000        4.53470000000000
H            1.09370000000000       -4.41230000000000       13.83840000000000
H            2.55860000000000       -0.47230000000000       13.10830000000000
H            1.99330000000000        1.53930000000000        8.65960000000000
H            1.04090000000000       -1.00000000000000        5.38910000000000
H           -3.00670000000000       -4.37670000000000        7.11920000000000
H           -1.57200000000000       -6.66700000000000       10.39560000000000
156
 energy: -222.813614245818 gnorm: 0.047017728479 xtb: 6.7.1 (edcfbbe)
C           -1.76364489878281        2.78591055486976        1.36525972617174
C           -1.78051649119785        1.41745201227601        1.55949711780696
C           -0.59128293096802        0.75099051413068        1.97685534840591
C            0.61320748877051        1.48519642366339        1.88335381325138
C            0.58812080207631        2.86484363835077        1.66669337783575
C           -0.59327184580150        3.54487744142468        1.47046019616709
C           -0.55417303352103       -0.61890351812892        2.40432089606567
C            0.67051437871342       -1.32004865735921        2.29629987448266
C            1.89456856671347       -0.62989412438965        2.09911915289813
C            1.91186718484716        0.82666179142682        2.00556302169800
C           -1.68237409124958       -1.32075172709688        2.94828956485093
C           -1.71580352601659       -2.73339844278782        2.90623822665289
C           -0.50950903002467       -3.50363231780205        2.59697005491249
C            0.71823213740090       -2.73486813432005        2.40077208846486
C            1.94011011050707       -3.39442499423402        2.32299586996572
C            3.14621332833440       -2.71712923663276        2.17305601399605
C            3.09386003544906       -1.33306000708525        2.06168734906291
C           -2.75404532009119       -0.67410435995250        3.63162132235650
C           -3.90790842423167       -1.38204910343405        3.91296357256049
C           -4.01722442078869       -2.75646567879559        3.67354739442602
C           -2.88855913199351       -3.41870741566852        3.23893322143956
O           -2.54060753903506        0.62264908455518        4.08065899525822
O           -2.89967143388874        0.64140925909865        1.27932059402590
O            2.97123349628571        1.46975301577572        1.98812850137295
O           -0.51305201913237       -4.74152231881120        2.58113745907055
C           -3.63719189344924        1.26954489778375        4.67717456375398
C           -4.05200994782679        1.33317892766740        0.86898710534418
C           -5.34747923564976       -3.46254645021825        3.95194665996503
C           -5.27720938044764       -4.96037220808697        3.62534091963829
C           -5.73445654192190       -3.31513864387979        5.43208644747265
C           -6.44395169788295       -2.82847109895581        3.08018484012856
C           -0.66678355103367        5.06557200893763        1.31082129581471
C           -1.64750652693300        5.64479294761783        2.34410128166700
C            0.70011667904359        5.72939797810055        1.52733163315189
C           -1.15435812143034        5.41253909819164       -0.10576283280476
C            4.46413071365563       -3.49853555654170        2.15749556265167
C            5.68191813753532       -2.57844220140045        1.98595107723994
C            4.45388334062597       -4.50300025010938        0.99358756292418
C            4.61873775499585       -4.25726741632181        3.48575319549981
H            5.55988609767784       -4.80890546279250        3.50972537598625
H            3.80711633077781       -4.96721449431183        3.63170375875035
H            4.60997494914890       -3.56158386690443        4.32354698232006
H            6.60253409815118       -3.16404418793962        1.97732814441438
H            5.74736341249777       -1.86540989288969        2.80596087127066
H            5.62575936564153       -2.02813117826225        1.04767648342697
H            5.39196754142498       -5.05913212056653        0.95355019476256
H            4.32393640724983       -3.98302231404752        0.04479022368366
H            3.64156548022824       -5.21922564445947        1.09924080124040
H           -7.40112023279184       -3.32850443120418        3.23655660179987
H           -6.18189059197773       -2.90928795258622        2.02605590905137
H           -6.57282458291620       -1.77324575309663        3.31510412217791
H           -6.68295522657615       -3.81388643267085        5.63748218216455
H           -5.83625701710082       -2.26930734714436        5.71662311669250
H           -4.97372146375087       -3.76394689700048        6.06689103251756
H           -6.24242841295282       -5.43487450694159        3.80791928642580
H           -4.53785887992026       -5.45980382321411        4.24829494516298
H           -5.01452491175584       -5.11670773497885        2.58043110350676
H           -3.33399298512897        2.29202744436172        4.91009362005984
H           -3.93919738921765        0.77631318650670        5.60744211801138
H           -4.48376496360025        1.29819927246728        3.98450231808195
H           -4.84239668286199        0.59733774893279        0.71033581674394
H           -3.87877417346448        1.87057500598458       -0.07006153287570
H           -4.37707877392394        2.03897989057845        1.63961563319938
H           -1.19316012723575        6.49349082242774       -0.25007306519568
H           -2.15033714092706        5.01276907966911       -0.28954983659387
H           -0.48077373728240        4.99159131829563       -0.85129868654686
H            1.08792937146566        5.49668769695388        2.51738158916274
H            0.61433323749098        6.81394509010227        1.44343079130528
H            1.41994857434272        5.39212529585606        0.78366071377634
H           -1.69553082583491        6.73224916672541        2.26697053311194
H           -1.32788953571228        5.38609503213340        3.35234678635732
H           -2.65307401134803        5.25356279981370        2.20015447333099
H            1.93020612811817       -4.47135153237446        2.40039548718749
H            3.99691160000930       -0.75427096556891        1.95508903082995
H            1.53316487801277        3.38142155309475        1.67397292991674
H           -2.67819980652821        3.29709034500700        1.11137579920318
H           -4.74447678731177       -0.87348513039713        4.36423137437908
H           -2.87397516642800       -4.49146799909676        3.14455820200500
C            1.12547410183768       -0.84039430419436        6.46144398203256
C            0.91448393469535       -1.90249069930141        7.32629769697281
C            0.89844194771984       -1.65971858977841        8.73031325397622
C            1.42855553434523       -0.43297848875409        9.18516511016552
C            1.65559496321090        0.60144238980215        8.27976021655017
C            1.42698539254767        0.43847886753013        6.92643056305801
C            0.41946105312186       -2.61939967606454        9.67756581969141
C            0.91429151499849       -2.56230434454456       10.99914272563114
C            1.59815510215626       -1.41290196859403       11.46726845617981
C            1.76053435819185       -0.24251306802714       10.59908629408158
C           -0.56883953523714       -3.60295998835846        9.37109368045951
C           -0.69388802383224       -4.75516552745264       10.17932704165979
C            0.02264449062051       -4.85415157823895       11.45393992457621
C            0.72540017678914       -3.64567671048798       11.89357267734504
C            1.23263340680620       -3.56590956398366       13.18402693410861
C            1.90160623369810       -2.43898920007791       13.65222690361362
C            2.06256913453049       -1.37165309072796       12.77511208992992
C           -1.52412286209550       -3.42620289217519        8.32872858056125
C           -2.33583242573093       -4.48645446683926        7.96382601678844
C           -2.32396326020941       -5.69886457576882        8.65227218845296
C           -1.54317036713456       -5.78963414251113        9.78981137205930
O           -1.65214589449977       -2.16309293212109        7.79799718870602
O            0.77229276685621       -3.20609445447575        6.90434793270278
O            2.19865770261408        0.83077393250236       11.03168762238060
O           -0.01749929285024       -5.87607884705395       12.15217665883964
C           -2.49643451167664       -2.02731994346247        6.68446572676956
C            0.77592757230382       -3.40648133330024        5.51262777927661
C           -3.21490043087843       -6.83905674037989        8.15686321086242
C           -3.00410222688928       -8.11982812043021        8.97458612413972
C           -4.69150136498080       -6.42693768780637        8.27346846538397
C           -2.88672590890446       -7.14701477497256        6.68659706637466
C            1.53593500276533        1.58226933505918        5.92272559105228
C            0.23294621379979        1.66350265103831        5.11326447019990
C            1.74888969921001        2.93594468499923        6.60997818735988
C            2.72521384472127        1.31939074207067        4.99289467131649
C            2.41743332011382       -2.40715841977113       15.09430003953711
C            3.13312240461320       -1.08993174711482       15.42622958322735
C            3.41104859541479       -3.56004435134451       15.30984224767655
C            1.23475899411733       -2.56777981828314       16.06316439733970
H            1.57235404583228       -2.53356044217897       17.10024397513412
H            0.72495510619203       -3.51529185042121       15.90327476505238
H            0.51197312661743       -1.76778450163533       15.91084564065531
H            3.49284448136295       -1.09910841553763       16.45615021842033
H            2.45779192916794       -0.24406238309060       15.31346636699746
H            3.98945907917011       -0.94059716138247       14.77153664144193
H            3.80677355013840       -3.54888318908536       16.32668913891806
H            4.24526597132317       -3.47224199309769       14.61574382449323
H            2.93493437604640       -4.52333259022156       15.14164433698288
H           -3.49379547325323       -7.97445399366653        6.31727342903839
H           -1.83745871954392       -7.41563859385287        6.58342264379626
H           -3.07013739066101       -6.28481997554177        6.05021535559302
H           -5.34779892269520       -7.23176692929844        7.94027052623614
H           -4.90254452005946       -5.54895219680620        7.66747819077600
H           -4.93700175233119       -6.18768125807828        9.30715886549582
H           -3.61805253289139       -8.93009111104477        8.57963725392178
H           -3.28059184675685       -7.96505352394749       10.01562744564160
H           -1.96216317020201       -8.43034245840330        8.93407391401040
H           -2.34848589965596       -1.02388212205957        6.28689732615875
H           -3.54538443187540       -2.14901625384020        6.97342352026398
H           -2.24031732977938       -2.75081373000404        5.90692214899918
H            0.60244149024236       -4.46591879565591        5.32115263588054
H            1.73737378297839       -3.11863912780516        5.07593010448891
H           -0.02423382591773       -2.83300223102601        5.03936626606676
H            2.80282869879904        2.09200945575291        4.23108036090113
H            2.61920703479647        0.36572482308467        4.48216254538535
H            3.65736452199500        1.29611790664876        5.55529020800632
H            0.93872441149908        3.14295309154073        7.30699484406945
H            1.77335843939583        3.73220887421705        5.86578423790838
H            2.69227179292762        2.95316128229968        7.15192995342798
H            0.26606471826683        2.48533208929878        4.39973973856680
H           -0.61877930450352        1.81664292253518        5.77376097099271
H            0.04999177136101        0.75291998878820        4.55190953661511
H            1.08763217572851       -4.41939759596722       13.82981391918324
H            2.55460712494291       -0.46602083340487       13.09091504721156
H            2.00531401512948        1.53954516719794        8.67582800555835
H            1.05133657546569       -0.99868724663842        5.39786594148720
H           -3.00791533674915       -4.37106954972986        7.12935462395073
H           -1.56965628672907       -6.66631291686826       10.41419974478110
156
 energy: -222.820616323037 gnorm: 0.016706374965 xtb: 6.7.1 (edcfbbe)
C           -1.75794352444417        2.79205962139913        1.36672156754116
C           -1.77332012225669        1.43292969557294        1.57310120209167
C           -0.59540085284893        0.74996621970965        1.98150636136716
C            0.60766735833109        1.48119871286092        1.87243235527937
C            0.59234415927012        2.86360312694913        1.65481292020440
C           -0.58228963575120        3.55183487692291        1.46972947291652
C           -0.56497672310017       -0.61363039035607        2.39900467554414
C            0.65467841140654       -1.31122263556953        2.29173731687251
C            1.88152084751210       -0.62880268662692        2.08553595864556
C            1.91075042307755        0.82592415215344        1.96488906227338
C           -1.68779845651553       -1.31715933464086        2.93074240995076
C           -1.71748545657579       -2.72799218454093        2.89930890372482
C           -0.51568684567188       -3.50291832262414        2.58121885368219
C            0.71008354391621       -2.72589422475760        2.39912308111092
C            1.93206295111904       -3.38634766734452        2.32167741531389
C            3.14198303232587       -2.71350363985511        2.17218399650259
C            3.08321401319782       -1.33110510192457        2.05603744879614
C           -2.77123401551484       -0.68618607482949        3.60115717772201
C           -3.91309505879657       -1.39169993488419        3.90019371144345
C           -4.01836535339570       -2.77174595895030        3.66649752868015
C           -2.88516271838179       -3.42463938529014        3.23971119890629
O           -2.57410422182699        0.61274072343829        4.01266200572903
O           -2.88975059017791        0.66275394933284        1.31030244033409
O            2.97378817528686        1.46705375449272        1.90253709552400
O           -0.52502843747310       -4.74269719638753        2.53335719814457
C           -3.63522237680063        1.26713382630947        4.65319341387265
C           -4.04584924558761        1.32345772319037        0.88097723823770
C           -5.34463370758221       -3.46812328791415        3.94673260411452
C           -5.28120043676191       -4.96200601038635        3.62334460742189
C           -5.73223559909057       -3.31767323097394        5.42443504356573
C           -6.43745395116479       -2.83022307540256        3.07556172763865
C           -0.66204744061685        5.06437755398800        1.31045546240033
C           -1.64260355371283        5.63836942053364        2.34370200305001
C            0.69822937180885        5.73089102673748        1.52629791691104
C           -1.15135813887400        5.40927199878802       -0.10438297117537
C            4.45489365656763       -3.49243058827853        2.15685098239065
C            5.67319934756145       -2.57921213583837        1.98618594572159
C            4.44444760153540       -4.49649648774864        0.99480776521055
C            4.60913371969939       -4.25069110065163        3.48310628164442
H            5.55066400289683       -4.80061467034239        3.49986914486121
H            3.79755344357062       -4.95807552439916        3.62752867725897
H            4.60336547528480       -3.55425939002549        4.31850474284476
H            6.58533953349017       -3.17685808085767        1.97970063766250
H            5.74148128730192       -1.86861429072713        2.80562815310025
H            5.62118942886289       -2.03104023622890        1.04822290880252
H            5.38369598010553       -5.04976826346322        0.96248531512959
H            4.31822136028421       -3.97555507609280        0.04743451983418
H            3.63214216108606       -5.20956463950657        1.10221729023974
H           -7.39244625732879       -3.33102189050438        3.23621525946916
H           -6.17385624839437       -2.91240718699867        2.02337656120597
H           -6.56251676722002       -1.77676433862176        3.31299606027846
H           -6.68155664254170       -3.81598902275423        5.62152630680892
H           -5.83273802674830       -2.27293279779147        5.70747186464689
H           -4.97320300995211       -3.76829709291030        6.05769867914186
H           -6.25062811766404       -5.42447487588298        3.80873164733432
H           -4.54519234061179       -5.46016872693276        4.24799682386291
H           -5.01759599374044       -5.11859446171636        2.58051302471723
H           -3.28703789825179        2.27933696430672        4.87399184005451
H           -3.91716091885704        0.78163603732747        5.59808974229645
H           -4.51938660605080        1.31921423840138        4.00041566295195
H           -4.80791720270541        0.55462677569217        0.73154445720947
H           -3.88562969217993        1.85381495491653       -0.06884569752675
H           -4.40310517360887        2.04279127013785        1.63101492667616
H           -1.18944023331021        6.49005214947122       -0.24254366902319
H           -2.14582923893998        5.00866977214295       -0.28533533015188
H           -0.47618781148826        4.98804228004475       -0.84621097038510
H            1.08484417029917        5.49682781441660        2.51439098336423
H            0.60014491799551        6.81346240125211        1.44249106004506
H            1.41581114704414        5.39606856461725        0.78211320351331