116
 energy: -22.928061455056 gnorm: 0.329736929581 xtb: 6.6.1 (8d0f1dd)
C           -3.31122850772930        0.79849766164622       -0.92477639677520
C           -2.44380812530352       -0.12270372891954       -0.27661132624697
C           -1.41337090092821        0.39579727573559        0.56335275196199
C           -0.89266158675590        1.65801491088749        0.27377586709581
C           -1.72665675402493        2.51431363229076       -0.49448366572522
C           -2.95444148494349        2.13954154133227       -1.01494489940871
C           -0.74098268209890       -0.43411532818871        1.49825021926784
C            0.56872586496315        0.03782116815119        1.86248088067890
C            1.03782416582094        1.29402317993033        1.50887470833621
N            0.31238977034758        2.07067427098208        0.65193736800696
C           -1.29695700510141       -1.39996043042223        2.41574187746061
C           -0.38243517664656       -2.18060797534842        3.13232615520648
N            0.91308504082021       -1.90366887689689        3.30325166013478
C            1.37712470144904       -0.74872102533751        2.81811050966982
C            2.52149331701875       -0.17739833758153        3.39379298866852
C            2.95849061756259        1.02681208890480        2.95105897606587
C            2.24288949469137        1.78498308775960        2.03503020483770
C           -2.74860936222260       -1.74497937691422        2.38401158947411
C           -3.09416315450955       -2.91614440870436        3.00571134491758
C           -2.16786021984049       -3.77788778654213        3.63251872101904
C           -0.85708937311598       -3.40495313382985        3.68547234358092
O           -3.71994433332149       -0.94984598373544        1.67726658385724
O           -2.55702603277562       -1.47241711578389       -0.57241635275616
C           -3.84297843593025        3.13357444054366       -1.60938954875544
C           -2.68769581069131       -5.03867041417370        4.30484659386931
H           -1.39666850744143        3.51251503834900       -0.76806311868865
H           -4.27662633836220        0.55105838579656       -1.33106614114542
H            2.66329581305412        2.73912661909249        1.72562431984580
H            3.05775395548473       -0.69369546277216        4.16536137542516
H           -0.24710966264510       -4.12034095424229        4.22946223699121
H           -4.11477991332403       -3.04712728052358        3.03244694615357
O           -4.21824883374556        4.03433712717988       -0.87713382485991
O           -4.44510595673734        2.90643496899600       -2.81853501752979
C           -5.44216520282800        3.83300025693726       -3.02488532025093
C            4.23586651889298        1.50004220933226        3.59165660008449
O            5.05927614697201        0.66079890002952        3.91714215179376
O            4.47001334453535        2.86385149488593        3.72605651435371
C            5.79457498613219        3.08584475587818        4.15829123132174
O           -3.82227255313510       -5.27347675879771        4.16636005494405
O           -1.85023202017753       -5.79767454267276        5.06656077253571
C           -2.55119635829503       -6.86252441382958        5.62930343183426
C           -5.07197156564436       -1.42399175670916        1.58830531863830
C           -1.33089900128490       -2.23622472573986       -0.99264499351172
H           -2.54510546830388       -7.76426885143998        4.99136022291012
H           -3.57194749219491       -6.44405511486021        5.74196173723541
H           -2.09133598235598       -7.02043774843818        6.64022264233588
H            5.72707967266424        3.46798026205549        5.10135971236643
H            6.34060091246885        3.78468702308830        3.50069950143490
H            6.17933064298187        2.03010500085905        4.19342358084693
H           -0.91862729772622       -2.57650129080332       -0.01361370304871
H           -0.49769766914251       -1.60651221708571       -1.34094446550576
H           -1.52632419730509       -2.94569707152159       -1.75361447637286
H           -5.11788846557077       -2.41810833635233        1.17520213188926
H           -5.67929807973498       -0.69619639428435        1.04301666067831
H           -5.57598832326623       -1.42383358739762        2.57928294206544
H           -6.13050215934830        3.76035386975488       -2.23272855695873
H           -5.86615610071888        3.45938329385866       -4.02668959924245
H           -5.13479557532099        4.87790991548477       -2.98314551356402
C           -1.38192942069774        3.73616555005018        2.91232598411686
C           -1.84821468128685        2.59982427735607        3.49755545445181
C           -1.05946531454833        2.05730632010638        4.60922730982276
C            0.19893954712228        2.69376791964407        4.86302140881997
C            0.50425395911860        3.94630308659851        4.28768785650746
C           -0.26031777722226        4.46998310053134        3.25072669343212
C           -1.20488993561782        0.74454293276906        5.14851520323437
C           -0.06287609782692        0.02744069315890        5.60930570802864
C            1.19208754369866        0.71421540266195        5.78882868583885
N            1.19428660993148        2.06344359410476        5.62744624321596
C           -2.41361422770794        0.07928500213936        5.25249410304426
C           -2.45851584031083       -1.32662100968547        5.60237876023992
N           -1.29466212405906       -1.98318595734370        5.89916817085159
C           -0.14475655767527       -1.32117560077092        5.98824682881008
C            0.97209270935794       -1.98958449505532        6.53157704134458
C            2.21982707914082       -1.36973967291181        6.68703967237737
C            2.30561929262884       -0.09745313075593        6.26436900324455
C           -3.73018485967715        0.71367583494582        5.25810242262992
C           -4.89964478833448       -0.06184623426677        5.21204641615509
C           -4.82617965800088       -1.39228978090841        5.46901303780036
C           -3.67144193418464       -1.98914944386360        5.67265433266067
O           -3.75568638935321        2.07705011038914        5.52067969627343
O           -2.94192434743730        1.91263938797883        3.01658762327703
C            0.21273512614467        5.50086066357994        2.34765104514621
C           -6.06660304520411       -2.17604633098929        5.80641622556876
H            1.41756699010566        4.38133362238595        4.66974005703471
H           -1.82880610647429        4.11982501512100        2.06992133318584
H            3.26888037378556        0.32655662585251        6.31721410015598
H            0.87146188387207       -3.08471526305024        6.57830423410869
H           -3.67716811065157       -3.05999292755990        5.83019634570050
H           -5.77379677507622        0.43595144608221        4.71017130754348
O            1.34459852619901        5.82615848916894        2.44941456579099
O           -0.74718748219123        6.07961784856304        1.59848183464284
C           -0.21473095568964        7.24015934882472        1.05753806029483
C            3.53228080814219       -2.00967610361154        7.02506769044485
O            3.64093082622715       -3.14437803815732        7.50071391725347
O            4.56565258381079       -1.22937033368332        6.69086985080897
C            5.72579357310716       -1.80692399125161        7.22246151275881
O           -7.04801223588612       -1.95726935745904        5.14194115322235
O           -6.01514389321278       -2.93743591896022        6.94765316328794
C           -7.21292732384718       -3.62681918543340        7.15115816329978
C           -4.95459780685163        2.65960679932188        5.86868674392943
C           -3.68284113682406        2.59129188358641        2.05479246020704
H           -7.43119628931628       -4.22607794725959        6.20622607140901
H           -8.06548455146707       -2.91765848248592        7.29781126410398
H           -7.07314693247270       -4.33087306029711        7.91223421050944
H            6.57332189837178       -1.29353136199234        6.78341268688262
H            5.74663761932316       -2.84282155125561        6.88089468184451
H            5.69426191474290       -1.72781984964892        8.29460302186842
H           -4.10481209541493        3.44288266176275        2.60483747673152
H           -4.49244774344916        1.87419893016926        1.82433103764650
H           -3.18901540870812        2.85154642679373        1.06781919454921
H           -5.55414326821421        2.76698137191684        4.93950725322359
H           -4.78658370641210        3.62090640967288        6.25983200635257
H           -5.43485580473958        1.97242995129449        6.65265772412460
H            0.89164886030839        7.38838561720231        1.13776105146914
H           -0.62894889903848        8.04195665205089        1.64837664327952
H           -0.59282546386754        7.45699159724320        0.03719083132488
116
 energy: -22.536268917247 gnorm: 0.585193917341 xtb: 6.6.1 (8d0f1dd)
C           -2.92015095983388        0.63293175113128       -1.81327519627159
C           -2.41242042492183       -0.38819249734754       -0.95580188049000
C           -1.56291775480973       -0.11582083158263        0.14546260310117
C           -1.11447260683537        1.25866288246705        0.33412446007130
C           -1.62960457639605        2.18347506289224       -0.64117774789638
C           -2.59196661614916        2.00717229515396       -1.62376655948188
C           -1.06557408358342       -1.05881174932402        1.16802659537878
C            0.16735893809921       -0.69405808481997        1.80698094334580
C            0.74003013640495        0.63486029454922        1.61125021342616
N            0.00301826807633        1.64513659444269        1.04097443476413
C           -1.65108002086910       -2.34886025979859        1.70293214777577
C           -0.76101183963812       -3.23601956111666        2.36579431392138
N            0.43055669572700       -2.85428526507322        2.90915405070793
C            0.93079883966523       -1.66131736569229        2.41103250109117
C            2.12761407139818       -1.29554094099474        3.05734079818408
C            2.73693362377065        0.00523763919059        2.88050637242836
C            2.00039271390047        0.86414714162857        2.06083698918005
C           -3.07221640132084       -2.59360625654139        1.92260400950446
C           -3.54543377051947       -3.92140569308109        2.23657624501480
C           -2.57834497807254       -4.83183416592835        2.71793196616786
C           -1.29610759357035       -4.40909053920104        2.93818163704090
O           -3.97938269582893       -1.52627684484902        1.97600271798787
O           -2.95108680671763       -1.68568710068197       -1.26995432877158
C           -3.03909733383368        3.21577831607620       -2.32091060601504
C           -3.26512535370382       -6.11749367530185        2.73532442246910
H           -1.27026051729372        3.26074834711676       -0.58574515409308
H           -3.32890845580439        0.10789381547609       -2.77144581541371
H            2.48826762366757        1.83908428972760        1.84406793130695
H            2.69415595960579       -2.06017933905733        3.58782760685456
H           -0.58491768570602       -5.22090006722698        3.01461901306848
H           -4.36149652194553       -4.27641257811930        1.59338129637918
O           -2.51490756471479        4.28361722032293       -1.94812108883950
O           -3.94784690072994        3.03950340404550       -3.20083491630932
C           -4.08846721489776        4.15986186167247       -4.06921288052279
C            4.24262156069839        0.03818850926606        3.39427304955066
O            4.48011295783163       -0.49131035485432        4.52368756595253
O            5.17453035296747        0.13699221840226        2.39264218353299
C            6.41306017016834       -0.48805109268454        2.57931299507326
O           -4.49899282884697       -6.11302563995247        2.79881248138621
O           -2.30007191892562       -7.04956851307063        2.52414556038575
C           -2.83450922298898       -8.36997141403383        2.85493305147552
C           -5.26901691311791       -1.65461633220561        1.44096518313216
C           -4.32190595825467       -1.58868360308568       -1.87064910269774
H           -2.72294664613422       -8.99753999856222        1.91463966010522
H           -3.97574626451473       -8.21465879649639        2.70001728616075
H           -2.37886527433970       -8.75447070734130        3.83511854374137
H            6.45501542491388       -1.30817596712878        1.89469820695540
H            6.68009393153028       -0.34213016700435        3.69147300614029
H            7.17212337005934        0.17588402466746        2.33209158020459
H           -4.35486830684349       -1.47533298215402       -2.92139136084768
H           -4.63108813840105       -0.76669910881900       -1.40774109617743
H           -4.90874010065272       -2.44068180978422       -1.67909170199163
H           -4.97193132520546       -2.31045651750148        0.60930977874484
H           -5.80283109396007       -0.59161088399319        1.18153050132728
H           -5.89622807447231       -2.29098734474007        1.91275624190896
H           -3.25398414153675        4.35853407679287       -4.75792859223000
H           -3.89923193561749        4.91295364220705       -3.32709963067790
H           -5.03968991322660        4.17485572933619       -4.56370135135694
C           -1.91511221346992        4.53321139731926        3.75616310284783
C           -2.11111382697273        3.38226731106901        4.43508237240856
C           -1.00504767210750        3.01902005246549        5.43185480045541
C            0.32314566441046        3.69542641587883        5.22974443296376
C            0.36588923071320        4.84748342856165        4.45119556988892
C           -0.71481111221668        5.21813203036703        3.61965421788341
C           -1.05456653196792        1.90172293823417        6.20038712166091
C            0.28078988291508        1.28331594644797        6.48942865800515
C            1.41233803595519        1.98344968732061        6.31731040426098
N            1.43329660819280        3.13422907173471        5.70227956643256
C           -2.19051284921590        1.01503760944345        6.44126086395270
C           -1.89269186202198       -0.32530787798414        6.79292020710144
N           -0.61491796163597       -0.84338844662174        7.08421277598158
C            0.41095609881272        0.01554809460056        7.14075238828224
C            1.53417252432588       -0.47486920574966        7.77902584519381
C            2.56079736723647        0.40019369975580        7.67790058482642
C            2.62794021652261        1.56130638944540        6.92100411685379
C           -3.59881867678873        1.43573827795428        6.62923533797121
C           -4.50078983386793        0.37239438858000        6.57517158459261
C           -4.26151317685605       -0.82802698768940        6.19200044532587
C           -3.04494337166967       -1.16783139943438        6.69208826396658
O           -3.98981402612011        2.69088884975094        7.05720325342828
O           -2.94087153866687        2.27378343708149        4.20062673719450
C           -0.62461831539677        6.42092700212133        2.67453779833487
C           -5.10520695992725       -1.87295284016370        5.69423594483578
H            1.33155154327954        5.32296058406374        4.27630282795164
H           -2.70903083282643        4.75521332405011        3.11723242980664
H            3.50826550259354        2.09769423632794        6.99153050748656
H            1.66206329695056       -1.38733601613728        8.33233324847668
H           -2.91061184375515       -2.34631110219256        6.53735047893135
H           -5.62577806234981        0.63459949868942        6.56040682908163
O            0.54534750084636        6.98717603955249        2.58376495592676
O           -1.62206799257042        6.46370196349437        1.69673273039067
C           -1.59443986182929        7.74477389221535        1.18700678466140
C            3.65955518432457       -0.13461055388710        8.39239280556838
O            3.64617172705827       -0.81290317926093        9.38145626656392
O            4.93181290345718        0.29833987667506        7.74886514544842
C            5.84311413254031       -0.30124509772834        8.58788754634049
O           -6.13595838847978       -1.61281764003189        4.93920107609704
O           -4.81156471462185       -3.11356075326691        6.25808062472157
C           -5.46282738999300       -4.20112444607468        5.47952231636099
C           -5.06604610094475        2.52733484304281        8.07703272375810
C           -3.61564319695142        2.02285699249539        3.00114076384648
H           -6.24316230181723       -4.70756407308144        5.92844006394906
H           -4.69250194467727       -5.06588043529559        5.47541291770725
H           -5.73811194797787       -4.08735083279663        4.40150165531619
H            6.20678447735095       -1.47545687220155        8.67196322184611
H            5.82734716237191        0.38834210855206        9.45996392453208
H            6.80018159735251       -0.16997263320422        7.96573524795846
H           -4.09790981897622        1.23781969368307        3.42559763528594
H           -3.38848170451101        1.73089453799097        2.00928906502821
H           -4.23060637375815        2.93011077883241        2.99984473055504
H           -6.21680126660599        2.72305234121590        7.80403973941916
H           -4.59803226426325        3.04318140754549        8.88723966287829
H           -5.24917176506813        1.51011234972616        8.40909417873256
H           -0.56168325800872        8.12956603524483        1.30941036777337
H           -2.34543140294550        8.21034743757135        1.84453877550726
H           -1.95734689562237        7.60482176925398        0.25376119130215
116
 energy: -22.567293825406 gnorm: 0.609092784829 xtb: 6.6.1 (8d0f1dd)
C           -2.80113184829097        0.73940893365937       -1.71545557750489
C           -2.68473227316811       -0.27713575625528       -0.75744046546415
C           -1.78477413066779       -0.04504519011092        0.44197957991710
C           -1.10471863288965        1.30552875600787        0.67786487884007
C           -1.68859397447626        2.26010348427246       -0.26468573770651
C           -2.68195806560604        2.03440836119025       -1.24801843018943
C           -1.47805128829464       -1.11470265121213        1.38429195995101
C           -0.28521321277950       -0.98760959475277        2.19436469063248
C            0.52273075054929        0.27080793139978        1.95652589447177
N           -0.00101046300447        1.37635208709188        1.42837149361968
C           -2.33581876093305       -2.29770451689940        1.74715076057358
C           -1.60637315593934       -3.41745132277291        2.27788205933516
N           -0.40926448107976       -3.39944985487684        2.96877330176968
C            0.27210664655962       -2.07433349051252        2.88367350052250
C            1.53974835422813       -1.90991698902448        3.43210321665176
C            2.26343564981387       -0.77809937864593        3.34071748947096
C            1.83504158468352        0.29788735118497        2.63962726466884
C           -3.74138069563439       -2.30749161135008        1.53351227305608
C           -4.42766437095502       -3.46172400995293        1.49187428447027
C           -3.79110147221983       -4.65251386580594        1.85230117699845
C           -2.41196939130906       -4.67016196940892        2.26438539358100
O           -4.49410395762111       -1.12561509161453        1.19962373890492
O           -3.00695854525072       -1.60622337935629       -1.08557018171053
C           -2.75018189815137        3.24692399137286       -2.17473831287949
C           -4.55647886457347       -5.91095575533503        1.67493528079539
H           -1.54567324915974        3.40082576986700       -0.14896893948406
H           -2.74835897358643        0.52591053946118       -2.83092065915766
H            2.50063180640980        1.19883108403436        2.81337864533158
H            2.15390025395851       -2.68370703515862        3.93315592655568
H           -2.16917589262350       -5.36321699182224        3.03984681423795
H           -5.53467115940232       -3.66918200137446        1.12153896243302
O           -2.12234099767077        4.27764604002397       -1.86192937130941
O           -3.36207178264030        3.00760854123358       -3.44603709182585
C           -3.32414933658300        4.21409748585292       -4.28354047904497
C            3.47509686104975       -0.64169319602549        4.21698577615098
O            4.36271412280546        0.26793462097732        4.16514260593366
O            3.85956729209551       -1.83312889680789        4.71054168949216
C            5.31368982665388       -1.99171668836911        4.86731311820181
O           -5.75062604626774       -5.75091521272757        1.32436346128347
O           -4.05911457234330       -7.08989345725345        2.31970988620463
C           -4.83921391982563       -8.06332731579062        1.63717699112694
C           -5.85220015411778       -1.08699978439102        1.72762511429976
C           -4.35364923476997       -1.73661439038926       -1.57733524953554
H           -3.94661220994069       -8.81543823196732        1.48598751540145
H           -5.22405038034400       -7.43531516882180        0.80953198937337
H           -5.58062473001088       -8.44582399198251        2.20135852032968
H            5.65516176541187       -1.12458060651236        5.54665739032182
H            5.93967473227993       -1.66797906320965        3.94796720325370
H            5.56204819847431       -2.94671827036308        5.31029569692105
H           -4.21752992141682       -1.32225210752096       -2.49239081481324
H           -5.06671086307067       -1.02875472918641       -1.04057684857323
H           -4.58852519514398       -2.76990942884543       -1.39865590548547
H           -6.09708822861863       -1.10252719519877        2.81208189626623
H           -6.26344982507448       -2.06092184043854        1.26944852459186
H           -6.40729601610502       -0.26852109963948        1.19187143608563
H           -4.10023152930178        4.88499556916959       -3.97100927630391
H           -3.52682013356308        3.71084861389694       -5.24687743280484
H           -2.24256021748802        4.76290427203110       -4.20869262185772
C           -1.84580528108505        4.26805110254867        3.11286278005464
C           -1.54520164281347        3.04418368572690        3.80765194614929
C           -0.64438472937925        2.89706277052492        4.88463176826610
C            0.33445330170216        3.98307690352627        5.11199094556393
C            0.04972182797210        5.11113492719934        4.39444914296223
C           -1.06128729377243        5.35287971569167        3.58066392163267
C           -0.49208696263186        1.71444341095580        5.57907043516528
C            0.77755660083918        1.37522414920438        6.16346643270815
C            1.62053325125404        2.58396598006065        6.32718107918581
N            1.45767370660355        3.80482693037310        5.85946838611973
C           -1.35292970574005        0.58939871139600        5.73384385428824
C           -0.80847812201334       -0.64859891184937        6.29873016370354
N            0.33427144628079       -0.83652070324892        6.71515139254639
C            1.17584626709805        0.15028492746938        6.75919971832373
C            2.29933052110650        0.14161065796033        7.61225422096297
C            3.15957658291420        1.32302831340140        7.74489585149076
C            2.76818475784994        2.38848811566531        7.11638648886487
C           -2.80781931962216        0.47126298131222        5.67277379156142
C           -3.56483294308045       -0.65878001445473        5.80006706125094
C           -2.94350204380825       -1.85929874631896        6.25739744771551
C           -1.56637403818106       -1.92981434453780        6.32540494192841
O           -3.70446277171847        1.58468395949363        5.68905656335940
O           -2.38732698958452        2.00616433089949        3.47926128269163
C           -1.24820886395088        6.62714534835534        2.88980317009323
C           -3.75626119474306       -3.11285089518858        6.01877089674819
H            0.77856609633927        5.92231928150426        4.45207690258351
H           -2.75507062853275        4.28331382202122        2.42454836696918
H            3.60396519750313        2.94488376869423        6.88500566271926
H            2.79607383710831       -0.86751020664146        7.66968684439755
H           -1.05407473349986       -2.95553964177867        6.32375943631424
H           -4.73949527269876       -0.60159248016928        5.49248340243500
O           -0.60173796299152        7.53016002421000        3.30547604011039
O           -2.04001728518432        6.89090042215390        1.87414373024872
C           -2.09606719785415        8.34755606787551        1.50269483324233
C            4.52570502705705        1.41195501694724        8.47357791049847
O            5.51899746589659        0.79595115564263        8.02047626869704
O            4.48304939895029        1.96005187370539        9.76810529155069
C            5.90505278045178        2.17615505111708       10.11713907466241
O           -5.02576994281042       -3.05435988108825        6.36327270564835
O           -3.13716099238882       -4.22578982362404        5.65222860381131
C           -3.99594776246378       -5.22625923514222        5.43682209847166
C           -3.33571321633128        2.60056319726988        6.69609461402747
C           -3.82980454310156        2.32576748019870        3.23244800675537
H           -3.52395440407175       -6.23531132968716        5.41618847764388
H           -4.06870682720428       -5.17670701860330        4.32355253949514
H           -4.82635200662733       -5.25695130548984        5.97635984913461
H            5.97132498206728        3.03141322555909       10.81844452032272
H            6.64519110035485        2.35629575576215        9.36022174576440
H            6.14406011957408        1.28373305131946       10.90635276035756
H           -4.34396421588810        1.35681054649088        2.95494418473287
H           -4.01155094481833        2.74950706192675        2.29968139906060
H           -4.38062521707733        2.58718050850815        4.11074752513215
H           -3.26722867318614        3.69179668114546        6.21452010420953
H           -2.72416681328784        2.20798263817635        7.53868631203484
H           -4.36572809677081        2.47172251015210        7.36028454745167
H           -1.11494348135444        8.72146990239371        1.56161069498962
H           -2.65049314579910        8.83904626940896        2.17302325404583
H           -2.56399843932949        8.47149332141571        0.46362011402288
116
 energy: -22.565864265837 gnorm: 0.564542220727 xtb: 6.6.1 (8d0f1dd)
C           -2.35295394671186        1.09260975981699       -1.51642614295048
C           -2.20207595136994       -0.16411636281650       -0.91553009249350
C           -1.40752829827969       -0.12532153676888        0.24159319671351
C           -0.69748751090428        1.02934468088556        0.63812305644897
C           -0.86103531758854        2.22465158389937        0.06335686036821
C           -1.76646006575296        2.27642522994679       -1.03760597725245
C           -1.28358947699501       -1.29626020479124        0.93806690166607
C           -0.19799644478030       -1.49744388858674        1.81983874460050
C            0.56342022613036       -0.32412913651988        2.18664387855313
N           -0.00129818794695        0.92974643679956        1.79068413800436
C           -2.34142231328862       -2.32744889408256        1.04538909589189
C           -1.91391697457494       -3.63876575443101        1.31956869479901
N           -0.69312943515516       -3.93328793401212        1.87562770541887
C            0.10700884621528       -2.74765514051925        2.31725676351152
C            1.27100098290273       -2.88916965078817        3.11733405890855
C            2.14103743585841       -1.81643851924118        3.37037048358952
C            1.67298623151908       -0.58561908918633        3.05953879328302
C           -3.75242094334816       -1.98958236324963        0.99401894124424
C           -4.60518520397138       -2.99836472824096        1.40587190320885
C           -4.25612571518124       -4.28544574192335        1.52283957806968
C           -2.89556091685469       -4.68790914710007        1.43123573333747
O           -4.08017473163214       -0.68433906533729        0.61679699082314
O           -2.88256513482068       -1.36246707549304       -1.17792111440763
C           -1.72949121284661        3.61683400859348       -1.84939142770238
C           -5.23232704240459       -5.25383750631246        1.88632761525262
H           -0.67080678731491        3.11823516885867        0.58636425567135
H           -3.03560081062326        1.20528929434165       -2.27223965451326
H            2.44241202370388        0.20996227661202        3.23531139994894
H            1.55506912720379       -3.86310154354097        3.47059663493950
H           -2.78967832172345       -5.77001858705992        1.69445252145139
H           -5.75366495096374       -2.69949990252397        1.53834769481812
O           -1.01539869831614        4.55793602408670       -1.55541927990687