      -----------------------------------------------------------      
     |                   =====================                   |     
     |                           x T B                           |     
     |                   =====================                   |     
     |                         S. Grimme                         |     
     |          Mulliken Center for Theoretical Chemistry        |     
     |                    University of Bonn                     |     
      -----------------------------------------------------------      

   * xtb version 6.6.1 (8d0f1dd) compiled by 'runner@Mac-1690902418499.local' on 2023-08-01

   xtb is free software: you can redistribute it and/or modify it under
   the terms of the GNU Lesser General Public License as published by
   the Free Software Foundation, either version 3 of the License, or
   (at your option) any later version.
   
   xtb is distributed in the hope that it will be useful,
   but WITHOUT ANY WARRANTY; without even the implied warranty of
   MERCHANTABILITY or FITNESS FOR A PARTICULAR PURPOSE.  See the
   GNU Lesser General Public License for more details.
   
   Cite this work as:
   * C. Bannwarth, E. Caldeweyher, S. Ehlert, A. Hansen, P. Pracht,
     J. Seibert, S. Spicher, S. Grimme, WIREs Comput. Mol. Sci., 2020, 11,
     e01493. DOI: 10.1002/wcms.1493
   
   for GFN2-xTB:
   * C. Bannwarth, S. Ehlert and S. Grimme., J. Chem. Theory Comput., 2019,
     15, 1652-1671. DOI: 10.1021/acs.jctc.8b01176
   for GFN1-xTB:
   * S. Grimme, C. Bannwarth, P. Shushkov, J. Chem. Theory Comput., 2017,
     13, 1989-2009. DOI: 10.1021/acs.jctc.7b00118
   for GFN0-xTB:
   * P. Pracht, E. Caldeweyher, S. Ehlert, S. Grimme, ChemRxiv, 2019, preprint.
     DOI: 10.26434/chemrxiv.8326202.v1
   for GFN-FF:
   * S. Spicher and S. Grimme, Angew. Chem. Int. Ed., 2020, 59, 15665-15673.
     DOI: 10.1002/anie.202004239
   
   for ALPB and GBSA implicit solvation:
   * S. Ehlert, M. Stahn, S. Spicher, S. Grimme, J. Chem. Theory Comput.,
     2021, 17, 4250-4261. DOI: 10.1021/acs.jctc.1c00471
   
   for DFT-D4:
   * E. Caldeweyher, C. Bannwarth and S. Grimme, J. Chem. Phys., 2017,
     147, 034112. DOI: 10.1063/1.4993215
   * E. Caldeweyher, S. Ehlert, A. Hansen, H. Neugebauer, S. Spicher,
     C. Bannwarth and S. Grimme, J. Chem. Phys., 2019, 150, 154122.
     DOI: 10.1063/1.5090222
   * E. Caldeweyher, J.-M. Mewes, S. Ehlert and S. Grimme, Phys. Chem. Chem. Phys.
     2020, 22, 8499-8512. DOI: 10.1039/D0CP00502A
   
   for sTDA-xTB:
   * S. Grimme and C. Bannwarth, J. Chem. Phys., 2016, 145, 054103.
     DOI: 10.1063/1.4959605
   
   in the mass-spec context:
   * V. Asgeirsson, C. Bauer and S. Grimme, Chem. Sci., 2017, 8, 4879.
     DOI: 10.1039/c7sc00601b
   * J. Koopman and S. Grimme, ACS Omega 2019, 4, 12, 15120-15133.
     DOI: 10.1021/acsomega.9b02011
   
   for metadynamics refer to:
   * S. Grimme, J. Chem. Theory Comput., 2019, 155, 2847-2862
     DOI: 10.1021/acs.jctc.9b00143
   
   for SPH calculations refer to:
   * S. Spicher and S. Grimme, J. Chem. Theory Comput., 2021, 17, 1701-1714
     DOI: 10.1021/acs.jctc.0c01306
   
   with help from (in alphabetical order)
   P. Atkinson, C. Bannwarth, F. Bohle, G. Brandenburg, E. Caldeweyher
   M. Checinski, S. Dohm, S. Ehlert, S. Ehrlich, I. Gerasimov, C. Hölzer
   A. Katbashev, J. Koopman, C. Lavigne, S. Lehtola, F. März, M. Müller,
   F. Musil, H. Neugebauer, J. Pisarek, C. Plett, P. Pracht, F. Pultar,
   J. Seibert, P. Shushkov, S. Spicher, M. Stahn, M. Steiner, T. Strunk,
   J. Stückrath, T. Rose, and J. Unsleber
   
 * started run on 2024/11/01 at 12:55:55.582     

           -------------------------------------------------
          |                Calculation Setup                |
           -------------------------------------------------

          program call               : xtb stacked_dimer_Base2SO2Me.mol --opt --gfn2 --chrg -1 --uhf 0 --tight
          coordinate file            : stacked_dimer_Base2SO2Me.mol
          omp threads                :                     8

   ID    Z sym.   atoms
    1    6 C      1-9, 11, 12, 14-21, 26-34, 36, 37, 39-46, 54, 56, 60, 63,
                  66, 69, 71, 72, 74, 75, 112-120, 122, 123, 125-132,
                  137-145, 147, 148, 150-157, 165, 167, 171, 174, 177, 180,
                  182, 183, 185, 186
    2    7 N      10, 13, 35, 38, 70, 73, 121, 124, 146, 149, 181, 184
    3    8 O      22, 47, 52, 53, 55, 57-59, 61, 62, 64, 65, 67, 68, 133,
                  158, 163, 164, 166, 168-170, 172, 173, 175, 176, 178, 179
    4   16 S      23-25, 48-50, 134-136, 159-161
    5    5 B      51, 162
    6    1 H      76-111, 187-222

molecular fragmentation (1/2 indicates fragments):
111111111111111111111111111111111111111111111111111111111111111111111111
111111111111111111111111111111111111111222222222222222222222222222222222
222222222222222222222222222222222222222222222222222222222222222222222222
222222
# atoms in fragment 1/2:   111   111
 fragment masses (1/2) :     1124.03     1124.03
CMA distance (Bohr)    :  15.118
constraining FC (au)   :  0.0500
########################################################################
[WARNING] Please study the warnings concerning your input carefully
-1- prog_main_parseArguments: Unknown option '--tight' provided
########################################################################

           -------------------------------------------------
          |                 G F N 2 - x T B                 |
           -------------------------------------------------

        Reference                      10.1021/acs.jctc.8b01176
      * Hamiltonian:
        H0-scaling (s, p, d)           1.850000    2.230000    2.230000
        zeta-weighting                 0.500000
      * Dispersion:
        s8                             2.700000
        a1                             0.520000
        a2                             5.000000
        s9                             5.000000
      * Repulsion:
        kExp                           1.500000    1.000000
        rExp                           1.000000
      * Coulomb:
        alpha                          2.000000
        third order                    shell-resolved
        anisotropic                    true
        a3                             3.000000
        a5                             4.000000
        cn-shift                       1.200000
        cn-exp                         4.000000
        max-rad                        5.000000

q/qsh data taken from xtbrestart
CAMM data taken from xtbrestart

          ...................................................
          :                      SETUP                      :
          :.................................................:
          :  # basis functions                 744          :
          :  # atomic orbitals                 732          :
          :  # shells                          384          :
          :  # electrons                       763          :
          :  max. iterations                   250          :
          :  Hamiltonian                  GFN2-xTB          :
          :  restarted?                       true          :
          :  GBSA solvation                  false          :
          :  PC potential                    false          :
          :  electronic temp.          300.0000000     K    :
          :  accuracy                    1.0000000          :
          :  -> integral cutoff          0.2500000E+02      :
          :  -> integral neglect         0.1000000E-07      :
          :  -> SCF convergence          0.1000000E-05 Eh   :
          :  -> wf. convergence          0.1000000E-03 e    :
          :  Broyden damping             0.4000000          :
          ...................................................

 iter      E             dE          RMSdq      gap      omega  full diag
   1   -437.5624688 -0.437562E+03  0.214E+00    0.13       0.0  T
   2   -425.5688086  0.119937E+02  0.328E+00    0.19       1.0  T
   3   -434.4316466 -0.886284E+01  0.197E+00    0.17       1.0  T
   4   -437.3808841 -0.294924E+01  0.134E+00    0.04       1.0  T
   5   -437.3060373  0.748468E-01  0.129E+00    0.02       1.0  T
   6   -437.5478707 -0.241833E+00  0.101E+00    0.07       1.0  T
   7   -438.0009261 -0.453055E+00  0.647E-01    0.27       1.0  T
   8   -437.9025610  0.983651E-01  0.600E-01    0.02       1.0  T
   9   -437.9811034 -0.785424E-01  0.618E-01    0.21       1.0  T
  10   -438.0689872 -0.878839E-01  0.434E-01    0.21       1.0  T
  11   -438.0466388  0.223484E-01  0.403E-01    0.21       1.0  T
  12   -438.0609812 -0.143423E-01  0.368E-01    0.15       1.0  T
  13   -438.1001756 -0.391944E-01  0.201E-01    0.15       1.0  T
  14   -438.0996850  0.490630E-03  0.191E-01    0.11       1.0  T
  15   -438.1028248 -0.313977E-02  0.161E-01    0.13       1.0  T
  16   -438.1047009 -0.187611E-02  0.133E-01    0.12       1.0  T
  17   -438.1111210 -0.642017E-02  0.785E-02    0.11       1.0  T
  18   -438.1141014 -0.298038E-02  0.439E-02    0.13       1.0  T
  19   -438.1147268 -0.625394E-03  0.256E-02    0.11       1.0  T
  20   -438.1150681 -0.341252E-03  0.137E-02    0.12       1.0  T
  21   -438.1150505  0.175243E-04  0.132E-02    0.12       1.0  T
  22   -438.1151135 -0.629143E-04  0.735E-03    0.12       1.0  T
  23   -438.1151326 -0.191860E-04  0.390E-03    0.12       1.7  T
  24   -438.1151383 -0.561765E-05  0.193E-03    0.12       3.5  T
  25   -438.1151394 -0.112929E-05  0.103E-03    0.12       6.5  T
  26   -438.1151399 -0.492717E-06  0.338E-04    0.12      19.9  T
  27   -438.1151398  0.126913E-06  0.486E-04    0.12      13.8  T

   *** convergence criteria satisfied after 27 iterations ***

         #    Occupation            Energy/Eh            Energy/eV
      -------------------------------------------------------------
         1        2.0000           -0.7356206             -20.0173
       ...           ...                  ...                  ...
       376        1.9999           -0.3114520              -8.4750
       377        1.9995           -0.3096478              -8.4259
       378        1.9993           -0.3093013              -8.4165
       379        1.9986           -0.3085967              -8.3973
       380        1.9979           -0.3082103              -8.3868
       381        1.5332           -0.3025907              -8.2339
       382        1.3250           -0.3019510              -8.2165 (HOMO)
       383        0.0954           -0.2975258              -8.0961 (LUMO)
       384        0.0511           -0.2968942              -8.0789
       385                         -0.2533753              -6.8947
       386                         -0.2526151              -6.8740
       387                         -0.2427456              -6.6054
       ...                                ...                  ...
       732                          1.0948622              29.7927
      -------------------------------------------------------------
                  HL-Gap            0.0044252 Eh            0.1204 eV
             Fermi-level           -0.3010103 Eh           -8.1909 eV

 SCC (total)                   0 d,  0 h,  0 min,  8.347 sec
 SCC setup                      ...        0 min,  0.002 sec (  0.026%)
 Dispersion                     ...        0 min,  0.007 sec (  0.082%)
 classical contributions        ...        0 min,  0.001 sec (  0.017%)
 integral evaluation            ...        0 min,  0.045 sec (  0.538%)
 iterations                     ...        0 min,  7.980 sec ( 95.592%)
 molecular gradient             ...        0 min,  0.280 sec (  3.353%)
 printout                       ...        0 min,  0.033 sec (  0.392%)

         :::::::::::::::::::::::::::::::::::::::::::::::::::::
         ::                     SUMMARY                     ::
         :::::::::::::::::::::::::::::::::::::::::::::::::::::
         :: total energy            -433.148884836357 Eh    ::
         :: gradient norm              0.040786975446 Eh/a0 ::
         :: HOMO-LUMO gap              0.120415725525 eV    ::
         ::.................................................::
         :: SCC energy              -438.115139759838 Eh    ::
         :: -> isotropic ES            0.899048418133 Eh    ::
         :: -> anisotropic ES         -0.029464307633 Eh    ::
         :: -> anisotropic XC          0.137885916305 Eh    ::
         :: -> dispersion             -0.426327264703 Eh    ::
         :: repulsion energy           4.941370116152 Eh    ::
         :: add. restraining           0.000000000000 Eh    ::
         :: total charge              -1.000003566265 e     ::
         :::::::::::::::::::::::::::::::::::::::::::::::::::::

      ----------------------------------------------------------- 
     |                   =====================                   |
     |                        A N C O P T                        |
     |                   =====================                   |
     |               Approximate Normal Coordinate               |
     |                Rational Function Optimizer                |
      ----------------------------------------------------------- 

          ...................................................
          :                      SETUP                      :
          :.................................................:
          :   optimization level            normal          :
          :   max. optcycles                   666          :
          :   ANC micro-cycles                  20          :
          :   degrees of freedom               660          :
          :.................................................:
          :   RF solver                   davidson          :
          :   write xtbopt.log                true          :
          :   linear?                        false          :
          :   energy convergence         0.5000000E-05 Eh   :
          :   grad. convergence          0.1000000E-02 Eh/α :
          :   maxmium RF displ.          1.0000000          :
          :   Hlow (freq-cutoff)         0.1000000E-01      :
          :   Hmax (freq-cutoff)         5.0000000          :
          :   S6 in model hess.         20.0000000          :
          ...................................................

generating ANC from model Hessian ...
Using Lindh-Hessian (1995)
 Shifting diagonal of input Hessian by    1.0114821946473127E-002
 Lowest  eigenvalues of input Hessian
    0.010000    0.000000    0.000000    0.000000    0.000000    0.000000
    0.000000    0.010125    0.010133    0.010145    0.010192    0.010201
    0.010236    0.010269    0.010316    0.010328    0.010360    0.010418
 Highest eigenvalues
    2.668530    2.668532    2.670303    2.670305    2.692560    2.692577


........................................................................
.............................. CYCLE    1 ..............................
........................................................................

 iter      E             dE          RMSdq      gap      omega  full diag
   1   -438.1151399 -0.438115E+03  0.285E-04    0.12       0.0  T
   2   -438.1151271  0.127260E-04  0.361E-03    0.12       1.9  T
   3   -438.1151398 -0.126229E-04  0.410E-04    0.12      16.4  T
   4   -438.1151399 -0.118905E-06  0.245E-04    0.12      27.4  T
   5   -438.1151399 -0.268126E-07  0.152E-04    0.12      44.1  T
     SCC iter.                  ...        0 min,  2.428 sec
     gradient                   ...        0 min,  0.248 sec
 * total energy  :  -433.1488850 Eh     change       -0.1398506E-06 Eh
   gradient norm :     0.0407838 Eh/α   predicted     0.0000000E+00 (-100.00%)
   displ. norm   :     0.3662091 α      lambda       -0.5822612E-02
   maximum displ.:     0.0997228 α      in ANC's #1, #40, #39, ...

........................................................................
.............................. CYCLE    2 ..............................
........................................................................

 iter      E             dE          RMSdq      gap      omega  full diag
   1   -438.1201039 -0.438120E+03  0.652E-02    0.13       0.0  T
   2   -438.1156058  0.449812E-02  0.796E-02    0.14       1.0  T
   3   -438.0596457  0.559601E-01  0.254E-01    0.02       1.0  T
   4   -438.1167656 -0.571199E-01  0.806E-02    0.16       1.0  T
   5   -438.1160191  0.746474E-03  0.836E-02    0.13       1.0  T
   6   -438.1181689 -0.214973E-02  0.523E-02    0.13       1.0  T
   7   -438.1188157 -0.646819E-03  0.501E-02    0.12       1.0  T
   8   -438.1198777 -0.106200E-02  0.244E-02    0.13       1.0  T
   9   -438.1201877 -0.309991E-03  0.849E-03    0.13       1.0  T
  10   -438.1201987 -0.110807E-04  0.756E-03    0.13       1.0  T
  11   -438.1202174 -0.186280E-04  0.363E-03    0.13       1.9  T
  12   -438.1202145  0.285565E-05  0.410E-03    0.13       1.6  T
  13   -438.1202217 -0.722244E-05  0.151E-03    0.13       4.5  T
  14   -438.1202224 -0.649736E-06  0.112E-03    0.13       6.0  T
  15   -438.1202235 -0.115883E-05  0.282E-04    0.13      23.8  T
  16   -438.1202235  0.331800E-07  0.282E-04    0.13      23.8  T
  17   -438.1202236 -0.440152E-07  0.119E-04    0.13      56.6  T
     SCC iter.                  ...        0 min,  6.357 sec
     gradient                   ...        0 min,  0.221 sec
 * total energy  :  -433.1530193 Eh     change       -0.4134314E-02 Eh
   gradient norm :     0.0237041 Eh/α   predicted    -0.3305159E-02 ( -20.06%)
   displ. norm   :     0.3573715 α      lambda       -0.2524815E-02
   maximum displ.:     0.1112450 α      in ANC's #1, #40, #39, ...

........................................................................
.............................. CYCLE    3 ..............................
........................................................................

 iter      E             dE          RMSdq      gap      omega  full diag
   1   -438.1161877 -0.438116E+03  0.535E-02    0.14       0.0  T
   2   -438.1119805  0.420720E-02  0.750E-02    0.15       1.0  T
   3   -438.0840104  0.279702E-01  0.185E-01    0.06       1.0  T
   4   -438.1147131 -0.307028E-01  0.588E-02    0.16       1.0  T
   5   -438.1159653 -0.125213E-02  0.284E-02    0.14       1.0  T
   6   -438.1157111  0.254128E-03  0.325E-02    0.13       1.0  T
   7   -438.1156700  0.411890E-04  0.324E-02    0.14       1.0  T
   8   -438.1160710 -0.401004E-03  0.182E-02    0.14       1.0  T
   9   -438.1162350 -0.164083E-03  0.963E-03    0.14       1.0  T
  10   -438.1162625 -0.274275E-04  0.680E-03    0.14       1.0  T
  11   -438.1162619  0.533940E-06  0.673E-03    0.14       1.0  T
  12   -438.1162831 -0.211593E-04  0.189E-03    0.14       3.6  T
  13   -438.1162847 -0.159425E-05  0.605E-04    0.14      11.1  T
  14   -438.1162846  0.105767E-06  0.548E-04    0.14      12.3  T
  15   -438.1162848 -0.187944E-06  0.190E-04    0.14      35.4  T
     SCC iter.                  ...        0 min,  4.501 sec
     gradient                   ...        0 min,  0.242 sec
 * total energy  :  -433.1547491 Eh     change       -0.1729821E-02 Eh
   gradient norm :     0.0100356 Eh/α   predicted    -0.1424158E-02 ( -17.67%)
   displ. norm   :     0.3194212 α      lambda       -0.9296456E-03
   maximum displ.:     0.1107102 α      in ANC's #1, #40, #39, ...

........................................................................
.............................. CYCLE    4 ..............................
........................................................................

 iter      E             dE          RMSdq      gap      omega  full diag
   1   -438.1128386 -0.438113E+03  0.370E-02    0.14       0.0  T
   2   -438.1109743  0.186430E-02  0.521E-02    0.16       1.0  T
   3   -438.0990857  0.118886E-01  0.124E-01    0.10       1.0  T
   4   -438.1088694 -0.978374E-02  0.765E-02    0.17       1.0  T
   5   -438.1108265 -0.195703E-02  0.555E-02    0.14       1.0  T
   6   -438.1125967 -0.177020E-02  0.234E-02    0.15       1.0  T
   7   -438.1127586 -0.161933E-03  0.157E-02    0.14       1.0  T
   8   -438.1127722 -0.136039E-04  0.152E-02    0.14       1.0  T
   9   -438.1128665 -0.943479E-04  0.585E-03    0.14       1.1  T
  10   -438.1128734 -0.687586E-05  0.446E-03    0.14       1.5  T
  11   -438.1128802 -0.674991E-05  0.253E-03    0.14       2.7  T
  12   -438.1128824 -0.226741E-05  0.101E-03    0.14       6.7  T
  13   -438.1128830 -0.522535E-06  0.395E-04    0.14      17.0  T
  14   -438.1128830 -0.370450E-07  0.235E-04    0.14      28.6  T
     SCC iter.                  ...        0 min,  3.865 sec
     gradient                   ...        0 min,  0.227 sec
 * total energy  :  -433.1554151 Eh     change       -0.6659629E-03 Eh
   gradient norm :     0.0077996 Eh/α   predicted    -0.5122495E-03 ( -23.08%)
   displ. norm   :     0.3402829 α      lambda       -0.5727119E-03
   maximum displ.:     0.1217442 α      in ANC's #1, #40, #39, ...

........................................................................
.............................. CYCLE    5 ..............................
........................................................................

 iter      E             dE          RMSdq      gap      omega  full diag
   1   -438.1112277 -0.438111E+03  0.339E-02    0.15       0.0  T
   2   -438.1096280  0.159970E-02  0.508E-02    0.16       1.0  T
   3   -438.1037081  0.591991E-02  0.970E-02    0.12       1.0  T
   4   -438.1023585  0.134958E-02  0.104E-01    0.17       1.0  T
   5   -438.1087302 -0.637166E-02  0.590E-02    0.14       1.0  T
   6   -438.1111494 -0.241925E-02  0.159E-02    0.15       1.0  T
   7   -438.1112082 -0.587882E-04  0.108E-02    0.15       1.0  T
   8   -438.1111644  0.438437E-04  0.144E-02    0.15       1.0  T
   9   -438.1112541 -0.897177E-04  0.489E-03    0.15       1.4  T
  10   -438.1112580 -0.390518E-05  0.378E-03    0.15       1.8  T
  11   -438.1112632 -0.520126E-05  0.191E-03    0.15       3.5  T
  12   -438.1112646 -0.140525E-05  0.779E-04    0.15       8.6  T
  13   -438.1112648 -0.220057E-06  0.374E-04    0.15      17.9  T
  14   -438.1112649 -0.459690E-07  0.207E-04    0.15      32.5  T
     SCC iter.                  ...        1 min, 46.026 sec
     gradient                   ...        0 min,  0.230 sec
 * total energy  :  -433.1558494 Eh     change       -0.4343602E-03 Eh
   gradient norm :     0.0087551 Eh/α   predicted    -0.3195145E-03 ( -26.44%)
   displ. norm   :     0.4011219 α      lambda       -0.5078909E-03
   maximum displ.:     0.1430170 α      in ANC's #1, #40, #13, ...

........................................................................
.............................. CYCLE    6 ..............................
........................................................................

 iter      E             dE          RMSdq      gap      omega  full diag
   1   -438.1110853 -0.438111E+03  0.386E-02    0.16       0.0  T
   2   -438.1096178  0.146748E-02  0.531E-02    0.16       1.0  T
   3   -438.1048529  0.476490E-02  0.997E-02    0.15       1.0  T
   4   -438.1066583 -0.180543E-02  0.798E-02    0.17       1.0  T
   5   -438.1066311  0.272477E-04  0.693E-02    0.13       1.0  T
   6   -438.1107625 -0.413143E-02  0.238E-02    0.16       1.0  T
   7   -438.1110399 -0.277380E-03  0.127E-02    0.16       1.0  T
   8   -438.1110210  0.188208E-04  0.149E-02    0.16       1.0  T
   9   -438.1111180 -0.970064E-04  0.493E-03    0.16       1.4  T
  10   -438.1111210 -0.297734E-05  0.382E-03    0.16       1.8  T
  11   -438.1111249 -0.383586E-05  0.249E-03    0.15       2.7  T
  12   -438.1111277 -0.283947E-05  0.112E-03    0.16       6.0  T
  13   -438.1111286 -0.869669E-06  0.406E-04    0.16      16.5  T
  14   -438.1111286 -0.505349E-08  0.309E-04    0.16      21.7  T
     SCC iter.                  ...        0 min,  8.840 sec
     gradient                   ...        0 min,  0.237 sec
 * total energy  :  -433.1562377 Eh     change       -0.3882326E-03 Eh
   gradient norm :     0.0076584 Eh/α   predicted    -0.2948065E-03 ( -24.06%)
   displ. norm   :     0.4176249 α      lambda       -0.4234301E-03
   maximum displ.:     0.1461295 α      in ANC's #1, #13, #40, ...

........................................................................
.............................. CYCLE    7 ..............................
........................................................................

 iter      E             dE          RMSdq      gap      omega  full diag
   1   -438.1121391 -0.438112E+03  0.410E-02    0.16       0.0  T
   2   -438.1104305  0.170857E-02  0.554E-02    0.15       1.0  T
   3   -438.1011564  0.927408E-02  0.122E-01    0.17       1.0  T
   4   -438.0995337  0.162277E-02  0.126E-01    0.12       1.0  T
   5   -438.1099932 -0.104596E-01  0.567E-02    0.18       1.0  T
   6   -438.1117531 -0.175985E-02  0.258E-02    0.16       1.0  T
   7   -438.1120255 -0.272434E-03  0.159E-02    0.16       1.0  T
   8   -438.1120326 -0.713769E-05  0.176E-02    0.16       1.0  T
   9   -438.1121626 -0.129998E-03  0.621E-03    0.16       1.1  T
  10   -438.1121687 -0.609630E-05  0.471E-03    0.16       1.4  T
  11   -438.1121773 -0.858719E-05  0.281E-03    0.16       2.4  T
  12   -438.1121810 -0.369784E-05  0.113E-03    0.16       5.9  T
  13   -438.1121815 -0.457100E-06  0.489E-04    0.16      13.7  T
  14   -438.1121816 -0.951903E-07  0.243E-04    0.16      27.6  T
     SCC iter.                  ...        0 min,  6.970 sec
     gradient                   ...        0 min,  0.286 sec
 * total energy  :  -433.1565596 Eh     change       -0.3219440E-03 Eh
   gradient norm :     0.0064072 Eh/α   predicted    -0.2486482E-03 ( -22.77%)
   displ. norm   :     0.4063211 α      lambda       -0.3381340E-03
   maximum displ.:     0.1409388 α      in ANC's #13, #1, #11, ...

........................................................................
.............................. CYCLE    8 ..............................
........................................................................

 iter      E             dE          RMSdq      gap      omega  full diag
   1   -438.1136552 -0.438114E+03  0.408E-02    0.16       0.0  T
   2   -438.1116553  0.199987E-02  0.554E-02    0.15       1.0  T
   3   -438.0960154  0.156399E-01  0.144E-01    0.16       1.0  T
   4   -438.1028812 -0.686579E-02  0.122E-01    0.14       1.0  T
   5   -438.1120273 -0.914610E-02  0.518E-02    0.18       1.0  T
   6   -438.1134683 -0.144105E-02  0.207E-02    0.16       1.0  T
   7   -438.1136051 -0.136765E-03  0.125E-02    0.16       1.0  T
   8   -438.1135989  0.614304E-05  0.138E-02    0.16       1.0  T
   9   -438.1136641 -0.651911E-04  0.723E-03    0.16       1.0  T
  10   -438.1136859 -0.217478E-04  0.274E-03    0.16       2.5  T
  11   -438.1136865 -0.638975E-06  0.269E-03    0.16       2.5  T
  12   -438.1136893 -0.280808E-05  0.137E-03    0.16       4.9  T
  13   -438.1136901 -0.812472E-06  0.393E-04    0.16      17.1  T
  14   -438.1136902 -0.456274E-07  0.219E-04    0.16      30.6  T
     SCC iter.                  ...        0 min,  4.444 sec
     gradient                   ...        0 min,  0.240 sec
 * total energy  :  -433.1568211 Eh     change       -0.2614631E-03 Eh
   gradient norm :     0.0074207 Eh/α   predicted    -0.1969995E-03 ( -24.65%)
   displ. norm   :     0.4180408 α      lambda       -0.3119948E-03
   maximum displ.:     0.1467354 α      in ANC's #13, #11, #1, ...

........................................................................
.............................. CYCLE    9 ..............................
........................................................................

 iter      E             dE          RMSdq      gap      omega  full diag
   1   -438.1150304 -0.438115E+03  0.423E-02    0.16       0.0  T
   2   -438.1129052  0.212525E-02  0.551E-02    0.14       1.0  T
   3   -438.0913096  0.215956E-01  0.164E-01    0.15       1.0  T
   4   -438.1074822 -0.161726E-01  0.107E-01    0.15       1.0  T
   5   -438.1130076 -0.552545E-02  0.563E-02    0.18       1.0  T
   6   -438.1148583 -0.185071E-02  0.200E-02    0.17       1.0  T
   7   -438.1150064 -0.148112E-03  0.107E-02    0.16       1.0  T
   8   -438.1149923  0.141704E-04  0.115E-02    0.16       1.0  T
   9   -438.1150230 -0.307197E-04  0.879E-03    0.16       1.0  T
  10   -438.1150577 -0.347289E-04  0.343E-03    0.16       2.0  T
  11   -438.1150573  0.360953E-06  0.340E-03    0.16       2.0  T
  12   -438.1150618 -0.442809E-05  0.116E-03    0.16       5.8  T
  13   -438.1150626 -0.812910E-06  0.331E-04    0.16      20.3  T
  14   -438.1150626 -0.191827E-07  0.214E-04    0.16      31.3  T
     SCC iter.                  ...        0 min,  3.499 sec
     gradient                   ...        0 min,  0.266 sec
 * total energy  :  -433.1570682 Eh     change       -0.2470994E-03 Eh
   gradient norm :     0.0082850 Eh/α   predicted    -0.1832595E-03 ( -25.84%)
   displ. norm   :     0.4506808 α      lambda       -0.3139386E-03
   maximum displ.:     0.1596925 α      in ANC's #11, #13, #1, ...

........................................................................
.............................. CYCLE   10 ..............................
........................................................................

 iter      E             dE          RMSdq      gap      omega  full diag
   1   -438.1157500 -0.438116E+03  0.450E-02    0.16       0.0  T
   2   -438.1139536  0.179634E-02  0.518E-02    0.14       1.0  T
   3   -438.0852927  0.286609E-01  0.185E-01    0.14       1.0  T
   4   -438.1096605 -0.243678E-01  0.975E-02    0.16       1.0  T
   5   -438.1135502 -0.388966E-02  0.570E-02    0.18       1.0  T
   6   -438.1154381 -0.188793E-02  0.248E-02    0.17       1.0  T
   7   -438.1157319 -0.293812E-03  0.104E-02    0.16       1.0  T
   8   -438.1156886  0.432985E-04  0.124E-02    0.16       1.0  T
   9   -438.1157409 -0.523195E-04  0.915E-03    0.16       1.0  T
  10   -438.1157756 -0.346663E-04  0.463E-03    0.16       1.4  T
  11   -438.1157797 -0.410099E-05  0.326E-03    0.16       2.1  T
  12   -438.1157831 -0.341611E-05  0.141E-03    0.16       4.8  T
  13   -438.1157844 -0.125558E-05  0.355E-04    0.16      18.9  T
  14   -438.1157844 -0.179276E-07  0.236E-04    0.16      28.4  T
  15   -438.1157844 -0.104476E-07  0.125E-04    0.16      53.7  T
     SCC iter.                  ...        0 min,  3.348 sec
     gradient                   ...        0 min,  0.225 sec
 * total energy  :  -433.1573140 Eh     change       -0.2458073E-03 Eh
   gradient norm :     0.0073162 Eh/α   predicted    -0.1888565E-03 ( -23.17%)
   displ. norm   :     0.4496892 α      lambda       -0.2705960E-03
   maximum displ.:     0.1691821 α      in ANC's #11, #13, #1, ...

........................................................................
.............................. CYCLE   11 ..............................
........................................................................

 iter      E             dE          RMSdq      gap      omega  full diag
   1   -438.1156028 -0.438116E+03  0.422E-02    0.16       0.0  T
   2   -438.1148099  0.792885E-03  0.396E-02    0.15       1.0  T
   3   -438.0920886  0.227214E-01  0.168E-01    0.15       1.0  T
   4   -438.1082843 -0.161957E-01  0.100E-01    0.14       1.0  T
   5   -438.1139749 -0.569066E-02  0.476E-02    0.18       1.0  T
   6   -438.1151465 -0.117155E-02  0.291E-02    0.16       1.0  T
   7   -438.1155795 -0.433052E-03  0.102E-02    0.16       1.0  T
   8   -438.1155506  0.289457E-04  0.107E-02    0.16       1.0  T
   9   -438.1155978 -0.472178E-04  0.849E-03    0.16       1.0  T
  10   -438.1156255 -0.277547E-04  0.408E-03    0.16       1.6  T
  11   -438.1156296 -0.404960E-05  0.296E-03    0.16       2.3  T
  12   -438.1156311 -0.153678E-05  0.174E-03    0.16       3.9  T
  13   -438.1156331 -0.195936E-05  0.433E-04    0.16      15.5  T
  14   -438.1156331 -0.433599E-07  0.276E-04    0.16      24.3  T
  15   -438.1156331 -0.176549E-07  0.168E-04    0.16      39.8  T
     SCC iter.                  ...        0 min,  3.468 sec
     gradient                   ...        0 min,  0.237 sec
 * total energy  :  -433.1575206 Eh     change       -0.2066574E-03 Eh
   gradient norm :     0.0056086 Eh/α   predicted    -0.1626733E-03 ( -21.28%)
   displ. norm   :     0.4099365 α      lambda       -0.2054022E-03
   maximum displ.:     0.1615335 α      in ANC's #11, #13, #3, ...

........................................................................
.............................. CYCLE   12 ..............................
........................................................................

 iter      E             dE          RMSdq      gap      omega  full diag
   1   -438.1152941 -0.438115E+03  0.348E-02    0.16       0.0  T
   2   -438.1150204  0.273699E-03  0.285E-02    0.15       1.0  T
   3   -438.1089286  0.609180E-02  0.968E-02    0.17       1.0  T
   4   -438.1069595  0.196914E-02  0.100E-01    0.13       1.0  T
   5   -438.1141617 -0.720224E-02  0.371E-02    0.17       1.0  T
   6   -438.1148091 -0.647365E-03  0.288E-02    0.16       1.0  T
   7   -438.1152851 -0.476038E-03  0.768E-03    0.15       1.0  T
   8   -438.1152721  0.130266E-04  0.717E-03    0.16       1.0  T
   9   -438.1152904 -0.182830E-04  0.676E-03    0.16       1.0  T
  10   -438.1153087 -0.183795E-04  0.308E-03    0.16       2.2  T
  11   -438.1153108 -0.209446E-05  0.191E-03    0.16       3.5  T
  12   -438.1153132 -0.235613E-05  0.124E-03    0.16       5.4  T
  13   -438.1153139 -0.678342E-06  0.400E-04    0.16      16.8  T
  14   -438.1153139 -0.310660E-07  0.245E-04    0.16      27.4  T
     SCC iter.                  ...        0 min,  3.159 sec
     gradient                   ...        0 min,  0.239 sec
 * total energy  :  -433.1576783 Eh     change       -0.1576652E-03 Eh
   gradient norm :     0.0053021 Eh/α   predicted    -0.1199602E-03 ( -23.91%)
   displ. norm   :     0.3823976 α      lambda       -0.1718011E-03
   maximum displ.:     0.1557465 α      in ANC's #11, #3, #13, ...

........................................................................
.............................. CYCLE   13 ..............................
........................................................................

 iter      E             dE          RMSdq      gap      omega  full diag
   1   -438.1153825 -0.438115E+03  0.298E-02    0.15       0.0  T
   2   -438.1152661  0.116417E-03  0.218E-02    0.15       1.0  T
   3   -438.1123559  0.291020E-02  0.717E-02    0.15       1.0  T
   4   -438.1111339  0.122198E-02  0.715E-02    0.17       1.0  T
   5   -438.1148722 -0.373828E-02  0.270E-02    0.15       1.0  T
   6   -438.1149172 -0.450165E-04  0.258E-02    0.16       1.0  T
   7   -438.1153196 -0.402325E-03  0.114E-02    0.15       1.0  T
   8   -438.1153251 -0.556907E-05  0.115E-02    0.15       1.0  T
   9   -438.1153828 -0.577117E-04  0.460E-03    0.15       1.5  T
  10   -438.1153904 -0.753255E-05  0.249E-03    0.15       2.7  T
  11   -438.1153927 -0.237233E-05  0.130E-03    0.15       5.2  T
  12   -438.1153935 -0.775240E-06  0.513E-04    0.16      13.1  T
  13   -438.1153936 -0.813960E-07  0.271E-04    0.15      24.8  T
     SCC iter.                  ...        0 min,  2.963 sec
     gradient                   ...        0 min,  0.220 sec
 * total energy  :  -433.1578124 Eh     change       -0.1341263E-03 Eh
   gradient norm :     0.0057767 Eh/α   predicted    -0.9846524E-04 ( -26.59%)
   displ. norm   :     0.3813458 α      lambda       -0.1593191E-03
   maximum displ.:     0.1578062 α      in ANC's #11, #3, #5, ...

........................................................................
.............................. CYCLE   14 ..............................
........................................................................

 iter      E             dE          RMSdq      gap      omega  full diag
   1   -438.1158514 -0.438116E+03  0.288E-02    0.15       0.0  T
   2   -438.1157481  0.103324E-03  0.205E-02    0.15       1.0  T
   3   -438.1089687  0.677941E-02  0.994E-02    0.17       1.0  T
   4   -438.1110443 -0.207556E-02  0.754E-02    0.13       1.0  T
   5   -438.1155420 -0.449778E-02  0.224E-02    0.16       1.0  T
   6   -438.1157508 -0.208798E-03  0.147E-02    0.15       1.0  T
   7   -438.1157907 -0.398818E-04  0.106E-02    0.15       1.0  T
   8   -438.1157546  0.360725E-04  0.130E-02    0.15       1.0  T
   9   -438.1158550 -0.100330E-03  0.273E-03    0.15       2.5  T
  10   -438.1158581 -0.309607E-05  0.155E-03    0.15       4.3  T
  11   -438.1158580  0.117053E-06  0.157E-03    0.15       4.3  T
  12   -438.1158590 -0.109318E-05  0.372E-04    0.15      18.0  T
  13   -438.1158591 -0.204035E-07  0.239E-04    0.15      28.1  T
  14   -438.1158591 -0.151120E-07  0.151E-04    0.15      44.6  T
     SCC iter.                  ...        0 min,  3.136 sec
     gradient                   ...        0 min,  0.240 sec
 * total energy  :  -433.1579376 Eh     change       -0.1251750E-03 Eh
   gradient norm :     0.0057212 Eh/α   predicted    -0.9124420E-04 ( -27.11%)
   displ. norm   :     0.3837395 α      lambda       -0.1496271E-03
   maximum displ.:     0.1588116 α      in ANC's #11, #3, #5, ...

........................................................................
.............................. CYCLE   15 ..............................
........................................................................

 iter      E             dE          RMSdq      gap      omega  full diag
   1   -438.1165796 -0.438117E+03  0.291E-02    0.15       0.0  T
   2   -438.1162023  0.377236E-03  0.287E-02    0.15       1.0  T
   3   -438.1051128  0.110896E-01  0.121E-01    0.16       1.0  T
   4   -438.1108271 -0.571431E-02  0.849E-02    0.13       1.0  T
   5   -438.1163060 -0.547897E-02  0.233E-02    0.16       1.0  T
   6   -438.1163776 -0.715174E-04  0.187E-02    0.15       1.0  T
   7   -438.1164044 -0.268259E-04  0.177E-02    0.15       1.0  T
   8   -438.1165607 -0.156337E-03  0.794E-03    0.15       1.0  T
   9   -438.1165879 -0.271600E-04  0.224E-03    0.15       3.0  T
  10   -438.1165887 -0.789625E-06  0.179E-03    0.15       3.8  T
  11   -438.1165887 -0.283820E-07  0.175E-03    0.15       3.8  T
  12   -438.1165900 -0.127362E-05  0.673E-04    0.15      10.0  T
  13   -438.1165903 -0.274733E-06  0.207E-04    0.15      32.4  T
  14   -438.1165902  0.687885E-08  0.173E-04    0.15      38.8  T
     SCC iter.                  ...        0 min,  3.331 sec
     gradient                   ...        0 min,  0.233 sec
 * total energy  :  -433.1580554 Eh     change       -0.1178159E-03 Eh
   gradient norm :     0.0050976 Eh/α   predicted    -0.8583712E-04 ( -27.14%)
   displ. norm   :     0.3866357 α      lambda       -0.1403900E-03
   maximum displ.:     0.1584018 α      in ANC's #3, #11, #5, ...

........................................................................
.............................. CYCLE   16 ..............................
........................................................................

 iter      E             dE          RMSdq      gap      omega  full diag
   1   -438.1171675 -0.438117E+03  0.290E-02    0.15       0.0  T
   2   -438.1165844  0.583097E-03  0.345E-02    0.15       1.0  T
   3   -438.1103242  0.626018E-02  0.961E-02    0.17       1.0  T
   4   -438.1091826  0.114158E-02  0.963E-02    0.12       1.0  T
   5   -438.1165066 -0.732402E-02  0.342E-02    0.16       1.0  T
   6   -438.1169121 -0.405472E-03  0.206E-02    0.15       1.0  T
   7   -438.1170537 -0.141600E-03  0.155E-02    0.15       1.0  T
   8   -438.1171467 -0.930007E-04  0.853E-03    0.15       1.0  T
   9   -438.1171779 -0.311873E-04  0.325E-03    0.15       2.1  T
  10   -438.1171791 -0.119595E-05  0.311E-03    0.15       2.2  T
  11   -438.1171817 -0.264905E-05  0.158E-03    0.15       4.2  T
  12   -438.1171831 -0.140565E-05  0.657E-04    0.15      10.2  T
  13   -438.1171834 -0.243560E-06  0.183E-04    0.15      36.7  T
  14   -438.1171834  0.127844E-07  0.184E-04    0.15      36.4  T
     SCC iter.                  ...        0 min,  2.867 sec
     gradient                   ...        0 min,  0.228 sec
 * total energy  :  -433.1581670 Eh     change       -0.1115422E-03 Eh
   gradient norm :     0.0048441 Eh/α   predicted    -0.8069275E-04 ( -27.66%)
   displ. norm   :     0.3885935 α      lambda       -0.1374938E-03
   maximum displ.:     0.1698360 α      in ANC's #3, #11, #5, ...

........................................................................
.............................. CYCLE   17 ..............................
........................................................................

 iter      E             dE          RMSdq      gap      omega  full diag
   1   -438.1176955 -0.438118E+03  0.286E-02    0.15       0.0  T
   2   -438.1170110  0.684440E-03  0.378E-02    0.15       1.0  T
   3   -438.1149412  0.206983E-02  0.676E-02    0.16       1.0  T
   4   -438.1137783  0.116289E-02  0.749E-02    0.14       1.0  T
   5   -438.1156230 -0.184468E-02  0.500E-02    0.17       1.0  T
   6   -438.1173283 -0.170533E-02  0.219E-02    0.15       1.0  T
   7   -438.1176068 -0.278485E-03  0.149E-02    0.15       1.0  T
   8   -438.1176979 -0.910749E-04  0.607E-03    0.15       1.1  T
   9   -438.1177087 -0.107796E-04  0.387E-03    0.15       1.7  T
  10   -438.1177132 -0.452769E-05  0.232E-03    0.16       2.9  T
  11   -438.1177147 -0.153492E-05  0.120E-03    0.15       5.6  T
  12   -438.1177154 -0.647741E-06  0.555E-04    0.15      12.1  T
  13   -438.1177156 -0.204577E-06  0.166E-04    0.15      40.5  T
     SCC iter.                  ...        0 min,  2.598 sec
     gradient                   ...        0 min,  0.228 sec
 * total energy  :  -433.1582778 Eh     change       -0.1108058E-03 Eh
   gradient norm :     0.0053553 Eh/α   predicted    -0.7912826E-04 ( -28.59%)
   displ. norm   :     0.4110027 α      lambda       -0.1451005E-03
   maximum displ.:     0.1879299 α      in ANC's #3, #5, #11, ...

........................................................................
.............................. CYCLE   18 ..............................
........................................................................

 iter      E             dE          RMSdq      gap      omega  full diag
   1   -438.1175797 -0.438118E+03  0.291E-02    0.16       0.0  T
   2   -438.1166407  0.939043E-03  0.421E-02    0.16       1.0  T
   3   -438.1144823  0.215842E-02  0.680E-02    0.14       1.0  T
   4   -438.1098924  0.458983E-02  0.102E-01    0.17       1.0  T
   5   -438.1143683 -0.447582E-02  0.638E-02    0.14       1.0  T
   6   -438.1175011 -0.313287E-02  0.137E-02    0.16       1.0  T
   7   -438.1175136 -0.124868E-04  0.130E-02    0.15       1.0  T
   8   -438.1175667 -0.531132E-04  0.806E-03    0.15       1.0  T
   9   -438.1175890 -0.222866E-04  0.479E-03    0.16       1.4  T
  10   -438.1175986 -0.953527E-05  0.283E-03    0.16       2.4  T
  11   -438.1175999 -0.130316E-05  0.184E-03    0.16       3.7  T
  12   -438.1176020 -0.213360E-05  0.809E-04    0.16       8.3  T
  13   -438.1176023 -0.339379E-06  0.291E-04    0.16      23.0  T
  14   -438.1176024 -0.246953E-07  0.207E-04    0.16      32.4  T
     SCC iter.                  ...        0 min,  2.644 sec
     gradient                   ...        0 min,  0.224 sec
 * total energy  :  -433.1583971 Eh     change       -0.1193373E-03 Eh
   gradient norm :     0.0056737 Eh/α   predicted    -0.8480797E-04 ( -28.93%)
   displ. norm   :     0.4430999 α      lambda       -0.1660485E-03
   maximum displ.:     0.2107593 α      in ANC's #3, #5, #11, ...

........................................................................
.............................. CYCLE   19 ..............................
........................................................................

 iter      E             dE          RMSdq      gap      omega  full diag
   1   -438.1178986 -0.438118E+03  0.308E-02    0.16       0.0  T
   2   -438.1151694  0.272924E-02  0.625E-02    0.17       1.0  T
   3   -438.1133023  0.186711E-02  0.744E-02    0.13       1.0  T
   4   -438.1077407  0.556153E-02  0.117E-01    0.17       1.0  T
   5   -438.1163533 -0.861258E-02  0.514E-02    0.16       1.0  T
   6   -438.1178150 -0.146166E-02  0.145E-02    0.16       1.0  T
   7   -438.1178526 -0.376408E-04  0.119E-02    0.16       1.0  T
   8   -438.1178664 -0.137634E-04  0.111E-02    0.16       1.0  T
   9   -438.1179173 -0.509638E-04  0.469E-03    0.16       1.4  T
  10   -438.1179279 -0.105139E-04  0.314E-03    0.16       2.1  T
  11   -438.1179301 -0.225422E-05  0.218E-03    0.16       3.1  T
  12   -438.1179320 -0.193192E-05  0.120E-03    0.16       5.6  T
  13   -438.1179328 -0.760746E-06  0.410E-04    0.16      16.4  T
  14   -438.1179329 -0.105167E-06  0.165E-04    0.16      40.8  T
     SCC iter.                  ...        0 min,  2.790 sec
     gradient                   ...        0 min,  0.224 sec
 * total energy  :  -433.1585343 Eh     change       -0.1371783E-03 Eh
   gradient norm :     0.0055651 Eh/α   predicted    -0.9933084E-04 ( -27.59%)
   displ. norm   :     0.5002530 α      lambda       -0.1939839E-03
   maximum displ.:     0.2421070 α      in ANC's #3, #5, #11, ...

........................................................................
.............................. CYCLE   20 ..............................
........................................................................

 iter      E             dE          RMSdq      gap      omega  full diag
   1   -438.1165006 -0.438117E+03  0.332E-02    0.16       0.0  T
   2   -438.1131203  0.338026E-02  0.672E-02    0.17       1.0  T
   3   -438.1101152  0.300515E-02  0.859E-02    0.13       1.0  T
   4   -438.1076322  0.248303E-02  0.111E-01    0.17       1.0  T
   5   -438.1156203 -0.798813E-02  0.404E-02    0.17       1.0  T
   6   -438.1163538 -0.733470E-03  0.174E-02    0.17       1.0  T
   7   -438.1164779 -0.124125E-03  0.908E-03    0.16       1.0  T
   8   -438.1164804 -0.251532E-05  0.958E-03    0.16       1.0  T
   9   -438.1165237 -0.432988E-04  0.451E-03    0.16       1.5  T
  10   -438.1165229  0.847147E-06  0.489E-03    0.16       1.4  T
  11   -438.1165322 -0.936043E-05  0.230E-03    0.16       2.9  T
  12   -438.1165345 -0.223359E-05  0.121E-03    0.16       5.6  T
  13   -438.1165352 -0.769786E-06  0.421E-04    0.16      15.9  T
  14   -438.1165353 -0.107235E-06  0.179E-04    0.16      37.5  T
     SCC iter.                  ...        0 min,  2.658 sec
     gradient                   ...        0 min,  0.235 sec
 * total energy  :  -433.1586932 Eh     change       -0.1589516E-03 Eh
   gradient norm :     0.0054991 Eh/α   predicted    -0.1212691E-03 ( -23.71%)
   displ. norm   :     0.5364734 α      lambda       -0.2276483E-03
   maximum displ.:     0.2625558 α      in ANC's #3, #5, #9, ...
 * RMSD in coord.:     0.4259112 α      energy gain  -0.9808399E-02 Eh

generating ANC from model Hessian ...
Using Lindh-Hessian (1995)
 Shifting diagonal of input Hessian by    1.0001395370761819E-002
 Lowest  eigenvalues of input Hessian
    0.010000    0.000000    0.000000    0.000000    0.000000    0.000000
    0.000000    0.010011    0.010020    0.010029    0.010082    0.010093
    0.010110    0.010176    0.010183    0.010209    0.010232    0.010250
 Highest eigenvalues
    2.644265    2.644864    2.648362    2.648872    2.655472    2.668274


........................................................................
.............................. CYCLE   21 ..............................
........................................................................

 iter      E             dE          RMSdq      gap      omega  full diag
   1   -438.1175909 -0.438118E+03  0.353E-02    0.16       0.0  T
   2   -438.1087532  0.883768E-02  0.105E-01    0.17       1.0  T
   3   -438.1131719 -0.441869E-02  0.712E-02    0.14       1.0  T
   4   -438.1079720  0.519992E-02  0.116E-01    0.17       1.0  T
   5   -438.1168713 -0.889929E-02  0.366E-02    0.17       1.0  T
   6   -438.1171964 -0.325107E-03  0.302E-02    0.17       1.0  T
   7   -438.1175858 -0.389371E-03  0.117E-02    0.16       1.0  T
   8   -438.1175638  0.219581E-04  0.124E-02    0.16       1.0  T
   9   -438.1176555 -0.917180E-04  0.342E-03    0.16       2.0  T
  10   -438.1176589 -0.334975E-05  0.279E-03    0.16       2.4  T
  11   -438.1176590 -0.158663E-06  0.263E-03    0.16       2.6  T
  12   -438.1176618 -0.279887E-05  0.107E-03    0.16       6.3  T
  13   -438.1176626 -0.767958E-06  0.308E-04    0.16      21.8  T
  14   -438.1176626 -0.167144E-07  0.213E-04    0.16      31.5  T
     SCC iter.                  ...        0 min,  2.703 sec
     gradient                   ...        0 min,  0.222 sec
 * total energy  :  -433.1588769 Eh     change       -0.1836592E-03 Eh
   gradient norm :     0.0065187 Eh/α   predicted     0.0000000E+00 (-100.00%)
   displ. norm   :     0.0622555 α      lambda       -0.6480576E-04
   maximum displ.:     0.0213126 α      in ANC's #3, #1, #8, ...

........................................................................
.............................. CYCLE   22 ..............................
........................................................................

 iter      E             dE          RMSdq      gap      omega  full diag
   1   -438.1179260 -0.438118E+03  0.751E-03    0.16       0.0  T
   2   -438.1177801  0.145930E-03  0.161E-02    0.16       1.0  T
   3   -438.1178224 -0.423113E-04  0.133E-02    0.16       1.0  T
   4   -438.1176853  0.137079E-03  0.192E-02    0.16       1.0  T
   5   -438.1176257  0.596803E-04  0.188E-02    0.17       1.0  T
   6   -438.1179117 -0.286085E-03  0.532E-03    0.16       1.3  T
   7   -438.1179145 -0.273711E-05  0.544E-03    0.16       1.2  T
   8   -438.1179277 -0.132369E-04  0.228E-03    0.16       2.9  T
   9   -438.1179296 -0.189155E-05  0.103E-03    0.16       6.5  T
  10   -438.1179300 -0.351780E-06  0.537E-04    0.16      12.5  T
  11   -438.1179300 -0.529912E-07  0.369E-04    0.16      18.2  T
     SCC iter.                  ...        0 min,  2.007 sec
     gradient                   ...        0 min,  0.228 sec
 * total energy  :  -433.1589569 Eh     change       -0.8003321E-04 Eh
   gradient norm :     0.0043290 Eh/α   predicted    -0.4615233E-04 ( -42.33%)
   displ. norm   :     0.2434343 α      lambda       -0.2472084E-03
   maximum displ.:     0.0875188 α      in ANC's #3, #1, #8, ...

........................................................................
.............................. CYCLE   23 ..............................
........................................................................

 iter      E             dE          RMSdq      gap      omega  full diag
   1   -438.1187362 -0.438119E+03  0.249E-02    0.16       0.0  T
   2   -438.1169084  0.182779E-02  0.564E-02    0.16       1.0  T
   3   -438.1174274 -0.518953E-03  0.457E-02    0.17       1.0  T
   4   -438.1153149  0.211250E-02  0.680E-02    0.14       1.0  T
   5   -438.1147635  0.551371E-03  0.699E-02    0.17       1.0  T
   6   -438.1186248 -0.386134E-02  0.169E-02    0.16       1.0  T
   7   -438.1186331 -0.823011E-05  0.174E-02    0.16       1.0  T
   8   -438.1187536 -0.120561E-03  0.800E-03    0.16       1.0  T
   9   -438.1187790 -0.253715E-04  0.394E-03    0.16       1.7  T
  10   -438.1187849 -0.590469E-05  0.157E-03    0.16       4.3  T
  11   -438.1187852 -0.337284E-06  0.110E-03    0.16       6.1  T
  12   -438.1187855 -0.274604E-06  0.709E-04    0.16       9.5  T
  13   -438.1187858 -0.272306E-06  0.230E-04    0.16      29.1  T
     SCC iter.                  ...        0 min,  2.380 sec
     gradient                   ...        0 min,  0.228 sec
 * total energy  :  -433.1591134 Eh     change       -0.1564755E-03 Eh
   gradient norm :     0.0034518 Eh/α   predicted    -0.1309297E-03 ( -16.33%)
   displ. norm   :     0.1633761 α      lambda       -0.7613640E-04
   maximum displ.:     0.0643805 α      in ANC's #3, #1, #8, ...

........................................................................
.............................. CYCLE   24 ..............................
........................................................................

 iter      E             dE          RMSdq      gap      omega  full diag
   1   -438.1191165 -0.438119E+03  0.129E-02    0.16       0.0  T
   2   -438.1186841  0.432405E-03  0.282E-02    0.16       1.0  T
   3   -438.1188367 -0.152611E-03  0.218E-02    0.16       1.0  T
   4   -438.1180169  0.819769E-03  0.389E-02    0.17       1.0  T
   5   -438.1181967 -0.179809E-03  0.338E-02    0.15       1.0  T
   6   -438.1190510 -0.854339E-03  0.108E-02    0.16       1.0  T
   7   -438.1190940 -0.429777E-04  0.802E-03    0.16       1.0  T
   8   -438.1191216 -0.275800E-04  0.367E-03    0.16       1.8  T
   9   -438.1191269 -0.526214E-05  0.156E-03    0.16       4.3  T
  10   -438.1191274 -0.530700E-06  0.107E-03    0.16       6.3  T
  11   -438.1191276 -0.188604E-06  0.766E-04    0.16       8.8  T
  12   -438.1191278 -0.242575E-06  0.263E-04    0.16      25.5  T
     SCC iter.                  ...        0 min,  2.192 sec
     gradient                   ...        0 min,  0.225 sec
 * total energy  :  -433.1591776 Eh     change       -0.6421452E-04 Eh
   gradient norm :     0.0047388 Eh/α   predicted    -0.3968036E-04 ( -38.21%)
   displ. norm   :     0.3160668 α      lambda       -0.1478592E-03
   maximum displ.:     0.1270481 α      in ANC's #3, #1, #8, ...

........................................................................
.............................. CYCLE   25 ..............................
........................................................................

 iter      E             dE          RMSdq      gap      omega  full diag
   1   -438.1193848 -0.438119E+03  0.223E-02    0.15       0.0  T
   2   -438.1182248  0.115999E-02  0.460E-02    0.16       1.0  T
   3   -438.1182681 -0.433514E-04  0.412E-02    0.15       1.0  T
   4   -438.1135135  0.475464E-02  0.852E-02    0.16       1.0  T
   5   -438.1174500 -0.393649E-02  0.519E-02    0.14       1.0  T
   6   -438.1192748 -0.182485E-02  0.156E-02    0.16       1.0  T
   7   -438.1193303 -0.555043E-04  0.123E-02    0.16       1.0  T
   8   -438.1193947 -0.643702E-04  0.565E-03    0.16       1.2  T
   9   -438.1194089 -0.142163E-04  0.245E-03    0.16       2.7  T
  10   -438.1194095 -0.574365E-06  0.203E-03    0.16       3.3  T
  11   -438.1194102 -0.696228E-06  0.139E-03    0.16       4.8  T
  12   -438.1194110 -0.806734E-06  0.576E-04    0.16      11.6  T
  13   -438.1194112 -0.204949E-06  0.165E-04    0.16      40.7  T
     SCC iter.                  ...        0 min,  2.380 sec
     gradient                   ...        0 min,  0.236 sec
 * total energy  :  -433.1593006 Eh     change       -0.1229943E-03 Eh
   gradient norm :     0.0052908 Eh/α   predicted    -0.8131527E-04 ( -33.89%)
   displ. norm   :     0.4545360 α      lambda       -0.1995837E-03
   maximum displ.:     0.1872362 α      in ANC's #3, #1, #8, ...

........................................................................
.............................. CYCLE   26 ..............................
........................................................................

 iter      E             dE          RMSdq      gap      omega  full diag
   1   -438.1192606 -0.438119E+03  0.293E-02    0.15       0.0  T
   2   -438.1173876  0.187298E-02  0.571E-02    0.16       1.0  T
   3   -438.1165080  0.879626E-03  0.612E-02    0.14       1.0  T
   4   -438.1069322  0.957579E-02  0.124E-01    0.16       1.0  T
   5   -438.1175029 -0.105706E-01  0.517E-02    0.14       1.0  T
   6   -438.1191166 -0.161374E-02  0.181E-02    0.15       1.0  T
   7   -438.1191786 -0.619858E-04  0.148E-02    0.15       1.0  T
   8   -438.1192664 -0.878387E-04  0.681E-03    0.15       1.0  T
   9   -438.1192889 -0.224257E-04  0.361E-03    0.15       1.9  T
  10   -438.1192911 -0.227772E-05  0.258E-03    0.15       2.6  T
  11   -438.1192921 -0.100655E-05  0.187E-03    0.16       3.6  T
  12   -438.1192937 -0.154407E-05  0.849E-04    0.15       7.9  T
  13   -438.1192941 -0.440287E-06  0.275E-04    0.15      24.4  T
  14   -438.1192942 -0.305668E-07  0.136E-04    0.15      49.4  T
     SCC iter.                  ...        0 min,  2.914 sec
     gradient                   ...        0 min,  0.222 sec
 * total energy  :  -433.1594673 Eh     change       -0.1667320E-03 Eh
   gradient norm :     0.0053097 Eh/α   predicted    -0.1204125E-03 ( -27.78%)
   displ. norm   :     0.5293513 α      lambda       -0.2224468E-03
   maximum displ.:     0.2235589 α      in ANC's #3, #1, #8, ...

........................................................................
.............................. CYCLE   27 ..............................
........................................................................

 iter      E             dE          RMSdq      gap      omega  full diag
   1   -438.1189787 -0.438119E+03  0.310E-02    0.15       0.0  T
   2   -438.1170734  0.190532E-02  0.565E-02    0.17       1.0  T
   3   -438.1150176  0.205577E-02  0.717E-02    0.13       1.0  T
   4   -438.1049099  0.101077E-01  0.134E-01    0.15       1.0  T
   5   -438.1178982 -0.129882E-01  0.412E-02    0.15       1.0  T
   6   -438.1188202 -0.921986E-03  0.185E-02    0.15       1.0  T
   7   -438.1189421 -0.121943E-03  0.116E-02    0.15       1.0  T
   8   -438.1189861 -0.439812E-04  0.628E-03    0.15       1.1  T
   9   -438.1189987 -0.126468E-04  0.414E-03    0.15       1.6  T
  10   -438.1190043 -0.559803E-05  0.244E-03    0.15       2.7  T
  11   -438.1190051 -0.774872E-06  0.185E-03    0.15       3.6  T
  12   -438.1190067 -0.156043E-05  0.763E-04    0.15       8.8  T
  13   -438.1190070 -0.356858E-06  0.234E-04    0.15      28.6  T
  14   -438.1190070 -0.987859E-08  0.154E-04    0.15      43.7  T
     SCC iter.                  ...        0 min,  2.767 sec
     gradient                   ...        0 min,  0.235 sec
 * total energy  :  -433.1596597 Eh     change       -0.1923660E-03 Eh
   gradient norm :     0.0057128 Eh/α   predicted    -0.1423958E-03 ( -25.98%)
   displ. norm   :     0.5909345 α      lambda       -0.2619413E-03
   maximum displ.:     0.2551759 α      in ANC's #3, #1, #8, ...

........................................................................
.............................. CYCLE   28 ..............................
........................................................................

 iter      E             dE          RMSdq      gap      omega  full diag
   1   -438.1189329 -0.438119E+03  0.316E-02    0.15       0.0  T
   2   -438.1173881  0.154480E-02  0.507E-02    0.16       1.0  T
   3   -438.1133927  0.399540E-02  0.840E-02    0.13       1.0  T
   4   -438.1063100  0.708265E-02  0.127E-01    0.16       1.0  T
   5   -438.1181578 -0.118478E-01  0.350E-02    0.15       1.0  T
   6   -438.1186747 -0.516883E-03  0.224E-02    0.15       1.0  T
   7   -438.1188939 -0.219239E-03  0.109E-02    0.15       1.0  T
   8   -438.1189354 -0.414537E-04  0.698E-03    0.15       1.0  T
   9   -438.1189524 -0.170063E-04  0.299E-03    0.15       2.2  T
  10   -438.1189513  0.110473E-05  0.296E-03    0.15       2.3  T
  11   -438.1189550 -0.369381E-05  0.120E-03    0.15       5.6  T
  12   -438.1189556 -0.671326E-06  0.381E-04    0.15      17.6  T
  13   -438.1189557 -0.325912E-07  0.250E-04    0.15      26.9  T
     SCC iter.                  ...        0 min,  2.321 sec
     gradient                   ...        0 min,  0.218 sec
 * total energy  :  -433.1598951 Eh     change       -0.2353722E-03 Eh
   gradient norm :     0.0064452 Eh/α   predicted    -0.1767330E-03 ( -24.91%)
   displ. norm   :     0.6563882 α      lambda       -0.3316124E-03
   maximum displ.:     0.2887887 α      in ANC's #3, #1, #7, ...

........................................................................
.............................. CYCLE   29 ..............................
........................................................................

 iter      E             dE          RMSdq      gap      omega  full diag
   1   -438.1193605 -0.438119E+03  0.334E-02    0.15       0.0  T
   2   -438.1181188  0.124166E-02  0.455E-02    0.16       1.0  T
   3   -438.1102859  0.783288E-02  0.106E-01    0.12       1.0  T
   4   -438.1107750 -0.489034E-03  0.106E-01    0.17       1.0  T
   5   -438.1185099 -0.773490E-02  0.363E-02    0.15       1.0  T
   6   -438.1189781 -0.468207E-03  0.266E-02    0.16       1.0  T
   7   -438.1192755 -0.297462E-03  0.142E-02    0.15       1.0  T
   8   -438.1193393 -0.637486E-04  0.970E-03    0.15       1.0  T
   9   -438.1193793 -0.400046E-04  0.264E-03    0.16       2.5  T
  10   -438.1193800 -0.672265E-06  0.202E-03    0.15       3.3  T
  11   -438.1193818 -0.181798E-05  0.102E-03    0.16       6.6  T
  12   -438.1193817  0.455325E-07  0.101E-03    0.16       6.7  T
  13   -438.1193822 -0.442771E-06  0.290E-04    0.16      23.1  T
  14   -438.1193822 -0.224363E-07  0.158E-04    0.16      42.5  T
     SCC iter.                  ...        0 min,  2.572 sec
     gradient                   ...        0 min,  0.221 sec
 * total energy  :  -433.1601987 Eh     change       -0.3036453E-03 Eh
   gradient norm :     0.0068252 Eh/α   predicted    -0.2372430E-03 ( -21.87%)
   displ. norm   :     0.7146825 α      lambda       -0.4103789E-03
   maximum displ.:     0.3184805 α      in ANC's #3, #1, #7, ...

........................................................................
.............................. CYCLE   30 ..............................
........................................................................

 iter      E             dE          RMSdq      gap      omega  full diag
   1   -438.1201354 -0.438120E+03  0.363E-02    0.16       0.0  T
   2   -438.1190254  0.110999E-02  0.431E-02    0.17       1.0  T
   3   -438.1060255  0.129999E-01  0.130E-01    0.11       1.0  T
   4   -438.1151762 -0.915076E-02  0.831E-02    0.18       1.0  T
   5   -438.1188216 -0.364541E-02  0.447E-02    0.16       1.0  T
   6   -438.1197913 -0.969684E-03  0.249E-02    0.16       1.0  T
   7   -438.1200847 -0.293372E-03  0.120E-02    0.15       1.0  T
   8   -438.1200422  0.425026E-04  0.149E-02    0.16       1.0  T
   9   -438.1201452 -0.103003E-03  0.480E-03    0.16       1.4  T
  10   -438.1201563 -0.111444E-04  0.242E-03    0.16       2.8  T
  11   -438.1201567 -0.358305E-06  0.244E-03    0.16       2.8  T
  12   -438.1201590 -0.230084E-05  0.852E-04    0.16       7.9  T
  13   -438.1201593 -0.286724E-06  0.269E-04    0.16      24.9  T
  14   -438.1201593 -0.729682E-08  0.186E-04    0.16      36.0  T
     SCC iter.                  ...        0 min,  2.248 sec
     gradient                   ...        0 min,  0.217 sec
 * total energy  :  -433.1605750 Eh     change       -0.3762838E-03 Eh
   gradient norm :     0.0067763 Eh/α   predicted    -0.3099949E-03 ( -17.62%)
   displ. norm   :     0.7568645 α      lambda       -0.4675398E-03
   maximum displ.:     0.3396855 α      in ANC's #3, #1, #7, ...

........................................................................
.............................. CYCLE   31 ..............................
........................................................................

 iter      E             dE          RMSdq      gap      omega  full diag
   1   -438.1208007 -0.438121E+03  0.382E-02    0.16       0.0  T
   2   -438.1193534  0.144729E-02  0.470E-02    0.17       1.0  T
   3   -438.1046234  0.147300E-01  0.137E-01    0.11       1.0  T
   4   -438.1174353 -0.128119E-01  0.715E-02    0.19       1.0  T
   5   -438.1193325 -0.189716E-02  0.477E-02    0.16       1.0  T
   6   -438.1205870 -0.125450E-02  0.198E-02    0.16       1.0  T
   7   -438.1207223 -0.135289E-03  0.139E-02    0.16       1.0  T
   8   -438.1207371 -0.148255E-04  0.126E-02    0.16       1.0  T
   9   -438.1207939 -0.568007E-04  0.710E-03    0.16       1.0  T
  10   -438.1208221 -0.282309E-04  0.285E-03    0.16       2.4  T
  11   -438.1208215  0.621389E-06  0.286E-03    0.16       2.3  T
  12   -438.1208254 -0.394330E-05  0.858E-04    0.16       7.8  T
  13   -438.1208257 -0.267735E-06  0.301E-04    0.16      22.3  T
  14   -438.1208257 -0.134085E-07  0.197E-04    0.16      34.1  T
     SCC iter.                  ...        0 min,  2.266 sec
     gradient                   ...        0 min,  0.222 sec
 * total energy  :  -433.1610051 Eh     change       -0.4300575E-03 Eh
   gradient norm :     0.0071855 Eh/α   predicted    -0.3676867E-03 ( -14.50%)
   displ. norm   :     0.7840152 α      lambda       -0.5090220E-03
   maximum displ.:     0.3533989 α      in ANC's #3, #1, #7, ...

........................................................................
.............................. CYCLE   32 ..............................
........................................................................

 iter      E             dE          RMSdq      gap      omega  full diag
   1   -438.1212259 -0.438121E+03  0.380E-02    0.16       0.0  T
   2   -438.1189917  0.223414E-02  0.555E-02    0.18       1.0  T
   3   -438.1081156  0.108762E-01  0.123E-01    0.12       1.0  T
   4   -438.1170617 -0.894608E-02  0.789E-02    0.20       1.0  T
   5   -438.1202568 -0.319513E-02  0.403E-02    0.17       1.0  T
   6   -438.1210956 -0.838851E-03  0.169E-02    0.17       1.0  T
   7   -438.1211282 -0.325351E-04  0.159E-02    0.16       1.0  T
   8   -438.1211850 -0.568659E-04  0.105E-02    0.16       1.0  T
   9   -438.1212329 -0.478310E-04  0.553E-03    0.16       1.2  T
  10   -438.1212482 -0.153010E-04  0.288E-03    0.16       2.3  T
  11   -438.1212491 -0.942752E-06  0.267E-03    0.16       2.5  T
  12   -438.1212526 -0.351928E-05  0.962E-04    0.16       7.0  T
  13   -438.1212530 -0.334036E-06  0.337E-04    0.16      19.9  T
  14   -438.1212530 -0.204404E-07  0.221E-04    0.16      30.4  T
     SCC iter.                  ...        0 min,  2.284 sec
     gradient                   ...        0 min,  0.219 sec
 * total energy  :  -433.1614793 Eh     change       -0.4742377E-03 Eh
   gradient norm :     0.0082927 Eh/α   predicted    -0.4109667E-03 ( -13.34%)
   displ. norm   :     0.8004308 α      lambda       -0.5624666E-03
   maximum displ.:     0.3617337 α      in ANC's #3, #1, #7, ...

........................................................................
.............................. CYCLE   33 ..............................
........................................................................

 iter      E             dE          RMSdq      gap      omega  full diag
   1   -438.1216373 -0.438122E+03  0.368E-02    0.17       0.0  T
   2   -438.1180283  0.360905E-02  0.686E-02    0.18       1.0  T
   3   -438.1129325  0.509580E-02  0.101E-01    0.13       1.0  T
   4   -438.1156265 -0.269408E-02  0.946E-02    0.19       1.0  T
   5   -438.1202464 -0.461990E-02  0.487E-02    0.17       1.0  T
   6   -438.1214968 -0.125036E-02  0.177E-02    0.17       1.0  T
   7   -438.1216088 -0.111995E-03  0.121E-02    0.16       1.0  T
   8   -438.1215916  0.172361E-04  0.124E-02    0.16       1.0  T
   9   -438.1216480 -0.564313E-04  0.594E-03    0.17       1.1  T
  10   -438.1216720 -0.239964E-04  0.279E-03    0.17       2.4  T
  11   -438.1216711  0.840535E-06  0.253E-03    0.17       2.7  T
  12   -438.1216750 -0.382179E-05  0.790E-04    0.17       8.5  T
  13   -438.1216751 -0.166775E-06  0.336E-04    0.17      20.0  T
  14   -438.1216751 -0.211988E-07  0.232E-04    0.17      29.0  T
     SCC iter.                  ...        0 min,  2.266 sec
     gradient                   ...        0 min,  0.219 sec
 * total energy  :  -433.1620082 Eh     change       -0.5289099E-03 Eh
   gradient norm :     0.0091231 Eh/α   predicted    -0.4614440E-03 ( -12.76%)
   displ. norm   :     0.8143395 α      lambda       -0.6300966E-03
   maximum displ.:     0.3680075 α      in ANC's #3, #1, #7, ...

........................................................................
.............................. CYCLE   34 ..............................
........................................................................

 iter      E             dE          RMSdq      gap      omega  full diag
   1   -438.1220991 -0.438122E+03  0.360E-02    0.17       0.0  T
   2   -438.1167835  0.531557E-02  0.826E-02    0.18       1.0  T
   3   -438.1156994  0.108412E-02  0.867E-02    0.14       1.0  T
   4   -438.1167877 -0.108834E-02  0.905E-02    0.19       1.0  T
   5   -438.1197733 -0.298561E-02  0.621E-02    0.17       1.0  T
   6   -438.1219675 -0.219417E-02  0.177E-02    0.17       1.0  T
   7   -438.1220436 -0.761331E-04  0.155E-02    0.16       1.0  T
   8   -438.1220664 -0.227693E-04  0.125E-02    0.16       1.0  T
   9   -438.1221254 -0.589996E-04  0.677E-03    0.17       1.0  T
  10   -438.1221546 -0.291602E-04  0.257E-03    0.17       2.6  T
  11   -438.1221526  0.200597E-05  0.244E-03    0.17       2.7  T
  12   -438.1221569 -0.435225E-05  0.800E-04    0.17       8.4  T
  13   -438.1221571 -0.168968E-06  0.355E-04    0.17      18.9  T
  14   -438.1221571 -0.303896E-07  0.241E-04    0.17      27.8  T
     SCC iter.                  ...        0 min,  2.338 sec
     gradient                   ...        0 min,  0.224 sec
 * total energy  :  -433.1625994 Eh     change       -0.5912059E-03 Eh
   gradient norm :     0.0089871 Eh/α   predicted    -0.5239717E-03 ( -11.37%)
   displ. norm   :     0.8294352 α      lambda       -0.6852930E-03
   maximum displ.:     0.3742093 α      in ANC's #3, #1, #7, ...

........................................................................
.............................. CYCLE   35 ..............................
........................................................................

 iter      E             dE          RMSdq      gap      omega  full diag
   1   -438.1224762 -0.438122E+03  0.363E-02    0.16       0.0  T
   2   -438.1162342  0.624201E-02  0.896E-02    0.17       1.0  T
   3   -438.1164790 -0.244822E-03  0.844E-02    0.14       1.0  T
   4   -438.1179618 -0.148278E-02  0.845E-02    0.18       1.0  T
   5   -438.1198749 -0.191308E-02  0.651E-02    0.16       1.0  T
   6   -438.1223296 -0.245468E-02  0.193E-02    0.17       1.0  T
   7   -438.1224309 -0.101359E-03  0.153E-02    0.16       1.0  T
   8   -438.1224935 -0.625705E-04  0.896E-03    0.16       1.0  T
   9   -438.1225204 -0.269228E-04  0.733E-03    0.17       1.0  T
  10   -438.1225448 -0.243809E-04  0.262E-03    0.17       2.6  T
  11   -438.1225463 -0.149242E-05  0.166E-03    0.17       4.0  T
  12   -438.1225479 -0.157820E-05  0.802E-04    0.17       8.4  T
  13   -438.1225482 -0.282283E-06  0.325E-04    0.17      20.7  T
  14   -438.1225482  0.280988E-08  0.260E-04    0.17      25.9  T
     SCC iter.                  ...        0 min,  2.296 sec
     gradient                   ...        0 min,  0.219 sec
 * total energy  :  -433.1632394 Eh     change       -0.6399846E-03 Eh
   gradient norm :     0.0082863 Eh/α   predicted    -0.5783739E-03 (  -9.63%)
   displ. norm   :     0.8426413 α      lambda       -0.7165835E-03
   maximum displ.:     0.3791958 α      in ANC's #3, #1, #7, ...

........................................................................
.............................. CYCLE   36 ..............................
........................................................................

 iter      E             dE          RMSdq      gap      omega  full diag
   1   -438.1228837 -0.438123E+03  0.369E-02    0.16       0.0  T
   2   -438.1171080  0.577572E-02  0.860E-02    0.17       1.0  T
   3   -438.1163342  0.773821E-03  0.880E-02    0.13       1.0  T
   4   -438.1183808 -0.204663E-02  0.850E-02    0.18       1.0  T
   5   -438.1206897 -0.230889E-02  0.594E-02    0.16       1.0  T
   6   -438.1226961 -0.200643E-02  0.212E-02    0.17       1.0  T
   7   -438.1228532 -0.157036E-03  0.134E-02    0.16       1.0  T
   8   -438.1228866 -0.334418E-04  0.102E-02    0.16       1.0  T
   9   -438.1229237 -0.371171E-04  0.748E-03    0.16       1.0  T
  10   -438.1229468 -0.230141E-04  0.271E-03    0.16       2.5  T
  11   -438.1229487 -0.197296E-05  0.126E-03    0.16       5.3  T
  12   -438.1229489 -0.174871E-06  0.767E-04    0.16       8.8  T
  13   -438.1229492 -0.328690E-06  0.366E-04    0.16      18.4  T
     SCC iter.                  ...        0 min,  2.229 sec
     gradient                   ...        0 min,  0.219 sec
 * total energy  :  -433.1639088 Eh     change       -0.6693904E-03 Eh
   gradient norm :     0.0081922 Eh/α   predicted    -0.6126980E-03 (  -8.47%)
   displ. norm   :     0.8501108 α      lambda       -0.7365044E-03
   maximum displ.:     0.3810703 α      in ANC's #3, #1, #7, ...

........................................................................
.............................. CYCLE   37 ..............................
........................................................................

 iter      E             dE          RMSdq      gap      omega  full diag
   1   -438.1234974 -0.438123E+03  0.370E-02    0.16       0.0  T
   2   -438.1189538  0.454366E-02  0.759E-02    0.17       1.0  T
   3   -438.1157788  0.317501E-02  0.950E-02    0.13       1.0  T
   4   -438.1200036 -0.422483E-02  0.765E-02    0.17       1.0  T
   5   -438.1220742 -0.207063E-02  0.477E-02    0.16       1.0  T
   6   -438.1231837 -0.110950E-02  0.253E-02    0.16       1.0  T
   7   -438.1234744 -0.290693E-03  0.118E-02    0.16       1.0  T
   8   -438.1234669  0.747557E-05  0.125E-02    0.16       1.0  T
   9   -438.1235333 -0.663375E-04  0.537E-03    0.16       1.3  T
  10   -438.1235419 -0.858251E-05  0.335E-03    0.16       2.0  T
  11   -438.1235454 -0.353351E-05  0.141E-03    0.16       4.7  T
  12   -438.1235449  0.500104E-06  0.128E-03    0.16       5.3  T
  13   -438.1235461 -0.118243E-05  0.267E-04    0.16      25.2  T
  14   -438.1235461  0.293501E-07  0.266E-04    0.16      25.3  T
  15   -438.1235461 -0.485357E-07  0.101E-04    0.16      66.6  T
     SCC iter.                  ...        0 min,  2.478 sec
     gradient                   ...        0 min,  0.227 sec
 * total energy  :  -433.1645970 Eh     change       -0.6882176E-03 Eh
   gradient norm :     0.0087594 Eh/α   predicted    -0.6343850E-03 (  -7.82%)
   displ. norm   :     0.8504317 α      lambda       -0.7455353E-03
   maximum displ.:     0.3849587 α      in ANC's #1, #3, #7, ...

........................................................................
.............................. CYCLE   38 ..............................
........................................................................

 iter      E             dE          RMSdq      gap      omega  full diag
   1   -438.1244293 -0.438124E+03  0.361E-02    0.15       0.0  T
   2   -438.1220351  0.239418E-02  0.563E-02    0.17       1.0  T
   3   -438.1132025  0.883263E-02  0.114E-01    0.11       1.0  T
   4   -438.1232779 -0.100754E-01  0.477E-02    0.16       1.0  T
   5   -438.1234908 -0.212934E-03  0.391E-02    0.15       1.0  T
   6   -438.1239929 -0.502137E-03  0.283E-02    0.16       1.0  T
   7   -438.1243894 -0.396427E-03  0.120E-02    0.16       1.0  T
   8   -438.1243968 -0.741758E-05  0.115E-02    0.16       1.0  T
   9   -438.1244541 -0.572893E-04  0.402E-03    0.16       1.7  T
  10   -438.1244547 -0.608243E-06  0.362E-03    0.16       1.9  T
  11   -438.1244602 -0.549723E-05  0.157E-03    0.16       4.3  T
  12   -438.1244606 -0.440175E-06  0.108E-03    0.16       6.2  T
  13   -438.1244614 -0.781059E-06  0.233E-04    0.16      28.8  T
  14   -438.1244614  0.171989E-07  0.216E-04    0.16      31.1  T
     SCC iter.                  ...        0 min,  2.275 sec
     gradient                   ...        0 min,  0.223 sec
 * total energy  :  -433.1652878 Eh     change       -0.6907830E-03 Eh
   gradient norm :     0.0088001 Eh/α   predicted    -0.6423687E-03 (  -7.01%)
   displ. norm   :     0.8456554 α      lambda       -0.7234943E-03
   maximum displ.:     0.3901598 α      in ANC's #1, #3, #7, ...

........................................................................
.............................. CYCLE   39 ..............................
........................................................................

 iter      E             dE          RMSdq      gap      omega  full diag
   1   -438.1255031 -0.438126E+03  0.346E-02    0.15       0.0  T
   2   -438.1237822  0.172092E-02  0.491E-02    0.17       1.0  T
   3   -438.1136780  0.101041E-01  0.116E-01    0.11       1.0  T
   4   -438.1243092 -0.106311E-01  0.489E-02    0.16       1.0  T
   5   -438.1254190 -0.110987E-02  0.159E-02    0.16       1.0  T
   6   -438.1252422  0.176871E-03  0.225E-02    0.16       1.0  T
   7   -438.1253750 -0.132883E-03  0.157E-02    0.15       1.0  T
   8   -438.1254536 -0.785647E-04  0.116E-02    0.15       1.0  T
   9   -438.1255256 -0.720250E-04  0.414E-03    0.16       1.6  T
  10   -438.1255272 -0.161090E-05  0.381E-03    0.16       1.8  T
  11   -438.1255334 -0.613212E-05  0.115E-03    0.16       5.8  T
  12   -438.1255339 -0.546647E-06  0.474E-04    0.16      14.2  T
  13   -438.1255340 -0.514922E-07  0.291E-04    0.16      23.0  T
     SCC iter.                  ...        0 min,  2.106 sec
     gradient                   ...        0 min,  0.220 sec
 * total energy  :  -433.1659496 Eh     change       -0.6618305E-03 Eh
   gradient norm :     0.0075116 Eh/α   predicted    -0.6204487E-03 (  -6.25%)
   displ. norm   :     0.8261791 α      lambda       -0.6629351E-03
   maximum displ.:     0.3910976 α      in ANC's #1, #3, #7, ...

........................................................................
.............................. CYCLE   40 ..............................
........................................................................

 iter      E             dE          RMSdq      gap      omega  full diag
   1   -438.1268612 -0.438127E+03  0.337E-02    0.16       0.0  T
   2   -438.1254112  0.145000E-02  0.460E-02    0.17       1.0  T
   3   -438.1153872  0.100240E-01  0.115E-01    0.11       1.0  T
   4   -438.1254413 -0.100541E-01  0.519E-02    0.17       1.0  T
   5   -438.1267208 -0.127954E-02  0.178E-02    0.16       1.0  T
   6   -438.1259226  0.798228E-03  0.393E-02    0.15       1.0  T
   7   -438.1267621 -0.839468E-03  0.149E-02    0.15       1.0  T
   8   -438.1268254 -0.633621E-04  0.114E-02    0.15       1.0  T
   9   -438.1268723 -0.469197E-04  0.561E-03    0.16       1.2  T
  10   -438.1268881 -0.157363E-04  0.257E-03    0.16       2.6  T
  11   -438.1268881  0.112507E-07  0.211E-03    0.16       3.2  T
  12   -438.1268911 -0.304747E-05  0.619E-04    0.16      10.8  T
  13   -438.1268913 -0.161104E-06  0.205E-04    0.16      32.7  T
  14   -438.1268913  0.141662E-07  0.195E-04    0.16      34.5  T
     SCC iter.                  ...        0 min,  2.217 sec
     gradient                   ...        0 min,  0.221 sec
 * total energy  :  -433.1665449 Eh     change       -0.5952781E-03 Eh
   gradient norm :     0.0056086 Eh/α   predicted    -0.5577171E-03 (  -6.31%)
   displ. norm   :     0.7809068 α      lambda       -0.5737670E-03
   maximum displ.:     0.3826672 α      in ANC's #1, #3, #7, ...

........................................................................
.............................. CYCLE   41 ..............................
........................................................................

 iter      E             dE          RMSdq      gap      omega  full diag
   1   -438.1283656 -0.438128E+03  0.333E-02    0.16       0.0  T
   2   -438.1259016  0.246403E-02  0.569E-02    0.17       1.0  T
   3   -438.1197959  0.610560E-02  0.995E-02    0.12       1.0  T
[...]
   200   1 H    0.992 --   183 C    0.959
   201   1 H    0.995 --   185 C    0.975
   202   1 H    0.998 --   185 C    0.987
   203   1 H    0.998 --   185 C    0.981
   204   1 H    0.994 --   186 C    0.955
   205   1 H    0.993 --   186 C    0.963
   206   1 H    0.998 --   177 C    0.978
   207   1 H    0.997 --   177 C    0.977
   208   1 H    0.995 --   177 C    0.975
   209   1 H    0.997 --   174 C    0.975
   210   1 H    0.996 --   174 C    0.971
   211   1 H    0.999 --   174 C    0.978
   212   1 H    0.998 --   180 C    0.981
   213   1 H    0.992 --   180 C    0.966
   214   1 H    0.998 --   180 C    0.980
   215   1 H    0.995 --   151 C    0.965
   216   1 H    0.993 --   153 C    0.958
   217   1 H    0.990 --   157 C    0.958
   218   1 H    0.992 --   141 C    0.957
   219   1 H    0.990 --   132 C    0.957
   220   1 H    0.995 --   126 C    0.964
   221   1 H    0.993 --   128 C    0.958
   222   1 H    0.990 --   116 C    0.955
 ---------------------------------------------------------------------------

Topologies differ in total number of bonds
Writing corrected topology to xtbtopo.mol

molecular dipole:
                 x           y           z       tot (Debye)
 q only:        1.472       0.971     -11.265
   full:        1.079       1.075     -12.752      32.644
molecular quadrupole (traceless):
                xx          xy          yy          xz          yz          zz
 q only:       21.412    -104.307      73.424      16.150      16.547     -94.836
  q+dip:        3.891    -116.295      98.689      32.505      17.091    -102.580
   full:      -11.220    -120.127      89.845      33.109      14.062     -78.626

           -------------------------------------------------
          |                Geometry Summary                 |
           -------------------------------------------------

      molecular mass/u    :     2248.0656617
   center of mass at/Å    :       -0.7669239       0.3034544       4.8297140
  moments of inertia/u·Å² :        0.5614150E+05   0.7147358E+05   0.7995898E+05
rotational constants/cm⁻¹ :        0.3002704E-03   0.2358582E-03   0.2108285E-03

 * 208 selected distances

     #   Z          #   Z                                           value/Å
     1   6 C        2   6 C                                       1.4029554
     2   6 C        3   6 C                                       1.3945504
     3   6 C        4   6 C                                       1.4249970
     4   6 C        5   6 C                                       1.4310046
     1   6 C        6   6 C                                       1.4105372
     5   6 C        6   6 C                                       1.3730672
     7   6 C        8   6 C                                       1.4064001
     4   6 C       10   7 N                                       1.3297760
     9   6 C       10   7 N                                       1.3400270
    12   6 C       13   7 N                                       1.3263805
     8   6 C       14   6 C                                       1.4331874
    13   7 N       14   6 C                                       1.3374938
    14   6 C       15   6 C                                       1.4057855
    15   6 C       16   6 C                                       1.3807835
     9   6 C       17   6 C                                       1.4087206
    16   6 C       17   6 C                                       1.3787664
    11   6 C       18   6 C                                       1.4154963
    18   6 C       19   6 C                                       1.4273096
    19   6 C       20   6 C                                       1.4033755
    12   6 C       21   6 C                                       1.4289386
    20   6 C       21   6 C                                       1.3669559
     2   6 C       22   8 O                                       1.3120023
    26   6 C       27   6 C                                       1.4058885
    27   6 C       28   6 C                                       1.3938119
    28   6 C       29   6 C                                       1.4261822
    29   6 C       30   6 C                                       1.4308700
    26   6 C       31   6 C                                       1.4056560
    30   6 C       31   6 C                                       1.3729618
    32   6 C       33   6 C                                       1.4067445
    29   6 C       35   7 N                                       1.3285908
    34   6 C       35   7 N                                       1.3402363
    37   6 C       38   7 N                                       1.3268618
    33   6 C       39   6 C                                       1.4335512
    38   7 N       39   6 C                                       1.3364391
    39   6 C       40   6 C                                       1.4064191
    40   6 C       41   6 C                                       1.3800362
    34   6 C       42   6 C                                       1.4074523
    41   6 C       42   6 C                                       1.3779644
    36   6 C       43   6 C                                       1.4171913
    43   6 C       44   6 C                                       1.4282026
    44   6 C       45   6 C                                       1.4009202
    37   6 C       46   6 C                                       1.4257852
    45   6 C       46   6 C                                       1.3685186
    27   6 C       47   8 O                                       1.3104196
    22   8 O       51   5 B                                       1.4328081
    47   8 O       51   5 B                                       1.4420034
    25  16 S       52   8 O                                       1.4480248
    53   8 O       54   6 C                                       1.4105592
    55   8 O       56   6 C                                       1.4079557
    24  16 S       57   8 O                                       1.4558672
    48  16 S       58   8 O                                       1.4517661
    59   8 O       60   6 C                                       1.4041985
    50  16 S       61   8 O                                       1.4494102
    62   8 O       63   6 C                                       1.4031798
    49  16 S       64   8 O                                       1.4558438
    65   8 O       66   6 C                                       1.4078342
    23  16 S       67   8 O                                       1.4535037
    68   8 O       69   6 C                                       1.4058795
    18   6 C       70   7 N                                       1.3800036
    51   5 B       70   7 N                                       1.5283582
    70   7 N       72   6 C                                       1.4531672
    71   6 C       72   6 C                                       1.5310570
    43   6 C       73   7 N                                       1.3798514
    51   5 B       73   7 N                                       1.5286424
    73   7 N       75   6 C                                       1.4533679
    74   6 C       75   6 C                                       1.5315158
    60   6 C       76   1 H                                       1.0905770
    60   6 C       77   1 H                                       1.0940278
    60   6 C       78   1 H                                       1.0944359
    56   6 C       79   1 H                                       1.0900316
    56   6 C       80   1 H                                       1.0937017
    56   6 C       81   1 H                                       1.0942432
    54   6 C       82   1 H                                       1.0888414
    54   6 C       83   1 H                                       1.0925328
    54   6 C       84   1 H                                       1.0944561
    71   6 C       85   1 H                                       1.0870174
    71   6 C       86   1 H                                       1.0877562
    71   6 C       87   1 H                                       1.0870559
    72   6 C       88   1 H                                       1.0955275
    72   6 C       89   1 H                                       1.0885218
    74   6 C       90   1 H                                       1.0873206
    74   6 C       91   1 H                                       1.0880792
    74   6 C       92   1 H                                       1.0872186
    75   6 C       93   1 H                                       1.0932939
    75   6 C       94   1 H                                       1.0884440
    66   6 C       95   1 H                                       1.0948016
    66   6 C       96   1 H                                       1.0934208
    66   6 C       97   1 H                                       1.0898632
    63   6 C       98   1 H                                       1.0893464
    63   6 C       99   1 H                                       1.0953544
    63   6 C      100   1 H                                       1.0948041
    69   6 C      101   1 H                                       1.0931336
    69   6 C      102   1 H                                       1.0899799
    69   6 C      103   1 H                                       1.0937852
    40   6 C      104   1 H                                       1.0781880
    42   6 C      105   1 H                                       1.0789596
    46   6 C      106   1 H                                       1.0785815
    30   6 C      107   1 H                                       1.0789050
    21   6 C      108   1 H                                       1.0793258
    15   6 C      109   1 H                                       1.0781342
    17   6 C      110   1 H                                       1.0784575
     5   6 C      111   1 H                                       1.0796572
   112   6 C      113   6 C                                       1.4114242
   113   6 C      114   6 C                                       1.3985740
   114   6 C      115   6 C                                       1.4283979
   115   6 C      116   6 C                                       1.4289972
   112   6 C      117   6 C                                       1.4112812
   116   6 C      117   6 C                                       1.3694450
   118   6 C      119   6 C                                       1.4051545
   119   6 C      120   6 C                                       1.4374770
   115   6 C      121   7 N                                       1.3271428
   120   6 C      121   7 N                                       1.3389029
   122   6 C      123   6 C                                       1.4348055
   123   6 C      124   7 N                                       1.3245889
   119   6 C      125   6 C                                       1.4348674
   124   7 N      125   6 C                                       1.3403161
   125   6 C      126   6 C                                       1.4052871
   126   6 C      127   6 C                                       1.3807497
   120   6 C      128   6 C                                       1.4076431
   127   6 C      128   6 C                                       1.3767168
   122   6 C      129   6 C                                       1.4071542
   129   6 C      130   6 C                                       1.4206900
   130   6 C      131   6 C                                       1.4044327
   123   6 C      132   6 C                                       1.4311751
   131   6 C      132   6 C                                       1.3699049
   113   6 C      133   8 O                                       1.3165096
   137   6 C      138   6 C                                       1.4117809
   138   6 C      139   6 C                                       1.3948879
   139   6 C      140   6 C                                       1.4261269
   140   6 C      141   6 C                                       1.4294512
   137   6 C      142   6 C                                       1.4135734
   141   6 C      142   6 C                                       1.3727554
   143   6 C      144   6 C                                       1.4062671
   144   6 C      145   6 C                                       1.4386307
   140   6 C      146   7 N                                       1.3273067
   145   6 C      146   7 N                                       1.3388213
   147   6 C      148   6 C                                       1.4355743
   148   6 C      149   7 N                                       1.3254596
   144   6 C      150   6 C                                       1.4341956
   149   7 N      150   6 C                                       1.3380988
   150   6 C      151   6 C                                       1.4063171
   151   6 C      152   6 C                                       1.3805868
   145   6 C      153   6 C                                       1.4070598
   152   6 C      153   6 C                                       1.3778760
   147   6 C      154   6 C                                       1.4127712
   154   6 C      155   6 C                                       1.4265126
   155   6 C      156   6 C                                       1.4031790
   148   6 C      157   6 C                                       1.4280924
   156   6 C      157   6 C                                       1.3696454
   138   6 C      158   8 O                                       1.3183506
   133   8 O      162   5 B                                       1.4316729
   158   8 O      162   5 B                                       1.4273011
   136  16 S      163   8 O                                       1.4517114
   164   8 O      165   6 C                                       1.4013388
   166   8 O      167   6 C                                       1.4039348
   135  16 S      168   8 O                                       1.4547076
   159  16 S      169   8 O                                       1.4417993
   170   8 O      171   6 C                                       1.4131223
   161  16 S      172   8 O                                       1.4490468
   173   8 O      174   6 C                                       1.4047679
   160  16 S      175   8 O                                       1.4509662
   176   8 O      177   6 C                                       1.4067973
   134  16 S      178   8 O                                       1.4540337
   179   8 O      180   6 C                                       1.4094966
   129   6 C      181   7 N                                       1.3719490
   162   5 B      181   7 N                                       1.5263411
   181   7 N      183   6 C                                       1.4434189
   182   6 C      183   6 C                                       1.5276760
   154   6 C      184   7 N                                       1.3723744
   162   5 B      184   7 N                                       1.5402312 (max)
   184   7 N      186   6 C                                       1.4540304
   185   6 C      186   6 C                                       1.5330593
   171   6 C      187   1 H                                       1.0924419
   171   6 C      188   1 H                                       1.0916282
   171   6 C      189   1 H                                       1.0948069
   167   6 C      190   1 H                                       1.0897831
   167   6 C      191   1 H                                       1.0957585
   167   6 C      192   1 H                                       1.0938945
   165   6 C      193   1 H                                       1.0898742
   165   6 C      194   1 H                                       1.0952627
   165   6 C      195   1 H                                       1.0951763
   182   6 C      196   1 H                                       1.0821241
   182   6 C      197   1 H                                       1.0887897
   182   6 C      198   1 H                                       1.0885306
   183   6 C      199   1 H                                       1.0973844
   183   6 C      200   1 H                                       1.0857120
   185   6 C      201   1 H                                       1.0861465
   185   6 C      202   1 H                                       1.0882122
   185   6 C      203   1 H                                       1.0876754
   186   6 C      204   1 H                                       1.0920910
   186   6 C      205   1 H                                       1.0872876
   177   6 C      206   1 H                                       1.0949966
   177   6 C      207   1 H                                       1.0936205
   177   6 C      208   1 H                                       1.0898326
   174   6 C      209   1 H                                       1.0894850
   174   6 C      210   1 H                                       1.0952641
   174   6 C      211   1 H                                       1.0945946
   180   6 C      212   1 H                                       1.0933638
   180   6 C      213   1 H                                       1.0907653
   180   6 C      214   1 H                                       1.0934156
   151   6 C      215   1 H                                       1.0780906
   153   6 C      216   1 H                                       1.0790322
   157   6 C      217   1 H                                       1.0790522
   141   6 C      218   1 H                                       1.0765706 (min)
   132   6 C      219   1 H                                       1.0792097
   126   6 C      220   1 H                                       1.0783817
   128   6 C      221   1 H                                       1.0783650
   116   6 C      222   1 H                                       1.0801179

 * 7 distinct bonds (by element types)

   Z      Z             #   av. dist./Å        max./Å        min./Å
   1 H    6 C          72     1.0885350     1.0973844     1.0765706
   6 C    6 C          76     1.4137336     1.5330593     1.3669559
   5 B    7 N           4     1.5308932     1.5402312     1.5263411
   6 C    7 N          24     1.3597752     1.4540304     1.3245889
   5 B    8 O           4     1.4334464     1.4420034     1.4273011
   6 C    8 O          16     1.3835217     1.4131223     1.3104196
   8 O   16 S          12     1.4513901     1.4558672     1.4417993


optimized geometry written to: xtbopt.mol


           -------------------------------------------------
          | TOTAL ENERGY             -433.190084071850 Eh   |
          | GRADIENT NORM               0.000791907942 Eh/α |
Note: The following floating-point exceptions are signalling: IEEE_UNDERFLOW_FLAG
normal termination of xtb
          | HOMO-LUMO GAP               0.161473768412 eV   |
           -------------------------------------------------
########################################################################
[WARNING] Runtime exception occurred
-1- restart_readRestart: Number of electron missmatch in restart file.
########################################################################

------------------------------------------------------------------------
 * finished run on 2024/11/01 at 13:04:09.885     
------------------------------------------------------------------------
 total:
 * wall-time:     0 d,  0 h,  8 min, 14.302 sec
 *  cpu-time:     0 d,  0 h, 22 min, 38.108 sec
 * ratio c/w:     2.748 speedup
 SCF:
 * wall-time:     0 d,  0 h,  0 min,  8.351 sec
 *  cpu-time:     0 d,  0 h,  0 min, 33.067 sec
 * ratio c/w:     3.960 speedup
 ANC optimizer:
 * wall-time:     0 d,  0 h,  8 min,  5.845 sec
 *  cpu-time:     0 d,  0 h, 22 min,  4.914 sec
 * ratio c/w:     2.727 speedup

