      -----------------------------------------------------------      
     |                   =====================                   |     
     |                           x T B                           |     
     |                   =====================                   |     
     |                         S. Grimme                         |     
     |          Mulliken Center for Theoretical Chemistry        |     
     |                    University of Bonn                     |     
      -----------------------------------------------------------      

   * xtb version 6.6.1 (8d0f1dd) compiled by 'runner@Mac-1690902418499.local' on 2023-08-01

   xtb is free software: you can redistribute it and/or modify it under
   the terms of the GNU Lesser General Public License as published by
   the Free Software Foundation, either version 3 of the License, or
   (at your option) any later version.
   
   xtb is distributed in the hope that it will be useful,
   but WITHOUT ANY WARRANTY; without even the implied warranty of
   MERCHANTABILITY or FITNESS FOR A PARTICULAR PURPOSE.  See the
   GNU Lesser General Public License for more details.
   
   Cite this work as:
   * C. Bannwarth, E. Caldeweyher, S. Ehlert, A. Hansen, P. Pracht,
     J. Seibert, S. Spicher, S. Grimme, WIREs Comput. Mol. Sci., 2020, 11,
     e01493. DOI: 10.1002/wcms.1493
   
   for GFN2-xTB:
   * C. Bannwarth, S. Ehlert and S. Grimme., J. Chem. Theory Comput., 2019,
     15, 1652-1671. DOI: 10.1021/acs.jctc.8b01176
   for GFN1-xTB:
   * S. Grimme, C. Bannwarth, P. Shushkov, J. Chem. Theory Comput., 2017,
     13, 1989-2009. DOI: 10.1021/acs.jctc.7b00118
   for GFN0-xTB:
   * P. Pracht, E. Caldeweyher, S. Ehlert, S. Grimme, ChemRxiv, 2019, preprint.
     DOI: 10.26434/chemrxiv.8326202.v1
   for GFN-FF:
   * S. Spicher and S. Grimme, Angew. Chem. Int. Ed., 2020, 59, 15665-15673.
     DOI: 10.1002/anie.202004239
   
   for ALPB and GBSA implicit solvation:
   * S. Ehlert, M. Stahn, S. Spicher, S. Grimme, J. Chem. Theory Comput.,
     2021, 17, 4250-4261. DOI: 10.1021/acs.jctc.1c00471
   
   for DFT-D4:
   * E. Caldeweyher, C. Bannwarth and S. Grimme, J. Chem. Phys., 2017,
     147, 034112. DOI: 10.1063/1.4993215
   * E. Caldeweyher, S. Ehlert, A. Hansen, H. Neugebauer, S. Spicher,
     C. Bannwarth and S. Grimme, J. Chem. Phys., 2019, 150, 154122.
     DOI: 10.1063/1.5090222
   * E. Caldeweyher, J.-M. Mewes, S. Ehlert and S. Grimme, Phys. Chem. Chem. Phys.
     2020, 22, 8499-8512. DOI: 10.1039/D0CP00502A
   
   for sTDA-xTB:
   * S. Grimme and C. Bannwarth, J. Chem. Phys., 2016, 145, 054103.
     DOI: 10.1063/1.4959605
   
   in the mass-spec context:
   * V. Asgeirsson, C. Bauer and S. Grimme, Chem. Sci., 2017, 8, 4879.
     DOI: 10.1039/c7sc00601b
   * J. Koopman and S. Grimme, ACS Omega 2019, 4, 12, 15120-15133.
     DOI: 10.1021/acsomega.9b02011
   
   for metadynamics refer to:
   * S. Grimme, J. Chem. Theory Comput., 2019, 155, 2847-2862
     DOI: 10.1021/acs.jctc.9b00143
   
   for SPH calculations refer to:
   * S. Spicher and S. Grimme, J. Chem. Theory Comput., 2021, 17, 1701-1714
     DOI: 10.1021/acs.jctc.0c01306
   
   with help from (in alphabetical order)
   P. Atkinson, C. Bannwarth, F. Bohle, G. Brandenburg, E. Caldeweyher
   M. Checinski, S. Dohm, S. Ehlert, S. Ehrlich, I. Gerasimov, C. Hölzer
   A. Katbashev, J. Koopman, C. Lavigne, S. Lehtola, F. März, M. Müller,
   F. Musil, H. Neugebauer, J. Pisarek, C. Plett, P. Pracht, F. Pultar,
   J. Seibert, P. Shushkov, S. Spicher, M. Stahn, M. Steiner, T. Strunk,
   J. Stückrath, T. Rose, and J. Unsleber
   
 * started run on 2024/11/07 at 16:17:31.513     

           -------------------------------------------------
          |                Calculation Setup                |
           -------------------------------------------------

          program call               : xtb opt_anion_Base2SO2Me.mol --gfn2 --sp --chrg -1 --uhf 0
          coordinate file            : opt_anion_Base2SO2Me.mol
          omp threads                :                     8

   ID    Z sym.   atoms
    1    6 C      1-9, 11, 12, 14-21, 26-34, 36, 37, 39-46, 54, 56, 60, 63,
                  66, 69, 71, 72, 74, 75
    2    7 N      10, 13, 35, 38, 70, 73
    3    8 O      22, 47, 52, 53, 55, 57-59, 61, 62, 64, 65, 67, 68
    4   16 S      23-25, 48-50
    5    5 B      51
    6    1 H      76-111
########################################################################
[WARNING] Please study the warnings concerning your input carefully
-1- prog_main: Charge in sdf/mol input was overwritten
########################################################################

           -------------------------------------------------
          |                 G F N 2 - x T B                 |
           -------------------------------------------------

        Reference                      10.1021/acs.jctc.8b01176
      * Hamiltonian:
        H0-scaling (s, p, d)           1.850000    2.230000    2.230000
        zeta-weighting                 0.500000
      * Dispersion:
        s8                             2.700000
        a1                             0.520000
        a2                             5.000000
        s9                             5.000000
      * Repulsion:
        kExp                           1.500000    1.000000
        rExp                           1.000000
      * Coulomb:
        alpha                          2.000000
        third order                    shell-resolved
        anisotropic                    true
        a3                             3.000000
        a5                             4.000000
        cn-shift                       1.200000
        cn-exp                         4.000000
        max-rad                        5.000000

q/qsh data taken from xtbrestart
CAMM data taken from xtbrestart

          ...................................................
          :                      SETUP                      :
          :.................................................:
          :  # basis functions                 372          :
          :  # atomic orbitals                 366          :
          :  # shells                          192          :
          :  # electrons                       382          :
          :  max. iterations                   250          :
          :  Hamiltonian                  GFN2-xTB          :
          :  restarted?                       true          :
          :  GBSA solvation                  false          :
          :  PC potential                    false          :
          :  electronic temp.          300.0000000     K    :
          :  accuracy                    1.0000000          :
          :  -> integral cutoff          0.2500000E+02      :
          :  -> integral neglect         0.1000000E-07      :
          :  -> SCF convergence          0.1000000E-05 Eh   :
          :  -> wf. convergence          0.1000000E-03 e    :
          :  Broyden damping             0.4000000          :
          ...................................................

 iter      E             dE          RMSdq      gap      omega  full diag
   1   -219.1648013 -0.219165E+03  0.128E+00    0.27       0.0  T
   2   -218.7710115  0.393790E+00  0.160E+00    0.18       1.0  T
   3   -219.1051332 -0.334122E+00  0.915E-01    0.29       1.0  T
   4   -218.9293696  0.175764E+00  0.116E+00    0.35       1.0  T
   5   -219.1485400 -0.219170E+00  0.523E-01    0.21       1.0  T
   6   -219.1081445  0.403955E-01  0.652E-01    0.35       1.0  T
   7   -219.1777001 -0.695556E-01  0.346E-01    0.24       1.0  T
   8   -219.1911733 -0.134732E-01  0.264E-01    0.22       1.0  T
   9   -219.1933837 -0.221035E-02  0.228E-01    0.19       1.0  T
  10   -219.1958675 -0.248379E-02  0.185E-01    0.19       1.0  T
  11   -219.1996749 -0.380740E-02  0.981E-02    0.15       1.0  T
  12   -219.2003066 -0.631773E-03  0.552E-02    0.14       1.0  T
  13   -219.2006733 -0.366686E-03  0.360E-02    0.14       1.0  T
  14   -219.2007571 -0.837868E-04  0.268E-02    0.14       1.0  T
  15   -219.2009285 -0.171381E-03  0.470E-03    0.14       2.0  T
  16   -219.2009309 -0.239658E-05  0.213E-03    0.14       4.5  T
  17   -219.2009313 -0.446533E-06  0.835E-04    0.14      11.4  T
  18   -219.2009314 -0.100371E-07  0.551E-04    0.14      17.2  T

   *** convergence criteria satisfied after 18 iterations ***

         #    Occupation            Energy/Eh            Energy/eV
      -------------------------------------------------------------
         1        2.0000           -0.7119585             -19.3734
       ...           ...                  ...                  ...
       185        2.0000           -0.3062190              -8.3326
       186        2.0000           -0.2980599              -8.1106
       187        2.0000           -0.2950103              -8.0276
       188        1.9999           -0.2869668              -7.8088
       189        1.9996           -0.2853480              -7.7647
       190        1.9937           -0.2828132              -7.6957
       191        1.8778           -0.2799409              -7.6176 (HOMO)
       192        0.1291           -0.2748054              -7.4778 (LUMO)
       193                         -0.2285575              -6.2194
       194                         -0.2195860              -5.9752
       195                         -0.1946893              -5.2978
       196                         -0.1922024              -5.2301
       ...                                ...                  ...
       366                          1.0862800              29.5592
      -------------------------------------------------------------
                  HL-Gap            0.0051355 Eh            0.1397 eV
             Fermi-level           -0.2773456 Eh           -7.5470 eV

 SCC (total)                   0 d,  0 h,  0 min,  1.427 sec
 SCC setup                      ...        0 min,  0.000 sec (  0.026%)
 Dispersion                     ...        0 min,  0.001 sec (  0.084%)
 classical contributions        ...        0 min,  0.000 sec (  0.018%)
 integral evaluation            ...        0 min,  0.008 sec (  0.538%)
 iterations                     ...        0 min,  1.365 sec ( 95.696%)
 molecular gradient             ...        0 min,  0.039 sec (  2.758%)
 printout                       ...        0 min,  0.013 sec (  0.880%)

         :::::::::::::::::::::::::::::::::::::::::::::::::::::
         ::                     SUMMARY                     ::
         :::::::::::::::::::::::::::::::::::::::::::::::::::::
         :: total energy            -216.730896710885 Eh    ::
         :: gradient norm              0.001017385582 Eh/a0 ::
         :: HOMO-LUMO gap              0.139743987296 eV    ::
         ::.................................................::
         :: SCC energy              -219.200931351191 Eh    ::
         :: -> isotropic ES            0.487050122385 Eh    ::
         :: -> anisotropic ES         -0.010165508894 Eh    ::
         :: -> anisotropic XC          0.065655324093 Eh    ::
         :: -> dispersion             -0.210398276723 Eh    ::
         :: repulsion energy           2.464271482740 Eh    ::
         :: add. restraining           0.000000000000 Eh    ::
         :: total charge              -1.000005147659 e     ::
         :::::::::::::::::::::::::::::::::::::::::::::::::::::

           -------------------------------------------------
          |                Property Printout                |
           -------------------------------------------------

    * Orbital Energies and Occupations

         #    Occupation            Energy/Eh            Energy/eV
      -------------------------------------------------------------
         1        2.0000           -0.7119585             -19.3734
       ...           ...                  ...                  ...
       179        2.0000           -0.3244028              -8.8274
       180        2.0000           -0.3207495              -8.7280
       181        2.0000           -0.3181332              -8.6568
       182        2.0000           -0.3164553              -8.6112
       183        2.0000           -0.3158732              -8.5953
       184        2.0000           -0.3095786              -8.4241
       185        2.0000           -0.3062190              -8.3326
       186        2.0000           -0.2980599              -8.1106
       187        2.0000           -0.2950103              -8.0276
       188        1.9999           -0.2869668              -7.8088
       189        1.9996           -0.2853480              -7.7647
       190        1.9937           -0.2828132              -7.6957
       191        1.8778           -0.2799409              -7.6176 (HOMO)
       192        0.1291           -0.2748054              -7.4778 (LUMO)
       193                         -0.2285575              -6.2194
       194                         -0.2195860              -5.9752
       195                         -0.1946893              -5.2978
       196                         -0.1922024              -5.2301
       197                         -0.1854967              -5.0476
       198                         -0.1815662              -4.9407
       199                         -0.1714855              -4.6664
       200                         -0.1683369              -4.5807
       201                         -0.1635023              -4.4491
       202                         -0.1547211              -4.2102
       ...                                ...                  ...
       366                          1.0862800              29.5592
      -------------------------------------------------------------
                  HL-Gap            0.0051355 Eh            0.1397 eV
             Fermi-level           -0.2773456 Eh           -7.5470 eV

     #   Z          covCN         q      C6AA      α(0)
     1   6 C        2.979    -0.034    28.840     8.809
     2   6 C        2.981     0.164    24.457     8.112
     3   6 C        2.987    -0.035    28.863     8.813
     4   6 C        2.965     0.094    25.912     8.350
     5   6 C        2.954    -0.055    29.357     8.887
     6   6 C        2.970    -0.067    29.671     8.935
     7   6 C        2.966     0.043    27.041     8.530
     8   6 C        2.998    -0.025    28.616     8.775
     9   6 C        2.960     0.091    25.977     8.360
    10   7 N        1.846    -0.252    27.407     7.759
    11   6 C        2.971    -0.016    28.412     8.743
    12   6 C        2.959     0.096    25.860     8.341
    13   7 N        1.850    -0.254    27.454     7.766
    14   6 C        2.953     0.091    25.966     8.358
    15   6 C        2.959    -0.054    29.328     8.883
    16   6 C        2.957    -0.054    29.330     8.883
    17   6 C        2.947    -0.042    29.045     8.839
    18   6 C        3.059     0.101    25.702     8.314
    19   6 C        3.005    -0.018    28.453     8.750
    20   6 C        2.956    -0.070    29.744     8.945
    21   6 C        2.941    -0.041    29.020     8.835
    22   8 O        1.651    -0.399    20.842     6.163
    23  16 S        3.137     0.646   117.447    18.240
    24  16 S        3.273     0.657   117.108    18.214
    25  16 S        2.869     0.643   117.564    18.249
    26   6 C        3.010    -0.044    29.064     8.843
    27   6 C        2.980     0.166    24.412     8.105
    28   6 C        2.987    -0.036    28.897     8.818
    29   6 C        2.965     0.092    25.958     8.357
    30   6 C        2.934    -0.053    29.322     8.881
    31   6 C        2.969    -0.081    30.021     8.987
    32   6 C        2.966     0.042    27.061     8.533
    33   6 C        2.997    -0.025    28.625     8.776
    34   6 C        2.960     0.091    25.979     8.360
    35   7 N        1.846    -0.257    27.527     7.776
    36   6 C        2.971    -0.017    28.422     8.745
    37   6 C        2.959     0.096    25.873     8.343
    38   7 N        1.850    -0.256    27.511     7.774
    39   6 C        2.953     0.092    25.965     8.358
    40   6 C        2.959    -0.054    29.347     8.886
    41   6 C        2.957    -0.054    29.330     8.883
    42   6 C        2.948    -0.043    29.070     8.843
    43   6 C        3.063     0.102    25.685     8.311
    44   6 C        2.998    -0.006    28.165     8.706
    45   6 C        2.959    -0.061    29.509     8.910
    46   6 C        2.949    -0.044    29.086     8.846
    47   8 O        1.651    -0.399    20.826     6.160
    48  16 S        3.292     0.664   116.865    18.195
    49  16 S        3.080     0.642   117.580    18.250
    50  16 S        2.869     0.645   117.505    18.244
    51   5 B        3.702     0.527    15.041     6.276
    52   8 O        0.860    -0.504    23.862     6.549
    53   8 O        1.705    -0.376    20.379     6.095
    54   6 C        3.744     0.053    19.762     6.342
    55   8 O        1.713    -0.392    20.682     6.140
    56   6 C        3.725     0.043    19.955     6.378
    57   8 O        0.860    -0.491    23.587     6.512
    58   8 O        0.860    -0.510    24.010     6.570
    59   8 O        1.705    -0.380    20.441     6.104
    60   6 C        3.724     0.046    19.903     6.371
    61   8 O        0.860    -0.503    23.855     6.548
    62   8 O        1.705    -0.379    20.434     6.103
    63   6 C        3.743     0.053    19.756     6.341
    64   8 O        0.860    -0.493    23.639     6.519
    65   8 O        1.711    -0.396    20.760     6.152
    66   6 C        3.726     0.048    19.867     6.364
    67   8 O        0.860    -0.500    23.790     6.540
    68   8 O        1.705    -0.375    20.347     6.090
    69   6 C        3.774     0.047    19.821     6.344
    70   7 N        2.671    -0.276    27.140     7.737
    71   6 C        3.752    -0.104    22.547     6.771
    72   6 C        3.747     0.020    20.308     6.428
    73   7 N        2.671    -0.277    27.167     7.741
    74   6 C        3.752    -0.101    22.496     6.764
    75   6 C        3.747     0.016    20.366     6.437
    76   1 H        0.924     0.053     2.280     2.361
    77   1 H        0.924     0.039     2.466     2.456
    78   1 H        0.924     0.062     2.178     2.308
    79   1 H        0.924     0.054     2.274     2.358
    80   1 H        0.924     0.072     2.068     2.249
    81   1 H        0.924     0.045     2.386     2.416
    82   1 H        0.925     0.051     2.306     2.375
    83   1 H        0.924     0.034     2.534     2.489
    84   1 H        0.924     0.056     2.250     2.346
    85   1 H        0.925     0.037     2.483     2.464
    86   1 H        0.925     0.037     2.484     2.465
    87   1 H        0.925     0.041     2.439     2.442
    88   1 H        0.924     0.026     2.650     2.546
    89   1 H        0.925     0.038     2.479     2.462
    90   1 H        0.925     0.035     2.515     2.480
    91   1 H        0.925     0.035     2.522     2.483
    92   1 H        0.925     0.037     2.488     2.466
    93   1 H        0.924     0.039     2.469     2.457
    94   1 H        0.925     0.037     2.491     2.468
    95   1 H        0.924     0.049     2.335     2.390
    96   1 H        0.924     0.068     2.111     2.272
    97   1 H        0.924     0.040     2.453     2.449
    98   1 H        0.925     0.050     2.326     2.385
    99   1 H        0.924     0.056     2.243     2.342
   100   1 H        0.924     0.032     2.560     2.502
   101   1 H        0.924     0.040     2.444     2.445
   102   1 H        0.925     0.056     2.251     2.346
   103   1 H        0.924     0.047     2.359     2.402
   104   1 H        0.926     0.050     2.316     2.380
   105   1 H        0.926     0.071     2.071     2.251
   106   1 H        0.926     0.069     2.100     2.266
   107   1 H        0.926     0.069     2.092     2.262
   108   1 H        0.926     0.068     2.106     2.269
   109   1 H        0.926     0.052     2.297     2.370
   110   1 H        0.926     0.073     2.056     2.242
   111   1 H        0.926     0.079     1.985     2.203

 Mol. C6AA /au·bohr⁶  :     216418.783017
 Mol. C8AA /au·bohr⁸  :    5892378.138789
 Mol. α(0) /au        :        729.824136


Wiberg/Mayer (AO) data.
largest (>0.10) Wiberg bond orders for each atom

 ---------------------------------------------------------------------------
     #   Z sym  total        # sym  WBO       # sym  WBO       # sym  WBO
 ---------------------------------------------------------------------------
     1   6 C    3.923 --     2 C    1.307     6 C    1.279    44 C    1.074
     2   6 C    3.935 --     1 C    1.307     3 C    1.287    22 O    1.113
     3   6 C    3.947 --     2 C    1.287     4 C    1.203     7 C    1.189
     4   6 C    3.970 --    10 N    1.367     5 C    1.217     3 C    1.203
     5   6 C    3.929 --     6 C    1.539     4 C    1.217   111 H    0.958
     6   6 C    3.956 --     5 C    1.539     1 C    1.279    23 S    0.921
     7   6 C    3.976 --     8 C    1.347     3 C    1.189    11 C    1.188
     8   6 C    3.977 --     7 C    1.347    14 C    1.181     9 C    1.179
     9   6 C    3.975 --    10 N    1.331    17 C    1.279     8 C    1.179
    10   7 N    2.926 --     4 C    1.367     9 C    1.331
    11   6 C    3.940 --    18 C    1.296    12 C    1.190     7 C    1.188
    12   6 C    3.966 --    13 N    1.378    21 C    1.209    11 C    1.190
    13   7 N    2.947 --    12 C    1.378    14 C    1.321
    14   6 C    3.975 --    13 N    1.321    15 C    1.291     8 C    1.181
    15   6 C    3.844 --    16 C    1.420    14 C    1.291   109 H    0.966
    16   6 C    3.962 --    17 C    1.435    15 C    1.420    25 S    0.912
    17   6 C    3.845 --    16 C    1.435     9 C    1.279   110 H    0.960
    18   6 C    3.945 --    11 C    1.296    19 C    1.284    70 N    1.119
    19   6 C    3.879 --    20 C    1.295    18 C    1.284    26 C    1.077
    20   6 C    3.957 --    21 C    1.530    19 C    1.295    24 S    0.909
    21   6 C    3.893 --    20 C    1.530    12 C    1.209   108 H    0.961
    22   8 O    2.138 --     2 C    1.113    51 B    0.780
    23  16 S    3.941 --    67 O    1.852    68 O    1.030     6 C    0.921
    24  16 S    3.935 --    57 O    1.837    55 O    1.023    20 C    0.909
    25  16 S    3.903 --    52 O    1.847    53 O    1.030    16 C    0.912
    26   6 C    3.927 --    27 C    1.305    31 C    1.283    19 C    1.077
    27   6 C    3.935 --    26 C    1.305    28 C    1.288    47 O    1.116
    28   6 C    3.947 --    27 C    1.288    29 C    1.203    32 C    1.188
    29   6 C    3.970 --    35 N    1.366    30 C    1.216    28 C    1.203
    30   6 C    3.929 --    31 C    1.534    29 C    1.216   107 H    0.961
    31   6 C    3.953 --    30 C    1.534    26 C    1.283    48 S    0.913
    32   6 C    3.976 --    33 C    1.348    28 C    1.188    36 C    1.187
    33   6 C    3.977 --    32 C    1.348    39 C    1.181    34 C    1.179
    34   6 C    3.975 --    35 N    1.330    42 C    1.281    33 C    1.179
    35   7 N    2.924 --    29 C    1.366    34 C    1.330
    36   6 C    3.938 --    43 C    1.295    37 C    1.192    32 C    1.187
    37   6 C    3.966 --    38 N    1.376    46 C    1.211    36 C    1.192
    38   7 N    2.945 --    37 C    1.376    39 C    1.322
    39   6 C    3.975 --    38 N    1.322    40 C    1.290    33 C    1.181
    40   6 C    3.844 --    41 C    1.420    39 C    1.290   104 H    0.966
    41   6 C    3.962 --    42 C    1.433    40 C    1.420    50 S    0.914
    42   6 C    3.845 --    41 C    1.433    34 C    1.281   105 H    0.960
    43   6 C    3.944 --    36 C    1.295    44 C    1.284    73 N    1.118
    44   6 C    3.879 --    45 C    1.297    43 C    1.284     1 C    1.074
    45   6 C    3.957 --    46 C    1.526    44 C    1.297    49 S    0.917
    46   6 C    3.894 --    45 C    1.526    37 C    1.211   106 H    0.960
    47   8 O    2.141 --    27 C    1.116    51 B    0.780
    48  16 S    3.953 --    58 O    1.836    59 O    1.023    31 C    0.913
    49  16 S    3.901 --    64 O    1.847    65 O    1.007    45 C    0.917
    50  16 S    3.899 --    61 O    1.847    62 O    1.023    41 C    0.914
    51   5 B    3.356 --    70 N    0.787    73 N    0.787    22 O    0.780
                            47 O    0.780
    52   8 O    2.028 --    25 S    1.847
    53   8 O    2.158 --    25 S    1.030    54 C    0.982
    54   6 C    3.940 --    53 O    0.982    83 H    0.979    82 H    0.976
                            84 H    0.972
    55   8 O    2.155 --    24 S    1.023    56 C    0.975
    56   6 C    3.927 --    81 H    0.978    79 H    0.976    55 O    0.975
                            80 H    0.962
    57   8 O    2.030 --    24 S    1.837
    58   8 O    2.016 --    48 S    1.836
    59   8 O    2.158 --    48 S    1.023    60 C    0.980
    60   6 C    3.935 --    59 O    0.980    77 H    0.976    76 H    0.975
                            78 H    0.970
    61   8 O    2.029 --    50 S    1.847
    62   8 O    2.153 --    50 S    1.023    63 C    0.984
    63   6 C    3.941 --    62 O    0.984   100 H    0.979    98 H    0.976
                            99 H    0.971
    64   8 O    2.031 --    49 S    1.847
    65   8 O    2.146 --    49 S    1.007    66 C    0.979
    66   6 C    3.934 --    65 O    0.979    97 H    0.978    95 H    0.975
                            96 H    0.964
    67   8 O    2.030 --    23 S    1.852
    68   8 O    2.155 --    23 S    1.030    69 C    0.979
    69   6 C    3.942 --    68 O    0.979   103 H    0.978   101 H    0.978
                           102 H    0.977
    70   7 N    3.143 --    18 C    1.119    72 C    0.995    51 B    0.787
    71   6 C    3.989 --    72 C    1.003    86 H    0.988    85 H    0.985
                            87 H    0.982
    72   6 C    3.977 --    71 C    1.003    70 N    0.995    89 H    0.966
                            88 H    0.962
    73   7 N    3.136 --    43 C    1.118    75 C    0.993    51 B    0.787
    74   6 C    3.989 --    75 C    1.002    91 H    0.988    90 H    0.986
                            92 H    0.982
    75   6 C    3.975 --    74 C    1.002    73 N    0.993    94 H    0.966
                            93 H    0.959
    76   1 H    0.996 --    60 C    0.975
    77   1 H    0.998 --    60 C    0.976
    78   1 H    0.996 --    60 C    0.970
    79   1 H    0.996 --    56 C    0.976
    80   1 H    0.995 --    56 C    0.962
    81   1 H    0.998 --    56 C    0.978
    82   1 H    0.997 --    54 C    0.976
    83   1 H    0.999 --    54 C    0.979
    84   1 H    0.997 --    54 C    0.972
    85   1 H    0.997 --    71 C    0.985
    86   1 H    0.999 --    71 C    0.988
    87   1 H    0.998 --    71 C    0.982
    88   1 H    0.997 --    72 C    0.962
    89   1 H    0.996 --    72 C    0.966
    90   1 H    0.998 --    74 C    0.986
    91   1 H    0.999 --    74 C    0.988
    92   1 H    0.998 --    74 C    0.982
    93   1 H    0.996 --    75 C    0.959
    94   1 H    0.996 --    75 C    0.966
    95   1 H    0.997 --    66 C    0.975
    96   1 H    0.995 --    66 C    0.964
    97   1 H    0.998 --    66 C    0.978
    98   1 H    0.997 --    63 C    0.976
    99   1 H    0.997 --    63 C    0.971
   100   1 H    0.999 --    63 C    0.979
   101   1 H    0.998 --    69 C    0.978
   102   1 H    0.996 --    69 C    0.977
   103   1 H    0.998 --    69 C    0.978
   104   1 H    0.997 --    40 C    0.966
   105   1 H    0.994 --    42 C    0.960
   106   1 H    0.993 --    46 C    0.960
   107   1 H    0.994 --    30 C    0.961
   108   1 H    0.993 --    21 C    0.961
   109   1 H    0.997 --    15 C    0.966
   110   1 H    0.994 --    17 C    0.960
   111   1 H    0.992 --     5 C    0.958
 ---------------------------------------------------------------------------

Topologies differ in total number of bonds
Writing corrected topology to xtbtopo.mol

molecular dipole:
                 x           y           z       tot (Debye)
 q only:        1.261      -0.043      -3.134
   full:        0.905       0.035      -3.818       9.974
molecular quadrupole (traceless):
                xx          xy          yy          xz          yz          zz
 q only:      -50.793     -69.312     -11.595       1.990       6.473      62.388
  q+dip:      -67.577     -74.038      -4.788      13.322       7.447      72.365
   full:      -74.518     -76.222     -10.907      13.037       7.354      85.425


           -------------------------------------------------
          | TOTAL ENERGY             -216.730896710885 Eh   |
          | GRADIENT NORM               0.001017385582 Eh/α |
          | HOMO-LUMO GAP               0.139743987296 eV   |
           -------------------------------------------------
Note: The following floating-point exceptions are signalling: IEEE_UNDERFLOW_FLAG
normal termination of xtb
########################################################################
[WARNING] Runtime exception occurred
-2- restart_readRestart: Multiplicity missmatch in restart file.
-1- restart_readRestart: Number of electron missmatch in restart file.
########################################################################

------------------------------------------------------------------------
 * finished run on 2024/11/07 at 16:17:32.974     
------------------------------------------------------------------------
 total:
 * wall-time:     0 d,  0 h,  0 min,  1.461 sec
 *  cpu-time:     0 d,  0 h,  0 min,  5.019 sec
 * ratio c/w:     3.436 speedup
 SCF:
 * wall-time:     0 d,  0 h,  0 min,  1.428 sec
 *  cpu-time:     0 d,  0 h,  0 min,  4.984 sec
 * ratio c/w:     3.491 speedup

