      -----------------------------------------------------------      
     |                   =====================                   |     
     |                           x T B                           |     
     |                   =====================                   |     
     |                         S. Grimme                         |     
     |          Mulliken Center for Theoretical Chemistry        |     
     |                    University of Bonn                     |     
      -----------------------------------------------------------      

   * xtb version 6.6.1 (8d0f1dd) compiled by 'runner@Mac-1690902418499.local' on 2023-08-01

   xtb is free software: you can redistribute it and/or modify it under
   the terms of the GNU Lesser General Public License as published by
   the Free Software Foundation, either version 3 of the License, or
   (at your option) any later version.
   
   xtb is distributed in the hope that it will be useful,
   but WITHOUT ANY WARRANTY; without even the implied warranty of
   MERCHANTABILITY or FITNESS FOR A PARTICULAR PURPOSE.  See the
   GNU Lesser General Public License for more details.
   
   Cite this work as:
   * C. Bannwarth, E. Caldeweyher, S. Ehlert, A. Hansen, P. Pracht,
     J. Seibert, S. Spicher, S. Grimme, WIREs Comput. Mol. Sci., 2020, 11,
     e01493. DOI: 10.1002/wcms.1493
   
   for GFN2-xTB:
   * C. Bannwarth, S. Ehlert and S. Grimme., J. Chem. Theory Comput., 2019,
     15, 1652-1671. DOI: 10.1021/acs.jctc.8b01176
   for GFN1-xTB:
   * S. Grimme, C. Bannwarth, P. Shushkov, J. Chem. Theory Comput., 2017,
     13, 1989-2009. DOI: 10.1021/acs.jctc.7b00118
   for GFN0-xTB:
   * P. Pracht, E. Caldeweyher, S. Ehlert, S. Grimme, ChemRxiv, 2019, preprint.
     DOI: 10.26434/chemrxiv.8326202.v1
   for GFN-FF:
   * S. Spicher and S. Grimme, Angew. Chem. Int. Ed., 2020, 59, 15665-15673.
     DOI: 10.1002/anie.202004239
   
   for ALPB and GBSA implicit solvation:
   * S. Ehlert, M. Stahn, S. Spicher, S. Grimme, J. Chem. Theory Comput.,
     2021, 17, 4250-4261. DOI: 10.1021/acs.jctc.1c00471
   
   for DFT-D4:
   * E. Caldeweyher, C. Bannwarth and S. Grimme, J. Chem. Phys., 2017,
     147, 034112. DOI: 10.1063/1.4993215
   * E. Caldeweyher, S. Ehlert, A. Hansen, H. Neugebauer, S. Spicher,
     C. Bannwarth and S. Grimme, J. Chem. Phys., 2019, 150, 154122.
     DOI: 10.1063/1.5090222
   * E. Caldeweyher, J.-M. Mewes, S. Ehlert and S. Grimme, Phys. Chem. Chem. Phys.
     2020, 22, 8499-8512. DOI: 10.1039/D0CP00502A
   
   for sTDA-xTB:
   * S. Grimme and C. Bannwarth, J. Chem. Phys., 2016, 145, 054103.
     DOI: 10.1063/1.4959605
   
   in the mass-spec context:
   * V. Asgeirsson, C. Bauer and S. Grimme, Chem. Sci., 2017, 8, 4879.
     DOI: 10.1039/c7sc00601b
   * J. Koopman and S. Grimme, ACS Omega 2019, 4, 12, 15120-15133.
     DOI: 10.1021/acsomega.9b02011
   
   for metadynamics refer to:
   * S. Grimme, J. Chem. Theory Comput., 2019, 155, 2847-2862
     DOI: 10.1021/acs.jctc.9b00143
   
   for SPH calculations refer to:
   * S. Spicher and S. Grimme, J. Chem. Theory Comput., 2021, 17, 1701-1714
     DOI: 10.1021/acs.jctc.0c01306
   
   with help from (in alphabetical order)
   P. Atkinson, C. Bannwarth, F. Bohle, G. Brandenburg, E. Caldeweyher
   M. Checinski, S. Dohm, S. Ehlert, S. Ehrlich, I. Gerasimov, C. Hölzer
   A. Katbashev, J. Koopman, C. Lavigne, S. Lehtola, F. März, M. Müller,
   F. Musil, H. Neugebauer, J. Pisarek, C. Plett, P. Pracht, F. Pultar,
   J. Seibert, P. Shushkov, S. Spicher, M. Stahn, M. Steiner, T. Strunk,
   J. Stückrath, T. Rose, and J. Unsleber
   
 * started run on 2024/11/01 at 12:22:18.295     

           -------------------------------------------------
          |                Calculation Setup                |
           -------------------------------------------------

          program call               : xtb Base2SO2Me.mol --opt --gfn2 --chrg -1 --uhf 0 --tight
          coordinate file            : Base2SO2Me.mol
          omp threads                :                     8

   ID    Z sym.   atoms
    1    6 C      1-9, 11, 12, 14-21, 26-34, 36, 37, 39-46, 54, 56, 60, 63,
                  66, 69, 71, 72, 74, 75
    2    7 N      10, 13, 35, 38, 70, 73
    3    8 O      22, 47, 52, 53, 55, 57-59, 61, 62, 64, 65, 67, 68
    4   16 S      23-25, 48-50
    5    5 B      51
    6    1 H      76-111

molecular fragmentation (1/2 indicates fragments):
111111111111111111111111111111111111111111111111111111111111111111111111
111111112111111111111111211111111111111
# atoms in fragment 1/2:   109     2
 fragment masses (1/2) :     1122.02        2.02
CMA distance (Bohr)    :   3.654
constraining FC (au)   :  0.0500
########################################################################
[WARNING] Please study the warnings concerning your input carefully
-2- prog_main: Charge in sdf/mol input was overwritten
-1- prog_main_parseArguments: Unknown option '--tight' provided
########################################################################

           -------------------------------------------------
          |                 G F N 2 - x T B                 |
           -------------------------------------------------

        Reference                      10.1021/acs.jctc.8b01176
      * Hamiltonian:
        H0-scaling (s, p, d)           1.850000    2.230000    2.230000
        zeta-weighting                 0.500000
      * Dispersion:
        s8                             2.700000
        a1                             0.520000
        a2                             5.000000
        s9                             5.000000
      * Repulsion:
        kExp                           1.500000    1.000000
        rExp                           1.000000
      * Coulomb:
        alpha                          2.000000
        third order                    shell-resolved
        anisotropic                    true
        a3                             3.000000
        a5                             4.000000
        cn-shift                       1.200000
        cn-exp                         4.000000
        max-rad                        5.000000

q/qsh data taken from xtbrestart
CAMM data taken from xtbrestart

          ...................................................
          :                      SETUP                      :
          :.................................................:
          :  # basis functions                 372          :
          :  # atomic orbitals                 366          :
          :  # shells                          192          :
          :  # electrons                       382          :
          :  max. iterations                   250          :
          :  Hamiltonian                  GFN2-xTB          :
          :  restarted?                       true          :
          :  GBSA solvation                  false          :
          :  PC potential                    false          :
          :  electronic temp.          300.0000000     K    :
          :  accuracy                    1.0000000          :
          :  -> integral cutoff          0.2500000E+02      :
          :  -> integral neglect         0.1000000E-07      :
          :  -> SCF convergence          0.1000000E-05 Eh   :
          :  -> wf. convergence          0.1000000E-03 e    :
          :  Broyden damping             0.4000000          :
          ...................................................

 iter      E             dE          RMSdq      gap      omega  full diag
   1   -215.1068157 -0.215107E+03  0.563E+00    0.10       0.0  T
   2   -200.9577477  0.141491E+02  0.121E+01    0.14       1.0  T
   3   -216.5339514 -0.155762E+02  0.443E+00    0.07       1.0  T
   4   -207.7415694  0.879238E+01  0.767E+00    0.16       1.0  T
   5   -215.1645563 -0.742299E+01  0.383E+00    0.12       1.0  T
   6   -212.0022802  0.316228E+01  0.534E+00    0.42       1.0  T
   7   -215.8778911 -0.387561E+01  0.323E+00    0.20       1.0  T
   8   -215.2433580  0.634533E+00  0.420E+00    0.04       1.0  T
   9   -217.4154984 -0.217214E+01  0.178E+00    0.10       1.0  T
  10   -216.7996483  0.615850E+00  0.192E+00    0.16       1.0  T
  11   -217.5521504 -0.752502E+00  0.145E+00    0.15       1.0  T
  12   -217.5160365  0.361139E-01  0.135E+00    0.03       1.0  T
  13   -217.6583742 -0.142338E+00  0.122E+00    0.17       1.0  T
  14   -217.6940465 -0.356723E-01  0.103E+00    0.09       1.0  T
  15   -217.7375315 -0.434850E-01  0.948E-01    0.04       1.0  T
  16   -217.8660023 -0.128471E+00  0.471E-01    0.02       1.0  T
  17   -217.7691869  0.968154E-01  0.831E-01    0.02       1.0  T
  18   -217.8253339 -0.561470E-01  0.593E-01    0.07       1.0  T
  19   -217.8713182 -0.459843E-01  0.383E-01    0.05       1.0  T
  20   -217.8904134 -0.190952E-01  0.195E-01    0.04       1.0  T
  21   -217.8941018 -0.368846E-02  0.160E-01    0.02       1.0  T
  22   -217.8963992 -0.229739E-02  0.990E-02    0.02       1.0  T
  23   -217.8960721  0.327147E-03  0.943E-02    0.03       1.0  T
  24   -217.8947229  0.134914E-02  0.106E-01    0.03       1.0  T
  25   -217.8959415 -0.121851E-02  0.896E-02    0.02       1.0  T
  26   -217.8970695 -0.112800E-02  0.400E-02    0.03       1.0  T
  27   -217.8967071  0.362391E-03  0.584E-02    0.03       1.0  T
  28   -217.8967266 -0.195687E-04  0.562E-02    0.03       1.0  T
  29   -217.8971271 -0.400436E-03  0.345E-02    0.03       1.0  T
  30   -217.8973538 -0.226694E-03  0.900E-03    0.02       1.1  T
  31   -217.8973502  0.355109E-05  0.788E-03    0.02       1.2  T
  32   -217.8973576 -0.741584E-05  0.372E-03    0.02       2.6  T
  33   -217.8973592 -0.160973E-05  0.243E-03    0.02       3.9  T
  34   -217.8973588  0.465063E-06  0.286E-03    0.02       3.3  T
  35   -217.8973597 -0.916657E-06  0.181E-03    0.02       5.2  T
  36   -217.8973600 -0.294671E-06  0.107E-03    0.02       8.9  T
  37   -217.8973601 -0.161137E-06  0.436E-04    0.02      21.8  T
  38   -217.8973601  0.211145E-08  0.383E-04    0.02      24.8  T

   *** convergence criteria satisfied after 38 iterations ***

         #    Occupation            Energy/Eh            Energy/eV
      -------------------------------------------------------------
         1        2.0000           -0.7634034             -20.7733
       ...           ...                  ...                  ...
       185        2.0000           -0.1919858              -5.2242
       186        2.0000           -0.1911056              -5.2002
       187        2.0000           -0.1905446              -5.1850
       188        1.9985           -0.1871683              -5.0931
       189        1.9704           -0.1843520              -5.0165
       190        1.7340           -0.1821441              -4.9564
       191        1.3271           -0.1810084              -4.9255 (HOMO)
       192        0.8673           -0.1801096              -4.9010 (LUMO)
       193        0.0645           -0.1771324              -4.8200
       194        0.0384           -0.1766255              -4.8062
       195                         -0.1398934              -3.8067
       196                         -0.1353882              -3.6841
       ...                                ...                  ...
       366                          4.9405740             134.4399
      -------------------------------------------------------------
                  HL-Gap            0.0008988 Eh            0.0245 eV
             Fermi-level           -0.1803633 Eh           -4.9079 eV

 SCC (total)                   0 d,  0 h,  0 min,  2.895 sec
 SCC setup                      ...        0 min,  0.000 sec (  0.011%)
 Dispersion                     ...        0 min,  0.001 sec (  0.039%)
 classical contributions        ...        0 min,  0.000 sec (  0.008%)
 integral evaluation            ...        0 min,  0.009 sec (  0.294%)
 iterations                     ...        0 min,  2.843 sec ( 98.231%)
 molecular gradient             ...        0 min,  0.040 sec (  1.374%)
 printout                       ...        0 min,  0.001 sec (  0.043%)

         :::::::::::::::::::::::::::::::::::::::::::::::::::::
         ::                     SUMMARY                     ::
         :::::::::::::::::::::::::::::::::::::::::::::::::::::
         :: total energy            -211.901449572789 Eh    ::
         :: gradient norm              5.588802750783 Eh/a0 ::
         :: HOMO-LUMO gap              0.024457952906 eV    ::
         ::.................................................::
         :: SCC energy              -217.897360142543 Eh    ::
         :: -> isotropic ES            0.483938523659 Eh    ::
         :: -> anisotropic ES          0.070320273886 Eh    ::
         :: -> anisotropic XC          0.033318779651 Eh    ::
         :: -> dispersion             -0.192502104937 Eh    ::
         :: repulsion energy           5.992118876223 Eh    ::
         :: add. restraining           0.000000000000 Eh    ::
         :: total charge              -1.000000111996 e     ::
         :::::::::::::::::::::::::::::::::::::::::::::::::::::

      ----------------------------------------------------------- 
     |                   =====================                   |
     |                        A N C O P T                        |
     |                   =====================                   |
     |               Approximate Normal Coordinate               |
     |                Rational Function Optimizer                |
      ----------------------------------------------------------- 

          ...................................................
          :                      SETUP                      :
          :.................................................:
          :   optimization level            normal          :
          :   max. optcycles                   333          :
          :   ANC micro-cycles                  20          :
          :   degrees of freedom               327          :
          :.................................................:
          :   RF solver                   davidson          :
          :   write xtbopt.log                true          :
          :   linear?                        false          :
          :   energy convergence         0.5000000E-05 Eh   :
          :   grad. convergence          0.1000000E-02 Eh/α :
          :   maxmium RF displ.          1.0000000          :
          :   Hlow (freq-cutoff)         0.1000000E-01      :
          :   Hmax (freq-cutoff)         5.0000000          :
          :   S6 in model hess.         20.0000000          :
          ...................................................

generating ANC from model Hessian ...
Using Lindh-Hessian (1995)
 Shifting diagonal of input Hessian by    9.9544802606376312E-003
 Lowest  eigenvalues of input Hessian
    0.000000    0.000000    0.000000    0.000000    0.000000    0.000000
    0.010000    0.010004    0.010106    0.010190    0.010216    0.010411
    0.010596    0.010635    0.010781    0.010865    0.011008    0.011287
 Highest eigenvalues
    6.207729    6.253665    6.276231    6.328757    6.416265    7.669385


........................................................................
.............................. CYCLE    1 ..............................
........................................................................

 iter      E             dE          RMSdq      gap      omega  full diag
   1   -217.8973602 -0.217897E+03  0.194E-04    0.02       0.0  T
   2   -217.8973594  0.780124E-06  0.191E-03    0.02       5.0  T
   3   -217.8973600 -0.624523E-06  0.846E-04    0.02      11.2  T
   4   -217.8973601 -0.836036E-07  0.579E-04    0.02      16.4  T
     SCC iter.                  ...        0 min,  0.327 sec
     gradient                   ...        0 min,  0.039 sec
 * total energy  :  -211.9014495 Eh     change        0.5602746E-07 Eh
   gradient norm :     5.5887984 Eh/α   predicted     0.0000000E+00 (-100.00%)
   displ. norm   :     0.7901332 α      lambda       -0.4331215E+01
   maximum displ.:     0.4458736 α      in ANC's #281, #256, #315, ...

........................................................................
.............................. CYCLE    2 ..............................
........................................................................

 iter      E             dE          RMSdq      gap      omega  full diag
   1   -217.6774001 -0.217677E+03  0.160E+00    0.08       0.0  T
   2   -215.9150754  0.176232E+01  0.315E+00    0.03       1.0  T
   3   -217.2344428 -0.131937E+01  0.205E+00    0.10       1.0  T
   4   -217.3581277 -0.123685E+00  0.173E+00    0.09       1.0  T
   5   -217.7257482 -0.367621E+00  0.109E+00    0.02       1.0  T
   6   -217.5573983  0.168350E+00  0.125E+00    0.05       1.0  T
   7   -217.5570031  0.395151E-03  0.142E+00    0.08       1.0  T
   8   -217.7176192 -0.160616E+00  0.110E+00    0.06       1.0  T
   9   -217.8847926 -0.167173E+00  0.642E-01    0.03       1.0  T
  10   -217.8641039  0.206887E-01  0.647E-01    0.03       1.0  T
  11   -217.9328206 -0.687168E-01  0.357E-01    0.02       1.0  T
  12   -217.8952697  0.375509E-01  0.517E-01    0.08       1.0  T
  13   -217.9375879 -0.423182E-01  0.309E-01    0.01       1.0  T
  14   -217.9523405 -0.147526E-01  0.203E-01    0.02       1.0  T
  15   -217.9386865  0.136540E-01  0.292E-01    0.01       1.0  T
  16   -217.9537067 -0.150201E-01  0.154E-01    0.04       1.0  T
  17   -217.9470373  0.666934E-02  0.209E-01    0.05       1.0  T
  18   -217.9545552 -0.751786E-02  0.112E-01    0.04       1.0  T
  19   -217.9565586 -0.200345E-02  0.580E-02    0.03       1.0  T
  20   -217.9566676 -0.108952E-03  0.483E-02    0.03       1.0  T
  21   -217.9567433 -0.757401E-04  0.452E-02    0.03       1.0  T
  22   -217.9570112 -0.267888E-03  0.312E-02    0.03       1.0  T
  23   -217.9572188 -0.207550E-03  0.107E-02    0.03       1.0  T
  24   -217.9572358 -0.170112E-04  0.492E-03    0.03       1.9  T
  25   -217.9572363 -0.481112E-06  0.421E-03    0.03       2.3  T
  26   -217.9572398 -0.355148E-05  0.178E-03    0.03       5.3  T
  27   -217.9572398  0.343951E-07  0.159E-03    0.03       6.0  T
  28   -217.9572403 -0.491288E-06  0.717E-04    0.03      13.2  T
  29   -217.9572403 -0.294274E-07  0.415E-04    0.03      22.9  T
     SCC iter.                  ...        0 min,  1.764 sec
     gradient                   ...        0 min,  0.041 sec
 * total energy  :  -214.0868004 Eh     change       -0.2185351E+01 Eh
   gradient norm :     1.6983660 Eh/α   predicted    -0.3517619E+01 (  60.96%)
   displ. norm   :     0.6311127 α      lambda       -0.9842593E+00
   maximum displ.:     0.1637905 α      in ANC's #212, #256, #234, ...

........................................................................
.............................. CYCLE    3 ..............................
........................................................................

 iter      E             dE          RMSdq      gap      omega  full diag
   1   -217.8472053 -0.217847E+03  0.194E+00    0.05       0.0  T
   2   -216.8946840  0.952521E+00  0.321E+00    0.04       1.0  T
   3   -217.4466892 -0.552005E+00  0.185E+00    0.06       1.0  T
   4   -216.9915928  0.455096E+00  0.207E+00    0.12       1.0  T
   5   -217.7700675 -0.778475E+00  0.125E+00    0.10       1.0  T
   6   -217.9307301 -0.160663E+00  0.931E-01    0.02       1.0  T
   7   -217.9644995 -0.337694E-01  0.829E-01    0.09       1.0  T
   8   -217.8015925  0.162907E+00  0.117E+00    0.05       1.0  T
   9   -217.9892689 -0.187676E+00  0.761E-01    0.12       1.0  T
  10   -218.0212058 -0.319369E-01  0.579E-01    0.08       1.0  T
  11   -218.0370620 -0.158562E-01  0.510E-01    0.06       1.0  T
  12   -218.0696375 -0.325755E-01  0.316E-01    0.05       1.0  T
  13   -218.0537606  0.158768E-01  0.394E-01    0.01       1.0  T
  14   -218.0774275 -0.236669E-01  0.222E-01    0.04       1.0  T
  15   -218.0468298  0.305977E-01  0.410E-01    0.02       1.0  T
  16   -218.0682249 -0.213951E-01  0.260E-01    0.02       1.0  T
  17   -218.0834652 -0.152403E-01  0.820E-02    0.04       1.0  T
  18   -218.0825676  0.897610E-03  0.946E-02    0.05       1.0  T
  19   -218.0838958 -0.132817E-02  0.528E-02    0.05       1.0  T
  20   -218.0839448 -0.489799E-04  0.475E-02    0.04       1.0  T
  21   -218.0841372 -0.192379E-03  0.260E-02    0.04       1.0  T
  22   -218.0842096 -0.724434E-04  0.187E-02    0.04       1.0  T
  23   -218.0842186 -0.904343E-05  0.146E-02    0.04       1.0  T
  24   -218.0842586 -0.399385E-04  0.412E-03    0.04       2.3  T
  25   -218.0842556  0.295389E-05  0.524E-03    0.04       1.8  T
  26   -218.0842607 -0.510946E-05  0.185E-03    0.05       5.1  T
  27   -218.0842610 -0.285033E-06  0.131E-03    0.05       7.2  T
  28   -218.0842611 -0.603682E-07  0.121E-03    0.05       7.8  T
  29   -218.0842613 -0.166326E-06  0.795E-04    0.05      11.9  T
  30   -218.0842614 -0.996034E-07  0.200E-04    0.05      47.5  T
     SCC iter.                  ...        0 min,  1.892 sec
     gradient                   ...        0 min,  0.040 sec
 * total energy  :  -214.8610280 Eh     change       -0.7742276E+00 Eh
   gradient norm :     1.0198961 Eh/α   predicted    -0.6881499E+00 ( -11.12%)
   displ. norm   :     0.7174187 α      lambda       -0.6857165E+00
   maximum displ.:     0.1745619 α      in ANC's #212, #295, #296, ...

........................................................................
.............................. CYCLE    4 ..............................
........................................................................

 iter      E             dE          RMSdq      gap      omega  full diag
   1   -218.0927683 -0.218093E+03  0.169E+00    0.04       0.0  T
   2   -217.5188811  0.573887E+00  0.259E+00    0.05       1.0  T
   3   -217.6169177 -0.980366E-01  0.195E+00    0.18       1.0  T
   4   -217.8231358 -0.206218E+00  0.145E+00    0.14       1.0  T
   5   -217.7441041  0.790317E-01  0.145E+00    0.12       1.0  T
   6   -218.0470611 -0.302957E+00  0.101E+00    0.15       1.0  T
   7   -217.9246905  0.122371E+00  0.139E+00    0.08       1.0  T
   8   -218.1754650 -0.250775E+00  0.739E-01    0.14       1.0  T
   9   -218.1924574 -0.169924E-01  0.776E-01    0.02       1.0  T
  10   -218.2203525 -0.278951E-01  0.575E-01    0.11       1.0  T
  11   -218.2671062 -0.467537E-01  0.291E-01    0.06       1.0  T
  12   -218.2797980 -0.126918E-01  0.159E-01    0.05       1.0  T
  13   -218.2332538  0.465442E-01  0.442E-01    0.03       1.0  T
  14   -218.2804739 -0.472202E-01  0.156E-01    0.04       1.0  T
  15   -218.2823397 -0.186580E-02  0.101E-01    0.04       1.0  T
  16   -218.2844277 -0.208797E-02  0.541E-02    0.05       1.0  T
  17   -218.2841080  0.319689E-03  0.679E-02    0.05       1.0  T
  18   -218.2849817 -0.873684E-03  0.222E-02    0.04       1.0  T
  19   -218.2850350 -0.532876E-04  0.172E-02    0.04       1.0  T
  20   -218.2850768 -0.418153E-04  0.797E-03    0.04       1.2  T
  21   -218.2850743  0.254763E-05  0.938E-03    0.04       1.0  T
  22   -218.2850875 -0.131963E-04  0.481E-03    0.04       2.0  T
  23   -218.2850908 -0.335022E-05  0.295E-03    0.04       3.2  T
  24   -218.2850928 -0.196825E-05  0.814E-04    0.04      11.7  T
  25   -218.2850928  0.101257E-07  0.744E-04    0.04      12.8  T
  26   -218.2850928 -0.496941E-07  0.464E-04    0.04      20.5  T
     SCC iter.                  ...        0 min,  1.589 sec
     gradient                   ...        0 min,  0.039 sec
 * total energy  :  -215.4337073 Eh     change       -0.5726793E+00 Eh
   gradient norm :     0.6749434 Eh/α   predicted    -0.5193238E+00 (  -9.32%)
   displ. norm   :     0.7827026 α      lambda       -0.5071501E+00
   maximum displ.:     0.2056528 α      in ANC's #223, #219, #212, ...

........................................................................
.............................. CYCLE    5 ..............................
........................................................................

 iter      E             dE          RMSdq      gap      omega  full diag
   1   -218.3938675 -0.218394E+03  0.986E-01    0.03       0.0  T
   2   -218.0738424  0.320025E+00  0.159E+00    0.11       1.0  T
   3   -217.6560460  0.417796E+00  0.172E+00    0.10       1.0  T
   4   -218.1666650 -0.510619E+00  0.118E+00    0.17       1.0  T
   5   -218.2631357 -0.964707E-01  0.103E+00    0.06       1.0  T
   6   -218.2498340  0.133017E-01  0.887E-01    0.02       1.0  T
   7   -218.2966893 -0.468553E-01  0.967E-01    0.06       1.0  T
   8   -218.4068215 -0.110132E+00  0.616E-01    0.11       1.0  T
   9   -218.2199574  0.186864E+00  0.102E+00    0.10       1.0  T
  10   -218.4030850 -0.183128E+00  0.627E-01    0.05       1.0  T
  11   -218.4401295 -0.370445E-01  0.449E-01    0.04       1.0  T
  12   -218.4500758 -0.994630E-02  0.391E-01    0.04       1.0  T
  13   -218.4508043 -0.728502E-03  0.374E-01    0.04       1.0  T
  14   -218.4720968 -0.212924E-01  0.174E-01    0.05       1.0  T
  15   -218.4785357 -0.643898E-02  0.699E-02    0.05       1.0  T
  16   -218.4790307 -0.494946E-03  0.547E-02    0.05       1.0  T
  17   -218.4793580 -0.327360E-03  0.271E-02    0.05       1.0  T
  18   -218.4793647 -0.665189E-05  0.230E-02    0.05       1.0  T
  19   -218.4793571  0.756544E-05  0.221E-02    0.04       1.0  T
  20   -218.4794438 -0.866280E-04  0.947E-03    0.05       1.0  T
  21   -218.4794517 -0.791264E-05  0.722E-03    0.05       1.3  T
  22   -218.4794593 -0.758854E-05  0.381E-03    0.05       2.5  T
  23   -218.4794583  0.987999E-06  0.416E-03    0.05       2.3  T
  24   -218.4794610 -0.268444E-05  0.203E-03    0.05       4.7  T
  25   -218.4794619 -0.910017E-06  0.568E-04    0.05      16.7  T
  26   -218.4794618  0.807673E-07  0.752E-04    0.05      12.6  T
     SCC iter.                  ...        0 min,  1.721 sec
     gradient                   ...        0 min,  0.039 sec
 * total energy  :  -215.8376188 Eh     change       -0.4039115E+00 Eh
   gradient norm :     0.4465688 Eh/α   predicted    -0.4089222E+00 (   1.24%)
   displ. norm   :     0.7039565 α      lambda       -0.2764011E+00
   maximum displ.:     0.1776193 α      in ANC's #223, #219, #212, ...

........................................................................
.............................. CYCLE    6 ..............................
........................................................................

 iter      E             dE          RMSdq      gap      omega  full diag
   1   -218.5616988 -0.218562E+03  0.645E-01    0.04       0.0  T
   2   -218.2438787  0.317820E+00  0.136E+00    0.15       1.0  T
   3   -218.3511827 -0.107304E+00  0.112E+00    0.04       1.0  T
   4   -218.0385608  0.312622E+00  0.154E+00    0.10       1.0  T
   5   -218.3248011 -0.286240E+00  0.103E+00    0.17       1.0  T
   6   -218.2009812  0.123820E+00  0.125E+00    0.02       1.0  T
   7   -218.5548519 -0.353871E+00  0.391E-01    0.05       1.0  T
   8   -218.4637415  0.911104E-01  0.727E-01    0.02       1.0  T
   9   -218.5652239 -0.101482E+00  0.284E-01    0.04       1.0  T
  10   -218.5712294 -0.600542E-02  0.235E-01    0.06       1.0  T
  11   -218.5776271 -0.639778E-02  0.150E-01    0.05       1.0  T
  12   -218.5755415  0.208563E-02  0.171E-01    0.06       1.0  T
  13   -218.5807616 -0.522010E-02  0.795E-02    0.04       1.0  T
  14   -218.5812136 -0.451991E-03  0.724E-02    0.04       1.0  T
  15   -218.5819819 -0.768334E-03  0.314E-02    0.04       1.0  T
  16   -218.5819679  0.139824E-04  0.304E-02    0.04       1.0  T
  17   -218.5820226 -0.546070E-04  0.224E-02    0.04       1.0  T
  18   -218.5820755 -0.529612E-04  0.163E-02    0.04       1.0  T
  19   -218.5821144 -0.388478E-04  0.105E-02    0.04       1.0  T
  20   -218.5821367 -0.223207E-04  0.161E-03    0.04       5.9  T
  21   -218.5821357  0.985857E-06  0.276E-03    0.04       3.4  T
  22   -218.5821371 -0.141042E-05  0.988E-04    0.04       9.6  T
  23   -218.5821371  0.285390E-07  0.102E-03    0.04       9.3  T
  24   -218.5821372 -0.973710E-07  0.856E-04    0.04      11.1  T
  25   -218.5821373 -0.111896E-06  0.473E-04    0.04      20.1  T
     SCC iter.                  ...        0 min,  1.468 sec
     gradient                   ...        0 min,  0.039 sec
 * total energy  :  -216.0453307 Eh     change       -0.2077119E+00 Eh
   gradient norm :     0.3252969 Eh/α   predicted    -0.2066865E+00 (  -0.49%)
   displ. norm   :     0.6245330 α      lambda       -0.1342058E+00
   maximum displ.:     0.1224609 α      in ANC's #146, #223, #55, ...

........................................................................
.............................. CYCLE    7 ..............................
........................................................................

 iter      E             dE          RMSdq      gap      omega  full diag
   1   -218.6245279 -0.218625E+03  0.507E-01    0.04       0.0  T
   2   -218.2914512  0.333077E+00  0.121E+00    0.05       1.0  T
   3   -218.2454958  0.459554E-01  0.134E+00    0.19       1.0  T
   4   -218.1939199  0.515760E-01  0.144E+00    0.10       1.0  T
   5   -218.5511711 -0.357251E+00  0.684E-01    0.06       1.0  T
   6   -218.3930045  0.158167E+00  0.979E-01    0.01       1.0  T
   7   -218.5451485 -0.152144E+00  0.650E-01    0.08       1.0  T
   8   -218.5966653 -0.515168E-01  0.431E-01    0.06       1.0  T
   9   -218.6027461 -0.608085E-02  0.378E-01    0.06       1.0  T
  10   -218.5922856  0.104605E-01  0.428E-01    0.09       1.0  T
  11   -218.6325912 -0.403056E-01  0.953E-02    0.04       1.0  T
  12   -218.6302022  0.238902E-02  0.134E-01    0.03       1.0  T
  13   -218.6335861 -0.338393E-02  0.582E-02    0.04       1.0  T
  14   -218.6337916 -0.205491E-03  0.553E-02    0.04       1.0  T
  15   -218.6342051 -0.413509E-03  0.304E-02    0.04       1.0  T
  16   -218.6342487 -0.435845E-04  0.250E-02    0.04       1.0  T
  17   -218.6343737 -0.125010E-03  0.616E-03    0.04       1.5  T
  18   -218.6343762 -0.246837E-05  0.434E-03    0.04       2.2  T
  19   -218.6343798 -0.362637E-05  0.166E-03    0.04       5.7  T
  20   -218.6343792  0.565267E-06  0.229E-03    0.04       4.1  T
  21   -218.6343800 -0.798454E-06  0.116E-03    0.04       8.2  T
  22   -218.6343803 -0.297371E-06  0.149E-04    0.04      63.6  T
  23   -218.6343803 -0.362391E-08  0.902E-05    0.04     105.2  T
     SCC iter.                  ...        0 min,  1.488 sec
     gradient                   ...        0 min,  0.039 sec
 * total energy  :  -216.1476711 Eh     change       -0.1023404E+00 Eh
   gradient norm :     0.2620514 Eh/α   predicted    -0.9327584E-01 (  -8.86%)
   displ. norm   :     0.6039215 α      lambda       -0.8028127E-01
   maximum displ.:     0.1392414 α      in ANC's #55, #83, #85, ...

........................................................................
.............................. CYCLE    8 ..............................
........................................................................

 iter      E             dE          RMSdq      gap      omega  full diag
   1   -218.6549773 -0.218655E+03  0.523E-01    0.04       0.0  T
   2   -217.7158524  0.939125E+00  0.190E+00    0.14       1.0  T
   3   -218.2345545 -0.518702E+00  0.149E+00    0.09       1.0  T
   4   -218.5501319 -0.315577E+00  0.778E-01    0.04       1.0  T
   5   -218.3293755  0.220756E+00  0.121E+00    0.02       1.0  T
   6   -218.5761640 -0.246789E+00  0.691E-01    0.09       1.0  T
   7   -218.4664222  0.109742E+00  0.100E+00    0.06       1.0  T
   8   -218.6509105 -0.184488E+00  0.366E-01    0.04       1.0  T
   9   -218.6497464  0.116414E-02  0.373E-01    0.06       1.0  T
  10   -218.6669774 -0.172310E-01  0.250E-01    0.05       1.0  T
  11   -218.6699887 -0.301132E-02  0.212E-01    0.05       1.0  T
  12   -218.6708012 -0.812498E-03  0.203E-01    0.05       1.0  T
  13   -218.6781517 -0.735048E-02  0.708E-02    0.04       1.0  T
  14   -218.6789283 -0.776542E-03  0.314E-02    0.04       1.0  T
  15   -218.6790656 -0.137306E-03  0.128E-02    0.04       1.0  T
  16   -218.6790666 -0.104743E-05  0.165E-02    0.04       1.0  T
  17   -218.6790860 -0.193937E-04  0.117E-02    0.04       1.0  T
  18   -218.6791058 -0.197679E-04  0.645E-03    0.04       1.5  T
  19   -218.6791095 -0.373327E-05  0.491E-03    0.04       1.9  T
  20   -218.6791141 -0.460031E-05  0.100E-03    0.04       9.5  T
  21   -218.6791141  0.496518E-07  0.116E-03    0.04       8.2  T
  22   -218.6791143 -0.275714E-06  0.259E-04    0.04      36.6  T
  23   -218.6791143  0.117890E-07  0.334E-04    0.04      28.4  T
     SCC iter.                  ...        0 min,  1.520 sec
     gradient                   ...        0 min,  0.040 sec
 * total energy  :  -216.2101505 Eh     change       -0.6247943E-01 Eh
   gradient norm :     0.1985653 Eh/α   predicted    -0.5478079E-01 ( -12.32%)
   displ. norm   :     0.5757218 α      lambda       -0.5281260E-01
   maximum displ.:     0.1397777 α      in ANC's #55, #52, #83, ...

........................................................................
.............................. CYCLE    9 ..............................
........................................................................

 iter      E             dE          RMSdq      gap      omega  full diag
   1   -218.6776747 -0.218678E+03  0.566E-01    0.05       0.0  T
   2   -217.5821340  0.109554E+01  0.213E+00    0.28       1.0  T
   3   -218.1765312 -0.594397E+00  0.167E+00    0.10       1.0  T
   4   -218.5266836 -0.350152E+00  0.956E-01    0.10       1.0  T
   5   -218.4580952  0.685884E-01  0.106E+00    0.02       1.0  T
   6   -218.5268513 -0.687561E-01  0.943E-01    0.03       1.0  T
   7   -218.6343521 -0.107501E+00  0.665E-01    0.07       1.0  T
   8   -218.7081758 -0.738237E-01  0.226E-01    0.04       1.0  T
   9   -218.6707886  0.373872E-01  0.474E-01    0.06       1.0  T
  10   -218.7130948 -0.423061E-01  0.156E-01    0.04       1.0  T
  11   -218.7128053  0.289464E-03  0.157E-01    0.04       1.0  T
  12   -218.7157379 -0.293256E-02  0.871E-02    0.04       1.0  T
  13   -218.7128498  0.288805E-02  0.146E-01    0.04       1.0  T
  14   -218.7165060 -0.365620E-02  0.588E-02    0.04       1.0  T
  15   -218.7170686 -0.562581E-03  0.244E-02    0.04       1.0  T
  16   -218.7171106 -0.419529E-04  0.164E-02    0.04       1.0  T
  17   -218.7171612 -0.506842E-04  0.763E-03    0.04       1.2  T
  18   -218.7171661 -0.486489E-05  0.575E-03    0.04       1.7  T
  19   -218.7171722 -0.608914E-05  0.214E-03    0.04       4.4  T
  20   -218.7171724 -0.197633E-06  0.196E-03    0.04       4.8  T
  21   -218.7171731 -0.705864E-06  0.419E-04    0.04      22.6  T
  22   -218.7171731 -0.112463E-07  0.339E-04    0.04      28.0  T
     SCC iter.                  ...        0 min,  1.385 sec
     gradient                   ...        0 min,  0.039 sec
 * total energy  :  -216.2498804 Eh     change       -0.3972994E-01 Eh
   gradient norm :     0.1216381 Eh/α   predicted    -0.3515881E-01 ( -11.51%)
   displ. norm   :     0.5483248 α      lambda       -0.2932144E-01
   maximum displ.:     0.1391238 α      in ANC's #17, #52, #18, ...

........................................................................
.............................. CYCLE   10 ..............................
........................................................................

 iter      E             dE          RMSdq      gap      omega  full diag
   1   -218.7037605 -0.218704E+03  0.510E-01    0.05       0.0  T
   2   -217.5965840  0.110718E+01  0.216E+00    0.24       1.0  T
   3   -218.3397374 -0.743153E+00  0.146E+00    0.03       1.0  T
   4   -218.5664559 -0.226718E+00  0.924E-01    0.10       1.0  T
   5   -218.5229879  0.434679E-01  0.973E-01    0.03       1.0  T
   6   -218.5521182 -0.291302E-01  0.944E-01    0.04       1.0  T
   7   -218.6754942 -0.123376E+00  0.584E-01    0.07       1.0  T
   8   -218.7345591 -0.590649E-01  0.181E-01    0.04       1.0  T
   9   -218.6938352  0.407239E-01  0.477E-01    0.06       1.0  T
  10   -218.7372013 -0.433661E-01  0.137E-01    0.04       1.0  T
  11   -218.7380780 -0.876654E-03  0.118E-01    0.04       1.0  T
  12   -218.7380148  0.632363E-04  0.110E-01    0.04       1.0  T
  13   -218.7399638 -0.194908E-02  0.483E-02    0.04       1.0  T
  14   -218.7401006 -0.136747E-03  0.395E-02    0.04       1.0  T
  15   -218.7403551 -0.254527E-03  0.149E-02    0.04       1.0  T
  16   -218.7403643 -0.923563E-05  0.139E-02    0.04       1.0  T
  17   -218.7403994 -0.350231E-04  0.549E-03    0.04       1.7  T
  18   -218.7404054 -0.605964E-05  0.176E-03    0.04       5.4  T
  19   -218.7404054  0.768282E-07  0.187E-03    0.04       5.1  T
  20   -218.7404058 -0.491072E-06  0.790E-04    0.04      12.0  T
  21   -218.7404059 -0.693109E-07  0.592E-04    0.04      16.0  T
     SCC iter.                  ...        0 min,  1.237 sec
     gradient                   ...        0 min,  0.041 sec
 * total energy  :  -216.2714720 Eh     change       -0.2159154E-01 Eh
   gradient norm :     0.0684167 Eh/α   predicted    -0.1906862E-01 ( -11.68%)
   displ. norm   :     0.5812893 α      lambda       -0.1681047E-01
   maximum displ.:     0.1888833 α      in ANC's #17, #18, #33, ...

........................................................................
.............................. CYCLE   11 ..............................
........................................................................

 iter      E             dE          RMSdq      gap      omega  full diag
   1   -218.7290802 -0.218729E+03  0.388E-01    0.05       0.0  T
   2   -217.8780917  0.850989E+00  0.191E+00    0.09       1.0  T
   3   -218.4868179 -0.608726E+00  0.121E+00    0.02       1.0  T
   4   -218.7170980 -0.230280E+00  0.425E-01    0.06       1.0  T
   5   -218.5168804  0.200218E+00  0.103E+00    0.05       1.0  T
   6   -218.5737155 -0.568351E-01  0.910E-01    0.05       1.0  T
   7   -218.7406119 -0.166896E+00  0.230E-01    0.05       1.0  T
   8   -218.7483752 -0.776331E-02  0.954E-02    0.04       1.0  T
   9   -218.7483978 -0.225687E-04  0.119E-01    0.04       1.0  T
  10   -218.7502639 -0.186613E-02  0.572E-02    0.04       1.0  T
  11   -218.7467579  0.350600E-02  0.143E-01    0.04       1.0  T
  12   -218.7497878 -0.302989E-02  0.713E-02    0.04       1.0  T
  13   -218.7502882 -0.500416E-03  0.501E-02    0.04       1.0  T
  14   -218.7506251 -0.336871E-03  0.271E-02    0.04       1.0  T
  15   -218.7507603 -0.135257E-03  0.801E-03    0.04       1.2  T
  16   -218.7507676 -0.720948E-05  0.524E-03    0.04       1.8  T
  17   -218.7507717 -0.415161E-05  0.284E-03    0.04       3.3  T
  18   -218.7507735 -0.176551E-05  0.731E-04    0.04      13.0  T
  19   -218.7507735 -0.148373E-08  0.714E-04    0.04      13.3  T
  20   -218.7507735 -0.693656E-07  0.379E-04    0.04      25.0  T
     SCC iter.                  ...        0 min,  1.255 sec
     gradient                   ...        0 min,  0.040 sec
 * total energy  :  -216.2847704 Eh     change       -0.1329837E-01 Eh
   gradient norm :     0.0535477 Eh/α   predicted    -0.1124535E-01 ( -15.44%)
   displ. norm   :     0.6520298 α      lambda       -0.1334238E-01
   maximum displ.:     0.2392937 α      in ANC's #17, #18, #33, ...

........................................................................
.............................. CYCLE   12 ..............................
........................................................................

 iter      E             dE          RMSdq      gap      omega  full diag
   1   -218.7534500 -0.218753E+03  0.288E-01    0.05       0.0  T
   2   -218.2995556  0.453894E+00  0.148E+00    0.07       1.0  T
   3   -218.5639971 -0.264442E+00  0.102E+00    0.10       1.0  T
   4   -218.7173465 -0.153349E+00  0.472E-01    0.06       1.0  T
   5   -218.5230756  0.194271E+00  0.103E+00    0.09       1.0  T
   6   -218.7239423 -0.200867E+00  0.435E-01    0.04       1.0  T
   7   -218.7552215 -0.312792E-01  0.197E-01    0.05       1.0  T
   8   -218.7595619 -0.434041E-02  0.142E-01    0.04       1.0  T
   9   -218.7561825  0.337939E-02  0.207E-01    0.04       1.0  T
  10   -218.7622476 -0.606510E-02  0.100E-01    0.04       1.0  T
  11   -218.7633093 -0.106174E-02  0.607E-02    0.04       1.0  T
  12   -218.7636246 -0.315300E-03  0.423E-02    0.04       1.0  T
  13   -218.7638751 -0.250433E-03  0.143E-02    0.05       1.0  T
  14   -218.7639017 -0.266381E-04  0.819E-03    0.04       1.2  T
  15   -218.7639131 -0.113984E-04  0.403E-03    0.05       2.4  T
  16   -218.7639141 -0.101568E-05  0.358E-03    0.04       2.6  T
  17   -218.7639164 -0.227638E-05  0.176E-03    0.05       5.4  T
  18   -218.7639168 -0.359421E-06  0.101E-03    0.05       9.4  T
  19   -218.7639169 -0.158987E-06  0.352E-04    0.05      27.0  T
  20   -218.7639169 -0.149004E-07  0.201E-04    0.05      47.1  T
     SCC iter.                  ...        0 min,  1.468 sec
     gradient                   ...        0 min,  0.039 sec
 * total energy  :  -216.2957840 Eh     change       -0.1101361E-01 Eh
   gradient norm :     0.0488566 Eh/α   predicted    -0.9507403E-02 ( -13.68%)
   displ. norm   :     0.7099939 α      lambda       -0.1146184E-01
   maximum displ.:     0.2740324 α      in ANC's #17, #18, #33, ...

........................................................................
.............................. CYCLE   13 ..............................
........................................................................

 iter      E             dE          RMSdq      gap      omega  full diag
   1   -218.7771020 -0.218777E+03  0.215E-01    0.05       0.0  T
   2   -218.4464662  0.330636E+00  0.131E+00    0.15       1.0  T
   3   -218.5486273 -0.102161E+00  0.105E+00    0.11       1.0  T
   4   -218.7607712 -0.212144E+00  0.335E-01    0.06       1.0  T
   5   -218.7311373  0.296339E-01  0.460E-01    0.06       1.0  T
   6   -218.7688466 -0.377093E-01  0.271E-01    0.03       1.0  T
   7   -218.7769502 -0.810362E-02  0.149E-01    0.05       1.0  T
   8   -218.7792823 -0.233208E-02  0.928E-02    0.04       1.0  T
   9   -218.7799574 -0.675150E-03  0.727E-02    0.05       1.0  T
  10   -218.7805461 -0.588641E-03  0.576E-02    0.05       1.0  T
  11   -218.7810613 -0.515197E-03  0.306E-02    0.05       1.0  T
  12   -218.7812096 -0.148328E-03  0.136E-02    0.05       1.0  T
  13   -218.7812313 -0.217493E-04  0.643E-03    0.05       1.5  T
  14   -218.7812368 -0.543524E-05  0.350E-03    0.05       2.7  T
  15   -218.7812379 -0.109832E-05  0.276E-03    0.05       3.4  T
  16   -218.7812393 -0.140039E-05  0.895E-04    0.05      10.6  T
  17   -218.7812390  0.258889E-06  0.138E-03    0.05       6.9  T
  18   -218.7812393 -0.337500E-06  0.516E-04    0.05      18.4  T
  19   -218.7812394 -0.444873E-07  0.177E-04    0.05      53.5  T
     SCC iter.                  ...        0 min,  1.192 sec
     gradient                   ...        0 min,  0.040 sec
 * total energy  :  -216.3055219 Eh     change       -0.9737959E-02 Eh
   gradient norm :     0.0471060 Eh/α   predicted    -0.8619835E-02 ( -11.48%)
   displ. norm   :     0.7523741 α      lambda       -0.1012469E-01
   maximum displ.:     0.2946438 α      in ANC's #17, #18, #33, ...

........................................................................
.............................. CYCLE   14 ..............................
........................................................................

 iter      E             dE          RMSdq      gap      omega  full diag
   1   -218.7965173 -0.218797E+03  0.184E-01    0.04       0.0  T
   2   -218.6911827  0.105335E+00  0.788E-01    0.05       1.0  T
   3   -218.6561324  0.350503E-01  0.808E-01    0.12       1.0  T
   4   -218.7612796 -0.105147E+00  0.441E-01    0.07       1.0  T
   5   -218.7588979  0.238164E-02  0.464E-01    0.02       1.0  T
   6   -218.7772536 -0.183557E-01  0.295E-01    0.05       1.0  T
   7   -218.7947030 -0.174494E-01  0.134E-01    0.05       1.0  T
   8   -218.7977193 -0.301627E-02  0.598E-02    0.05       1.0  T
   9   -218.7981650 -0.445705E-03  0.370E-02    0.05       1.0  T
  10   -218.7984773 -0.312368E-03  0.177E-02    0.05       1.0  T
  11   -218.7984850 -0.763553E-05  0.184E-02    0.05       1.0  T
  12   -218.7985368 -0.518017E-04  0.905E-03    0.05       1.0  T
  13   -218.7985350  0.176823E-05  0.869E-03    0.05       1.1  T
  14   -218.7985522 -0.172502E-04  0.143E-03    0.05       6.7  T
  15   -218.7985526 -0.338046E-06  0.843E-04    0.05      11.3  T
  16   -218.7985524  0.153124E-06  0.115E-03    0.05       8.3  T
  17   -218.7985526 -0.212377E-06  0.500E-04    0.05      19.0  T
     SCC iter.                  ...        0 min,  1.154 sec
     gradient                   ...        0 min,  0.039 sec
 * total energy  :  -216.3143022 Eh     change       -0.8780280E-02 Eh
   gradient norm :     0.0452622 Eh/α   predicted    -0.7927984E-02 (  -9.71%)
   displ. norm   :     0.7809076 α      lambda       -0.9048819E-02
   maximum displ.:     0.3048721 α      in ANC's #17, #18, #9, ...

........................................................................
.............................. CYCLE   15 ..............................
........................................................................

 iter      E             dE          RMSdq      gap      omega  full diag
   1   -218.8096733 -0.218810E+03  0.196E-01    0.04       0.0  T
   2   -218.4747401  0.334933E+00  0.130E+00    0.25       1.0  T
   3   -218.6389735 -0.164233E+00  0.942E-01    0.12       1.0  T
   4   -218.7791394 -0.140166E+00  0.440E-01    0.05       1.0  T
   5   -218.7733474  0.579209E-02  0.446E-01    0.01       1.0  T
   6   -218.8060959 -0.327486E-01  0.175E-01    0.05       1.0  T
   7   -218.8060980 -0.209688E-05  0.165E-01    0.05       1.0  T
   8   -218.8087542 -0.265612E-02  0.112E-01    0.04       1.0  T
   9   -218.8115754 -0.282121E-02  0.604E-02    0.04       1.0  T
  10   -218.8124347 -0.859318E-03  0.187E-02    0.05       1.0  T
  11   -218.8124658 -0.311166E-04  0.111E-02    0.04       1.0  T
  12   -218.8124905 -0.246584E-04  0.458E-03    0.04       2.1  T
  13   -218.8124925 -0.206979E-05  0.301E-03    0.04       3.2  T
  14   -218.8124943 -0.172436E-05  0.117E-03    0.04       8.1  T
  15   -218.8124941  0.175076E-06  0.136E-03    0.04       7.0  T
  16   -218.8124945 -0.379606E-06  0.369E-04    0.04      25.7  T
  17   -218.8124945 -0.225263E-07  0.183E-04    0.04      52.0  T
     SCC iter.                  ...        0 min,  1.211 sec
     gradient                   ...        0 min,  0.039 sec
 * total energy  :  -216.3222375 Eh     change       -0.7935268E-02 Eh
   gradient norm :     0.0414901 Eh/α   predicted    -0.7283474E-02 (  -8.21%)
   displ. norm   :     0.7985336 α      lambda       -0.8090786E-02
   maximum displ.:     0.3103217 α      in ANC's #17, #18, #9, ...

........................................................................
.............................. CYCLE   16 ..............................
........................................................................

 iter      E             dE          RMSdq      gap      omega  full diag
   1   -218.8168368 -0.218817E+03  0.235E-01    0.03       0.0  T
   2   -218.4099618  0.406875E+00  0.141E+00    0.30       1.0  T
   3   -218.7476061 -0.337644E+00  0.615E-01    0.09       1.0  T
   4   -218.7907433 -0.431372E-01  0.433E-01    0.02       1.0  T
   5   -218.7469453  0.437981E-01  0.645E-01    0.02       1.0  T
   6   -218.8173949 -0.704496E-01  0.141E-01    0.05       1.0  T
   7   -218.8108165  0.657839E-02  0.215E-01    0.05       1.0  T
   8   -218.8213936 -0.105771E-01  0.657E-02    0.04       1.0  T
   9   -218.8198504  0.154321E-02  0.105E-01    0.04       1.0  T
  10   -218.8220275 -0.217709E-02  0.368E-02    0.03       1.0  T
  11   -218.8221792 -0.151664E-03  0.257E-02    0.04       1.0  T
  12   -218.8222290 -0.498069E-04  0.190E-02    0.04       1.0  T
  13   -218.8222772 -0.482109E-04  0.913E-03    0.04       1.0  T
  14   -218.8222882 -0.110252E-04  0.401E-03    0.04       2.4  T
  15   -218.8222894 -0.115548E-05  0.271E-03    0.04       3.5  T
  16   -218.8222908 -0.140147E-05  0.106E-03    0.04       9.0  T
  17   -218.8222909 -0.158179E-06  0.529E-04    0.04      18.0  T
  18   -218.8222910 -0.614259E-07  0.889E-05    0.04     106.8  T
     SCC iter.                  ...        0 min,  1.082 sec
     gradient                   ...        0 min,  0.041 sec
 * total energy  :  -216.3294328 Eh     change       -0.7195280E-02 Eh
   gradient norm :     0.0372703 Eh/α   predicted    -0.6624964E-02 (  -7.93%)
   displ. norm   :     0.8200512 α      lambda       -0.7580882E-02
   maximum displ.:     0.3140587 α      in ANC's #17, #18, #9, ...

........................................................................
.............................. CYCLE   17 ..............................
........................................................................

 iter      E             dE          RMSdq      gap      omega  full diag
   1   -218.8201329 -0.218820E+03  0.294E-01    0.02       0.0  T
   2   -218.4082048  0.411928E+00  0.141E+00    0.35       1.0  T
   3   -218.7153385 -0.307134E+00  0.745E-01    0.12       1.0  T
   4   -218.7811065 -0.657680E-01  0.496E-01    0.03       1.0  T
   5   -218.6936133  0.874933E-01  0.757E-01    0.05       1.0  T
   6   -218.8063845 -0.112771E+00  0.287E-01    0.03       1.0  T
   7   -218.8187821 -0.123976E-01  0.230E-01    0.05       1.0  T
   8   -218.8160898  0.269231E-02  0.231E-01    0.05       1.0  T
   9   -218.8269986 -0.109088E-01  0.104E-01    0.04       1.0  T
  10   -218.8279967 -0.998135E-03  0.745E-02    0.04       1.0  T
  11   -218.8279498  0.469268E-04  0.675E-02    0.04       1.0  T
  12   -218.8284258 -0.476012E-03  0.477E-02    0.04       1.0  T
  13   -218.8286674 -0.241580E-03  0.307E-02    0.04       1.0  T
  14   -218.8287675 -0.100096E-03  0.189E-02    0.03       1.0  T
  15   -218.8288299 -0.624170E-04  0.102E-02    0.03       1.0  T
  16   -218.8288485 -0.186045E-04  0.261E-03    0.03       3.6  T
  17   -218.8288494 -0.909228E-06  0.146E-03    0.03       6.5  T
  18   -218.8288497 -0.315400E-06  0.456E-04    0.03      20.8  T
  19   -218.8288498 -0.362184E-07  0.374E-04    0.03      25.4  T
     SCC iter.                  ...        0 min,  1.480 sec
     gradient                   ...        0 min,  0.039 sec
 * total energy  :  -216.3364499 Eh     change       -0.7017159E-02 Eh
   gradient norm :     0.0344350 Eh/α   predicted    -0.6339478E-02 (  -9.66%)
   displ. norm   :     0.8701165 α      lambda       -0.8240525E-02
   maximum displ.:     0.3232855 α      in ANC's #17, #18, #8, ...

........................................................................
.............................. CYCLE   18 ..............................
........................................................................

 iter      E             dE          RMSdq      gap      omega  full diag
   1   -218.8158575 -0.218816E+03  0.416E-01    0.02       0.0  T
   2   -218.5497635  0.266094E+00  0.108E+00    0.25       1.0  T
   3   -218.5784521 -0.286886E-01  0.108E+00    0.25       1.0  T
   4   -218.7595163 -0.181064E+00  0.590E-01    0.04       1.0  T
   5   -218.5767640  0.182752E+00  0.948E-01    0.13       1.0  T
   6   -218.7903804 -0.213616E+00  0.444E-01    0.06       1.0  T
   7   -218.7940363 -0.365585E-02  0.430E-01    0.08       1.0  T
   8   -218.8194472 -0.254109E-01  0.250E-01    0.05       1.0  T
   9   -218.8213413 -0.189407E-02  0.251E-01    0.06       1.0  T
  10   -218.8285653 -0.722401E-02  0.146E-01    0.04       1.0  T
  11   -218.8286416 -0.763399E-04  0.140E-01    0.05       1.0  T
  12   -218.8316362 -0.299453E-02  0.655E-02    0.04       1.0  T
  13   -218.8321033 -0.467087E-03  0.349E-02    0.03       1.0  T
  14   -218.8323035 -0.200293E-03  0.108E-02    0.03       1.0  T
  15   -218.8323249 -0.213805E-04  0.615E-03    0.03       1.5  T
  16   -218.8323271 -0.216487E-05  0.547E-03    0.03       1.7  T
  17   -218.8323304 -0.329047E-05  0.352E-03    0.03       2.7  T
  18   -218.8323322 -0.178068E-05  0.140E-03    0.03       6.8  T
  19   -218.8323324 -0.219100E-06  0.104E-03    0.03       9.2  T
  20   -218.8323325 -0.163881E-06  0.381E-04    0.03      24.9  T
  21   -218.8323326 -0.259479E-07  0.773E-05    0.03     122.8  T
     SCC iter.                  ...        0 min,  1.318 sec
     gradient                   ...        0 min,  0.041 sec
 * total energy  :  -216.3446544 Eh     change       -0.8204532E-02 Eh
   gradient norm :     0.0366076 Eh/α   predicted    -0.7239727E-02 ( -11.76%)
   displ. norm   :     0.8714469 α      lambda       -0.8603537E-02
   maximum displ.:     0.3219283 α      in ANC's #17, #8, #18, ...

........................................................................
.............................. CYCLE   19 ..............................
........................................................................

 iter      E             dE          RMSdq      gap      omega  full diag
   1   -218.8076112 -0.218808E+03  0.468E-01    0.01       0.0  T
   2   -218.6201433  0.187468E+00  0.903E-01    0.18       1.0  T
   3   -218.7234675 -0.103324E+00  0.692E-01    0.12       1.0  T
   4   -218.7424130 -0.189456E-01  0.580E-01    0.10       1.0  T
   5   -218.5772783  0.165135E+00  0.926E-01    0.15       1.0  T
   6   -218.7933590 -0.216081E+00  0.380E-01    0.06       1.0  T
   7   -218.8252144 -0.318554E-01  0.130E-01    0.04       1.0  T
   8   -218.8278858 -0.267146E-02  0.952E-02    0.02       1.0  T
   9   -218.8274689  0.416971E-03  0.868E-02    0.02       1.0  T
  10   -218.8281135 -0.644658E-03  0.893E-02    0.03       1.0  T
  11   -218.8285023 -0.388829E-03  0.697E-02    0.03       1.0  T
  12   -218.8292492 -0.746813E-03  0.245E-02    0.02       1.0  T
  13   -218.8291483  0.100836E-03  0.322E-02    0.03       1.0  T
  14   -218.8294180 -0.269723E-03  0.889E-03    0.02       1.1  T
  15   -218.8294325 -0.144299E-04  0.538E-03    0.02       1.8  T
  16   -218.8294378 -0.535784E-05  0.193E-03    0.02       4.9  T
  17   -218.8294385 -0.671759E-06  0.736E-04    0.02      12.9  T
  18   -218.8294386 -0.630069E-07  0.359E-04    0.02      26.4  T
     SCC iter.                  ...        0 min,  1.207 sec
     gradient                   ...        0 min,  0.040 sec
 * total energy  :  -216.3540439 Eh     change       -0.9389455E-02 Eh
   gradient norm :     0.0465393 Eh/α   predicted    -0.7568646E-02 ( -19.39%)
   displ. norm   :     0.8347844 α      lambda       -0.1083457E-01
   maximum displ.:     0.2972401 α      in ANC's #17, #8, #20, ...

........................................................................
.............................. CYCLE   20 ..............................
........................................................................

 iter      E             dE          RMSdq      gap      omega  full diag
   1   -218.8088653 -0.218809E+03  0.455E-01    0.00       0.0  T
   2   -218.5212019  0.287663E+00  0.113E+00    0.27       1.0  T
   3   -218.7148767 -0.193675E+00  0.722E-01    0.12       1.0  T
   4   -218.7518086 -0.369319E-01  0.531E-01    0.07       1.0  T
   5   -218.5701914  0.181617E+00  0.935E-01    0.31       1.0  T
   6   -218.7993660 -0.229175E+00  0.411E-01    0.03       1.0  T
   7   -218.8121155 -0.127495E-01  0.230E-01    0.04       1.0  T
   8   -218.8259897 -0.138742E-01  0.979E-02    0.02       1.0  T
   9   -218.8262825 -0.292788E-03  0.749E-02    0.01       1.0  T
  10   -218.8256031  0.679381E-03  0.914E-02    0.02       1.0  T
  11   -218.8225273  0.307587E-02  0.132E-01    0.02       1.0  T
  12   -218.8255340 -0.300674E-02  0.832E-02    0.02       1.0  T
  13   -218.8274554 -0.192143E-02  0.289E-02    0.01       1.0  T
  14   -218.8274754 -0.200088E-04  0.232E-02    0.02       1.0  T
  15   -218.8276173 -0.141801E-03  0.669E-03    0.01       1.4  T
  16   -218.8276228 -0.558924E-05  0.325E-03    0.01       2.9  T
  17   -218.8276239 -0.106513E-05  0.243E-03    0.01       3.9  T
  18   -218.8276253 -0.141478E-05  0.566E-04    0.01      16.8  T
  19   -218.8276254 -0.364959E-07  0.272E-04    0.01      34.9  T
  20   -218.8276254 -0.150376E-07  0.128E-04    0.01      74.3  T
     SCC iter.                  ...        0 min,  1.154 sec
     gradient                   ...        0 min,  0.039 sec
 * total energy  :  -216.3664771 Eh     change       -0.1243322E-01 Eh
   gradient norm :     0.0578654 Eh/α   predicted    -0.9192431E-02 ( -26.07%)
   displ. norm   :     0.8073706 α      lambda       -0.1507633E-01
   maximum displ.:     0.2772692 α      in ANC's #17, #20, #8, ...
 * RMSD in coord.:     0.9108006 α      energy gain  -0.4465028E+01 Eh

generating ANC from model Hessian ...
Using Lindh-Hessian (1995)
 Shifting diagonal of input Hessian by    9.9378139675148618E-003
 Lowest  eigenvalues of input Hessian
    0.000000    0.000000    0.000000    0.000000    0.000000    0.000000
    0.010000    0.010052    0.010116    0.010139    0.010292    0.010351
    0.010415    0.010480    0.010599    0.010640    0.010752    0.010841
 Highest eigenvalues
    2.599907    2.606789    2.612411    2.634550    2.655344    2.680657


........................................................................
.............................. CYCLE   21 ..............................
........................................................................

 iter      E             dE          RMSdq      gap      omega  full diag
   1   -218.8143305 -0.218814E+03  0.401E-01    0.01       0.0  T
   2   -218.4438493  0.370481E+00  0.133E+00    0.33       1.0  T
   3   -218.7533806 -0.309531E+00  0.592E-01    0.09       1.0  T
   4   -218.6818684  0.715122E-01  0.692E-01    0.14       1.0  T
   5   -218.6090021  0.728663E-01  0.866E-01    0.29       1.0  T
   6   -218.8047158 -0.195714E+00  0.322E-01    0.03       1.0  T
   7   -218.8075902 -0.287440E-02  0.273E-01    0.02       1.0  T
   8   -218.8193632 -0.117731E-01  0.171E-01    0.00       1.0  T
   9   -218.8223758 -0.301252E-02  0.117E-01    0.01       1.0  T
  10   -218.8240882 -0.171242E-02  0.806E-02    0.02       1.0  T
  11   -218.8237124  0.375757E-03  0.781E-02    0.02       1.0  T
  12   -218.8250514 -0.133895E-02  0.454E-02    0.01       1.0  T
  13   -218.8255051 -0.453725E-03  0.279E-02    0.00       1.0  T
  14   -218.8256134 -0.108264E-03  0.145E-02    0.01       1.0  T
  15   -218.8256542 -0.408050E-04  0.644E-03    0.00       1.5  T
  16   -218.8256657 -0.114897E-04  0.168E-03    0.00       5.6  T
  17   -218.8256660 -0.304646E-06  0.102E-03    0.00       9.3  T
  18   -218.8256661 -0.169611E-06  0.370E-04    0.01      25.6  T
  19   -218.8256661  0.312515E-07  0.428E-04    0.00      22.2  T
     SCC iter.                  ...        0 min,  1.323 sec
     gradient                   ...        0 min,  0.038 sec
 * total energy  :  -216.3838933 Eh     change       -0.1741614E-01 Eh
   gradient norm :     0.0694735 Eh/α   predicted     0.0000000E+00 (-100.00%)
   displ. norm   :     0.6432679 α      lambda       -0.2364924E-01
   maximum displ.:     0.2501699 α      in ANC's #34, #23, #25, ...

........................................................................
.............................. CYCLE   22 ..............................
........................................................................

 iter      E             dE          RMSdq      gap      omega  full diag
   1   -218.8423524 -0.218842E+03  0.263E-01    0.01       0.0  T
   2   -218.5621798  0.280173E+00  0.116E+00    0.18       1.0  T
   3   -218.8228759 -0.260696E+00  0.330E-01    0.03       1.0  T
   4   -218.6653779  0.157498E+00  0.776E-01    0.22       1.0  T
   5   -218.8303965 -0.165019E+00  0.263E-01    0.03       1.0  T
   6   -218.8361847 -0.578821E-02  0.210E-01    0.00       1.0  T
   7   -218.8223567  0.138281E-01  0.291E-01    0.05       1.0  T
   8   -218.8414917 -0.191350E-01  0.132E-01    0.01       1.0  T
   9   -218.8435610 -0.206939E-02  0.982E-02    0.01       1.0  T
  10   -218.8444098 -0.848736E-03  0.708E-02    0.01       1.0  T
  11   -218.8443799  0.298318E-04  0.630E-02    0.01       1.0  T
  12   -218.8450305 -0.650580E-03  0.306E-02    0.01       1.0  T
  13   -218.8451932 -0.162687E-03  0.135E-02    0.01       1.0  T
  14   -218.8451916  0.160397E-05  0.132E-02    0.01       1.0  T
  15   -218.8452497 -0.580416E-04  0.171E-03    0.01       5.5  T
  16   -218.8452501 -0.472954E-06  0.977E-04    0.01       9.7  T
  17   -218.8452500  0.777969E-07  0.943E-04    0.01      10.1  T
     SCC iter.                  ...        0 min,  1.139 sec
     gradient                   ...        0 min,  0.040 sec
 * total energy  :  -216.4073674 Eh     change       -0.2347418E-01 Eh
   gradient norm :     0.0635663 Eh/α   predicted    -0.1671797E-01 ( -28.78%)
   displ. norm   :     0.9422490 α      lambda       -0.3901263E-01
   maximum displ.:     0.3583811 α      in ANC's #34, #23, #25, ...

........................................................................
.............................. CYCLE   23 ..............................
........................................................................

 iter      E             dE          RMSdq      gap      omega  full diag
   1   -218.8475358 -0.218848E+03  0.414E-01    0.01       0.0  T
   2   -218.7457559  0.101780E+00  0.618E-01    0.11       1.0  T
   3   -218.6931663  0.525896E-01  0.756E-01    0.15       1.0  T
   4   -218.5826252  0.110541E+00  0.109E+00    0.12       1.0  T
   5   -218.7809872 -0.198362E+00  0.492E-01    0.06       1.0  T
   6   -218.6932661  0.877210E-01  0.889E-01    0.08       1.0  T
   7   -218.8380998 -0.144834E+00  0.200E-01    0.03       1.0  T
   8   -218.8466500 -0.855017E-02  0.121E-01    0.01       1.0  T
   9   -218.8479316 -0.128160E-02  0.951E-02    0.01       1.0  T
  10   -218.8494639 -0.153225E-02  0.595E-02    0.01       1.0  T
  11   -218.8499594 -0.495518E-03  0.336E-02    0.01       1.0  T
  12   -218.8501757 -0.216342E-03  0.148E-02    0.00       1.0  T
  13   -218.8501459  0.297933E-04  0.176E-02    0.01       1.0  T
  14   -218.8502352 -0.892743E-04  0.490E-03    0.00       1.9  T
  15   -218.8502419 -0.673818E-05  0.179E-03    0.00       5.3  T
  16   -218.8502408  0.114693E-05  0.256E-03    0.00       3.7  T
  17   -218.8502425 -0.170245E-05  0.121E-03    0.00       7.8  T
  18   -218.8502427 -0.189171E-06  0.711E-04    0.00      13.3  T
  19   -218.8502428 -0.128204E-06  0.210E-04    0.00      45.2  T
     SCC iter.                  ...        0 min,  1.275 sec
     gradient                   ...        0 min,  0.038 sec
 * total energy  :  -216.4445266 Eh     change       -0.3715919E-01 Eh
   gradient norm :     0.0758320 Eh/α   predicted    -0.3682467E-01 (  -0.90%)
   displ. norm   :     0.9325012 α      lambda       -0.3589077E-01
   maximum displ.:     0.3703507 α      in ANC's #34, #23, #25, ...

........................................................................
.............................. CYCLE   24 ..............................
........................................................................

 iter      E             dE          RMSdq      gap      omega  full diag
   1   -218.8442490 -0.218844E+03  0.371E-01    0.02       0.0  T
   2   -218.7506266  0.936225E-01  0.622E-01    0.10       1.0  T
   3   -218.7141068  0.365198E-01  0.697E-01    0.13       1.0  T
   4   -218.6290784  0.850284E-01  0.998E-01    0.10       1.0  T
   5   -218.8226640 -0.193586E+00  0.353E-01    0.04       1.0  T
   6   -218.8334933 -0.108293E-01  0.277E-01    0.04       1.0  T
   7   -218.8401108 -0.661748E-02  0.209E-01    0.03       1.0  T
   8   -218.8389020  0.120881E-02  0.216E-01    0.04       1.0  T
   9   -218.8455903 -0.668828E-02  0.136E-01    0.02       1.0  T
  10   -218.8475842 -0.199395E-02  0.863E-02    0.02       1.0  T
  11   -218.8489485 -0.136430E-02  0.122E-02    0.03       1.0  T
  12   -218.8488907  0.578321E-04  0.185E-02    0.03       1.0  T
  13   -218.8489200 -0.293649E-04  0.120E-02    0.03       1.0  T
  14   -218.8489450 -0.249431E-04  0.791E-03    0.03       1.2  T
  15   -218.8489551 -0.100953E-04  0.653E-03    0.03       1.5  T
  16   -218.8489636 -0.852530E-05  0.176E-03    0.03       5.4  T
  17   -218.8489642 -0.563508E-06  0.835E-04    0.03      11.4  T
  18   -218.8489642 -0.391114E-08  0.790E-04    0.03      12.0  T
     SCC iter.                  ...        0 min,  1.273 sec
     gradient                   ...        0 min,  0.044 sec
 * total energy  :  -216.4778484 Eh     change       -0.3332178E-01 Eh
   gradient norm :     0.1132083 Eh/α   predicted    -0.3355012E-01 (   0.69%)
   displ. norm   :     0.8958932 α      lambda       -0.3251209E-01
   maximum displ.:     0.3824725 α      in ANC's #34, #23, #31, ...

........................................................................
.............................. CYCLE   25 ..............................
........................................................................

 iter      E             dE          RMSdq      gap      omega  full diag
   1   -218.8572592 -0.218857E+03  0.251E-01    0.06       0.0  T
   2   -218.8323280  0.249312E-01  0.391E-01    0.01       1.0  T
   3   -218.7956687  0.366593E-01  0.509E-01    0.12       1.0  T
   4   -218.7443536  0.513152E-01  0.610E-01    0.10       1.0  T
   5   -218.6871908  0.571628E-01  0.917E-01    0.07       1.0  T
   6   -218.8470132 -0.159822E+00  0.209E-01    0.05       1.0  T
   7   -218.8474536 -0.440366E-03  0.209E-01    0.06       1.0  T
   8   -218.8531129 -0.565927E-02  0.154E-01    0.07       1.0  T
   9   -218.8570271 -0.391429E-02  0.735E-02    0.06       1.0  T
  10   -218.8581381 -0.111096E-02  0.224E-02    0.05       1.0  T
  11   -218.8581222  0.159506E-04  0.232E-02    0.05       1.0  T
  12   -218.8582609 -0.138786E-03  0.608E-03    0.05       1.6  T
  13   -218.8582700 -0.907617E-05  0.248E-03    0.05       3.8  T
  14   -218.8582707 -0.694714E-06  0.132E-03    0.05       7.2  T
  15   -218.8582692  0.150853E-05  0.239E-03    0.05       4.0  T
  16   -218.8582709 -0.170062E-05  0.640E-04    0.05      14.8  T
  17   -218.8582709 -0.349372E-07  0.436E-04    0.05      21.8  T
  18   -218.8582710 -0.429322E-07  0.117E-04    0.05      81.1  T
     SCC iter.                  ...        0 min,  1.403 sec
     gradient                   ...        0 min,  0.041 sec
 * total energy  :  -216.5064436 Eh     change       -0.2859524E-01 Eh
   gradient norm :     0.1369439 Eh/α   predicted    -0.2930353E-01 (   2.48%)
   displ. norm   :     0.7490336 α      lambda       -0.3003761E-01
   maximum displ.:     0.3328868 α      in ANC's #34, #23, #31, ...

........................................................................
.............................. CYCLE   26 ..............................
........................................................................

 iter      E             dE          RMSdq      gap      omega  full diag
   1   -218.8838580 -0.218884E+03  0.202E-01    0.09       0.0  T
   2   -218.6297758  0.254082E+00  0.112E+00    0.12       1.0  T
   3   -218.8687447 -0.238969E+00  0.265E-01    0.08       1.0  T
   4   -218.8207171  0.480276E-01  0.483E-01    0.12       1.0  T
   5   -218.8822062 -0.614891E-01  0.160E-01    0.05       1.0  T
   6   -218.8207446  0.614616E-01  0.564E-01    0.02       1.0  T
   7   -218.8863296 -0.655850E-01  0.593E-02    0.07       1.0  T
   8   -218.8870170 -0.687360E-03  0.209E-02    0.06       1.0  T
   9   -218.8870480 -0.309778E-04  0.170E-02    0.06       1.0  T
  10   -218.8870633 -0.153635E-04  0.140E-02    0.06       1.0  T
  11   -218.8870898 -0.265206E-04  0.881E-03    0.06       1.1  T
  12   -218.8871051 -0.152555E-04  0.303E-03    0.06       3.1  T
  13   -218.8871070 -0.185081E-05  0.527E-04    0.06      18.0  T
  14   -218.8871069  0.698672E-07  0.707E-04    0.06      13.4  T
  15   -218.8871070 -0.738158E-07  0.358E-04    0.06      26.5  T
     SCC iter.                  ...        0 min,  1.199 sec
     gradient                   ...        0 min,  0.040 sec
 * total energy  :  -216.5324411 Eh     change       -0.2599745E-01 Eh
   gradient norm :     0.1289115 Eh/α   predicted    -0.2344520E-01 (  -9.82%)
   displ. norm   :     0.6490779 α      lambda       -0.3843509E-01
   maximum displ.:     0.2671993 α      in ANC's #34, #23, #31, ...

........................................................................
.............................. CYCLE   27 ..............................
........................................................................

 iter      E             dE          RMSdq      gap      omega  full diag
   1   -218.9397774 -0.218940E+03  0.253E-01    0.11       0.0  T
   2   -218.6557374  0.284040E+00  0.118E+00    0.13       1.0  T
   3   -218.9454747 -0.289737E+00  0.120E-01    0.07       1.0  T
   4   -218.9264169  0.190578E-01  0.286E-01    0.06       1.0  T
   5   -218.8968637  0.295532E-01  0.393E-01    0.08       1.0  T
   6   -218.9397743 -0.429106E-01  0.175E-01    0.05       1.0  T
   7   -218.9434696 -0.369530E-02  0.109E-01    0.06       1.0  T
   8   -218.9459725 -0.250290E-02  0.217E-02    0.07       1.0  T
   9   -218.9460078 -0.353592E-04  0.127E-02    0.07       1.0  T
  10   -218.9460198 -0.119576E-04  0.103E-02    0.06       1.0  T
  11   -218.9460418 -0.220140E-04  0.187E-03    0.07       5.1  T
  12   -218.9460415  0.354821E-06  0.204E-03    0.07       4.6  T
  13   -218.9460422 -0.770759E-06  0.504E-04    0.07      18.8  T
  14   -218.9460422  0.469173E-07  0.616E-04    0.07      15.4  T
     SCC iter.                  ...        0 min,  1.291 sec
     gradient                   ...        0 min,  0.040 sec
 * total energy  :  -216.5621097 Eh     change       -0.2966860E-01 Eh
   gradient norm :     0.0832571 Eh/α   predicted    -0.2731420E-01 (  -7.94%)
   displ. norm   :     0.7703268 α      lambda       -0.2842346E-01
   maximum displ.:     0.3195884 α      in ANC's #34, #23, #25, ...

........................................................................
.............................. CYCLE   28 ..............................
........................................................................

 iter      E             dE          RMSdq      gap      omega  full diag
   1   -218.9826987 -0.218983E+03  0.243E-01    0.11       0.0  T
   2   -218.7085772  0.274122E+00  0.116E+00    0.13       1.0  T
   3   -218.9761723 -0.267595E+00  0.217E-01    0.09       1.0  T
   4   -218.8980869  0.780854E-01  0.538E-01    0.09       1.0  T
   5   -218.9406365 -0.425495E-01  0.460E-01    0.02       1.0  T
   6   -218.9832923 -0.426559E-01  0.140E-01    0.06       1.0  T
   7   -218.9855135 -0.222116E-02  0.709E-02    0.07       1.0  T
   8   -218.9866016 -0.108807E-02  0.366E-02    0.08       1.0  T
   9   -218.9868647 -0.263087E-03  0.126E-02    0.07       1.0  T
  10   -218.9868616  0.304147E-05  0.124E-02    0.07       1.0  T
  11   -218.9868949 -0.332877E-04  0.489E-03    0.07       1.9  T
  12   -218.9869004 -0.551474E-05  0.106E-03    0.07       9.0  T
  13   -218.9869005 -0.116525E-06  0.638E-04    0.07      14.9  T
  14   -218.9869005  0.143967E-07  0.601E-04    0.07      15.8  T
     SCC iter.                  ...        0 min,  0.887 sec
     gradient                   ...        0 min,  0.041 sec
 * total energy  :  -216.5852748 Eh     change       -0.2316507E-01 Eh
   gradient norm :     0.0552330 Eh/α   predicted    -0.2264505E-01 (  -2.24%)
   displ. norm   :     0.7583873 α      lambda       -0.2390334E-01
   maximum displ.:     0.2185600 α      in ANC's #34, #31, #25, ...

........................................................................
.............................. CYCLE   29 ..............................
........................................................................

 iter      E             dE          RMSdq      gap      omega  full diag
   1   -219.0067757 -0.219007E+03  0.316E-01    0.13       0.0  T
   2   -218.7270620  0.279714E+00  0.118E+00    0.14       1.0  T
   3   -218.9713197 -0.244258E+00  0.414E-01    0.18       1.0  T
   4   -218.9069341  0.643855E-01  0.617E-01    0.20       1.0  T
   5   -219.0058228 -0.988886E-01  0.149E-01    0.08       1.0  T
   6   -219.0018742  0.394860E-02  0.195E-01    0.08       1.0  T
   7   -219.0087628 -0.688863E-02  0.103E-01    0.11       1.0  T
   8   -219.0104530 -0.169016E-02  0.610E-02    0.10       1.0  T
   9   -219.0110467 -0.593727E-03  0.229E-02    0.09       1.0  T
  10   -219.0110968 -0.500602E-04  0.138E-02    0.08       1.0  T
  11   -219.0111010 -0.422462E-05  0.107E-02    0.08       1.0  T
  12   -219.0111288 -0.277863E-04  0.376E-03    0.09       2.5  T
  13   -219.0111304 -0.163999E-05  0.193E-03    0.09       4.9  T
  14   -219.0111311 -0.728785E-06  0.658E-04    0.09      14.4  T
  15   -219.0111312 -0.639503E-07  0.247E-04    0.09      38.4  T
     SCC iter.                  ...        0 min,  0.976 sec
     gradient                   ...        0 min,  0.045 sec
 * total energy  :  -216.5963230 Eh     change       -0.1104827E-01 Eh
   gradient norm :     0.0705333 Eh/α   predicted    -0.1882571E-01 (  70.40%)
   displ. norm   :     0.7858510 α      lambda       -0.2326284E-01
   maximum displ.:     0.3165968 α      in ANC's #23, #25, #34, ...

........................................................................
.............................. CYCLE   30 ..............................
........................................................................

 iter      E             dE          RMSdq      gap      omega  full diag
   1   -219.0304967 -0.219030E+03  0.285E-01    0.09       0.0  T
   2   -218.9995079  0.309889E-01  0.415E-01    0.02       1.0  T
   3   -219.0054341 -0.592620E-02  0.340E-01    0.18       1.0  T
   4   -218.9658532  0.395809E-01  0.527E-01    0.08       1.0  T
   5   -218.9777047 -0.118515E-01  0.509E-01    0.02       1.0  T
   6   -219.0180558 -0.403511E-01  0.247E-01    0.16       1.0  T
   7   -219.0237384 -0.568263E-02  0.177E-01    0.11       1.0  T
   8   -219.0265222 -0.278381E-02  0.146E-01    0.12       1.0  T
   9   -219.0298480 -0.332582E-02  0.817E-02    0.10       1.0  T
  10   -219.0311074 -0.125934E-02  0.159E-02    0.08       1.0  T
  11   -219.0311187 -0.112913E-04  0.121E-02    0.08       1.0  T
  12   -219.0311501 -0.314358E-04  0.258E-03    0.08       3.7  T
  13   -219.0311484  0.166874E-05  0.367E-03    0.08       2.6  T
  14   -219.0311511 -0.266548E-05  0.942E-04    0.08      10.1  T
  15   -219.0311512 -0.899742E-07  0.645E-04    0.08      14.7  T
  16   -219.0311513 -0.667583E-07  0.348E-04    0.08      27.3  T
     SCC iter.                  ...        0 min,  0.996 sec
     gradient                   ...        0 min,  0.047 sec
 * total energy  :  -216.6108419 Eh     change       -0.1451888E-01 Eh
   gradient norm :     0.0423229 Eh/α   predicted    -0.1881453E-01 (  29.59%)
   displ. norm   :     0.7420129 α      lambda       -0.1253157E-01
   maximum displ.:     0.2666640 α      in ANC's #23, #20, #25, ...

........................................................................
.............................. CYCLE   31 ..............................
........................................................................

 iter      E             dE          RMSdq      gap      omega  full diag
   1   -219.0389611 -0.219039E+03  0.179E-01    0.11       0.0  T
   2   -218.7911683  0.247793E+00  0.112E+00    0.10       1.0  T
   3   -219.0349229 -0.243755E+00  0.198E-01    0.09       1.0  T
   4   -219.0285648  0.635802E-02  0.226E-01    0.10       1.0  T
   5   -219.0175637  0.110012E-01  0.284E-01    0.11       1.0  T
   6   -219.0336113 -0.160476E-01  0.168E-01    0.11       1.0  T
   7   -219.0363676 -0.275635E-02  0.154E-01    0.06       1.0  T
   8   -219.0411775 -0.480991E-02  0.292E-02    0.09       1.0  T
   9   -219.0412556 -0.780216E-04  0.197E-02    0.09       1.0  T
  10   -219.0413182 -0.626549E-04  0.966E-03    0.09       1.0  T
  11   -219.0413342 -0.159436E-04  0.382E-03    0.08       2.5  T
  12   -219.0413366 -0.246829E-05  0.198E-03    0.08       4.8  T
  13   -219.0413369 -0.302567E-06  0.122E-03    0.08       7.8  T
  14   -219.0413372 -0.223314E-06  0.438E-04    0.08      21.6  T
  15   -219.0413372 -0.137826E-07  0.275E-04    0.08      34.6  T
     SCC iter.                  ...        0 min,  1.065 sec
     gradient                   ...        0 min,  0.040 sec
 * total energy  :  -216.6183048 Eh     change       -0.7462870E-02 Eh
   gradient norm :     0.0527335 Eh/α   predicted    -0.9715629E-02 (  30.19%)
   displ. norm   :     0.6420612 α      lambda       -0.1049707E-01
   maximum displ.:     0.2380208 α      in ANC's #23, #25, #20, ...

........................................................................
.............................. CYCLE   32 ..............................
........................................................................

 iter      E             dE          RMSdq      gap      omega  full diag
   1   -219.0583462 -0.219058E+03  0.170E-01    0.09       0.0  T
   2   -219.0358739  0.224723E-01  0.328E-01    0.05       1.0  T
   3   -219.0520760 -0.162021E-01  0.197E-01    0.15       1.0  T
   4   -218.9825404  0.695356E-01  0.628E-01    0.03       1.0  T
   5   -219.0476556 -0.651151E-01  0.205E-01    0.12       1.0  T
   6   -219.0329048  0.147508E-01  0.299E-01    0.13       1.0  T
   7   -219.0573884 -0.244837E-01  0.907E-02    0.12       1.0  T
   8   -219.0588107 -0.142225E-02  0.362E-02    0.10       1.0  T
   9   -219.0590302 -0.219488E-03  0.183E-02    0.09       1.0  T
  10   -219.0590830 -0.528022E-04  0.814E-03    0.09       1.2  T
  11   -219.0590878 -0.484401E-05  0.599E-03    0.09       1.6  T
  12   -219.0590936 -0.573448E-05  0.266E-03    0.09       3.6  T
  13   -219.0590944 -0.870741E-06  0.154E-03    0.09       6.2  T
  14   -219.0590948 -0.352642E-06  0.589E-04    0.09      16.1  T
  15   -219.0590948 -0.463651E-07  0.260E-04    0.09      36.5  T
     SCC iter.                  ...        0 min,  1.058 sec
     gradient                   ...        0 min,  0.040 sec
 * total energy  :  -216.6257049 Eh     change       -0.7400084E-02 Eh
   gradient norm :     0.0340814 Eh/α   predicted    -0.7412206E-02 (   0.16%)
   displ. norm   :     0.6773929 α      lambda       -0.8648812E-02
   maximum displ.:     0.2534840 α      in ANC's #20, #25, #18, ...

........................................................................
.............................. CYCLE   33 ..............................
........................................................................

 iter      E             dE          RMSdq      gap      omega  full diag
   1   -219.0725351 -0.219073E+03  0.211E-01    0.08       0.0  T
   2   -219.0352718  0.372633E-01  0.414E-01    0.22       1.0  T
   3   -219.0283254  0.694639E-02  0.414E-01    0.13       1.0  T
   4   -219.0444035 -0.160781E-01  0.377E-01    0.05       1.0  T
   5   -219.0639069 -0.195034E-01  0.222E-01    0.09       1.0  T
   6   -219.0677878 -0.388091E-02  0.187E-01    0.17       1.0  T
   7   -219.0744658 -0.667797E-02  0.783E-02    0.11       1.0  T
   8   -219.0748861 -0.420357E-03  0.570E-02    0.11       1.0  T
   9   -219.0752880 -0.401914E-03  0.355E-02    0.09       1.0  T
  10   -219.0755167 -0.228662E-03  0.874E-03    0.10       1.1  T
  11   -219.0755081  0.863356E-05  0.954E-03    0.10       1.0  T
  12   -219.0755253 -0.171915E-04  0.249E-03    0.10       3.8  T
  13   -219.0755259 -0.682601E-06  0.164E-03    0.10       5.8  T
  14   -219.0755264 -0.456361E-06  0.610E-04    0.10      15.6  T
[...]
    92   1 H        0.925     0.037     2.487     2.466
    93   1 H        0.924     0.039     2.469     2.457
    94   1 H        0.925     0.037     2.491     2.468
    95   1 H        0.924     0.049     2.335     2.390
    96   1 H        0.924     0.068     2.111     2.272
    97   1 H        0.924     0.040     2.453     2.449
    98   1 H        0.925     0.050     2.326     2.385
    99   1 H        0.924     0.056     2.243     2.342
   100   1 H        0.924     0.032     2.560     2.502
   101   1 H        0.924     0.040     2.444     2.445
   102   1 H        0.925     0.056     2.251     2.346
   103   1 H        0.924     0.047     2.359     2.402
   104   1 H        0.926     0.050     2.316     2.380
   105   1 H        0.926     0.071     2.071     2.251
   106   1 H        0.926     0.069     2.101     2.266
   107   1 H        0.926     0.069     2.092     2.262
   108   1 H        0.926     0.068     2.106     2.270
   109   1 H        0.926     0.052     2.297     2.370
   110   1 H        0.926     0.073     2.056     2.242
   111   1 H        0.926     0.079     1.984     2.203

 Mol. C6AA /au·bohr⁶  :     216419.084804
 Mol. C8AA /au·bohr⁸  :    5892381.859190
 Mol. α(0) /au        :        729.824634


Wiberg/Mayer (AO) data.
largest (>0.10) Wiberg bond orders for each atom

 ---------------------------------------------------------------------------
     #   Z sym  total        # sym  WBO       # sym  WBO       # sym  WBO
 ---------------------------------------------------------------------------
     1   6 C    3.923 --     2 C    1.307     6 C    1.279    44 C    1.074
     2   6 C    3.935 --     1 C    1.307     3 C    1.287    22 O    1.113
     3   6 C    3.947 --     2 C    1.287     4 C    1.204     7 C    1.189
     4   6 C    3.970 --    10 N    1.367     5 C    1.217     3 C    1.204
     5   6 C    3.929 --     6 C    1.539     4 C    1.217   111 H    0.958
     6   6 C    3.956 --     5 C    1.539     1 C    1.279    23 S    0.921
     7   6 C    3.976 --     8 C    1.347     3 C    1.189    11 C    1.188
     8   6 C    3.977 --     7 C    1.347    14 C    1.181     9 C    1.179
     9   6 C    3.975 --    10 N    1.331    17 C    1.279     8 C    1.179
    10   7 N    2.926 --     4 C    1.367     9 C    1.331
    11   6 C    3.940 --    18 C    1.296    12 C    1.190     7 C    1.188
    12   6 C    3.966 --    13 N    1.378    21 C    1.209    11 C    1.190
    13   7 N    2.947 --    12 C    1.378    14 C    1.321
    14   6 C    3.975 --    13 N    1.321    15 C    1.290     8 C    1.181
    15   6 C    3.844 --    16 C    1.420    14 C    1.290   109 H    0.966
    16   6 C    3.962 --    17 C    1.435    15 C    1.420    25 S    0.912
    17   6 C    3.845 --    16 C    1.435     9 C    1.279   110 H    0.960
    18   6 C    3.945 --    11 C    1.296    19 C    1.284    70 N    1.119
    19   6 C    3.879 --    20 C    1.295    18 C    1.284    26 C    1.077
    20   6 C    3.957 --    21 C    1.530    19 C    1.295    24 S    0.909
    21   6 C    3.893 --    20 C    1.530    12 C    1.209   108 H    0.961
    22   8 O    2.138 --     2 C    1.113    51 B    0.780
    23  16 S    3.941 --    67 O    1.852    68 O    1.030     6 C    0.921
    24  16 S    3.935 --    57 O    1.837    55 O    1.023    20 C    0.909
    25  16 S    3.903 --    52 O    1.847    53 O    1.030    16 C    0.912
    26   6 C    3.927 --    27 C    1.305    31 C    1.283    19 C    1.077
    27   6 C    3.935 --    26 C    1.305    28 C    1.288    47 O    1.116
    28   6 C    3.947 --    27 C    1.288    29 C    1.203    32 C    1.188
    29   6 C    3.970 --    35 N    1.366    30 C    1.216    28 C    1.203
    30   6 C    3.929 --    31 C    1.534    29 C    1.216   107 H    0.961
    31   6 C    3.953 --    30 C    1.534    26 C    1.283    48 S    0.913
    32   6 C    3.976 --    33 C    1.348    28 C    1.188    36 C    1.187
    33   6 C    3.977 --    32 C    1.348    39 C    1.181    34 C    1.179
    34   6 C    3.975 --    35 N    1.330    42 C    1.281    33 C    1.179
    35   7 N    2.924 --    29 C    1.366    34 C    1.330
    36   6 C    3.938 --    43 C    1.295    37 C    1.192    32 C    1.187
    37   6 C    3.966 --    38 N    1.376    46 C    1.211    36 C    1.192
    38   7 N    2.945 --    37 C    1.376    39 C    1.322
    39   6 C    3.975 --    38 N    1.322    40 C    1.290    33 C    1.181
    40   6 C    3.844 --    41 C    1.420    39 C    1.290   104 H    0.966
    41   6 C    3.962 --    42 C    1.433    40 C    1.420    50 S    0.914
    42   6 C    3.845 --    41 C    1.433    34 C    1.281   105 H    0.960
    43   6 C    3.943 --    36 C    1.295    44 C    1.284    73 N    1.118
    44   6 C    3.879 --    45 C    1.297    43 C    1.284     1 C    1.074
    45   6 C    3.957 --    46 C    1.526    44 C    1.297    49 S    0.917
    46   6 C    3.894 --    45 C    1.526    37 C    1.211   106 H    0.960
    47   8 O    2.141 --    27 C    1.116    51 B    0.780
    48  16 S    3.953 --    58 O    1.836    59 O    1.023    31 C    0.913
    49  16 S    3.901 --    64 O    1.847    65 O    1.007    45 C    0.917
    50  16 S    3.899 --    61 O    1.847    62 O    1.023    41 C    0.914
    51   5 B    3.356 --    70 N    0.787    73 N    0.787    22 O    0.780
                            47 O    0.780
    52   8 O    2.028 --    25 S    1.847
    53   8 O    2.158 --    25 S    1.030    54 C    0.982
    54   6 C    3.940 --    53 O    0.982    83 H    0.979    82 H    0.976
                            84 H    0.972
    55   8 O    2.155 --    24 S    1.023    56 C    0.975
    56   6 C    3.927 --    81 H    0.978    79 H    0.976    55 O    0.975
                            80 H    0.962
    57   8 O    2.030 --    24 S    1.837
    58   8 O    2.016 --    48 S    1.836
    59   8 O    2.158 --    48 S    1.023    60 C    0.980
    60   6 C    3.935 --    59 O    0.980    77 H    0.976    76 H    0.975
                            78 H    0.970
    61   8 O    2.029 --    50 S    1.847
    62   8 O    2.153 --    50 S    1.023    63 C    0.984
    63   6 C    3.941 --    62 O    0.984   100 H    0.979    98 H    0.976
                            99 H    0.971
    64   8 O    2.031 --    49 S    1.847
    65   8 O    2.146 --    49 S    1.007    66 C    0.979
    66   6 C    3.934 --    65 O    0.979    97 H    0.978    95 H    0.975
                            96 H    0.964
    67   8 O    2.030 --    23 S    1.852
    68   8 O    2.155 --    23 S    1.030    69 C    0.979
    69   6 C    3.942 --    68 O    0.979   103 H    0.978   101 H    0.978
                           102 H    0.977
    70   7 N    3.143 --    18 C    1.119    72 C    0.995    51 B    0.787
    71   6 C    3.989 --    72 C    1.003    86 H    0.988    85 H    0.985
                            87 H    0.982
    72   6 C    3.977 --    71 C    1.003    70 N    0.995    89 H    0.966
                            88 H    0.962
    73   7 N    3.136 --    43 C    1.118    75 C    0.993    51 B    0.787
    74   6 C    3.989 --    75 C    1.002    91 H    0.988    90 H    0.986
                            92 H    0.982
    75   6 C    3.975 --    74 C    1.002    73 N    0.993    94 H    0.966
                            93 H    0.959
    76   1 H    0.996 --    60 C    0.975
    77   1 H    0.998 --    60 C    0.976
    78   1 H    0.996 --    60 C    0.970
    79   1 H    0.996 --    56 C    0.976
    80   1 H    0.995 --    56 C    0.962
    81   1 H    0.998 --    56 C    0.978
    82   1 H    0.997 --    54 C    0.976
    83   1 H    0.999 --    54 C    0.979
    84   1 H    0.997 --    54 C    0.972
    85   1 H    0.997 --    71 C    0.985
    86   1 H    0.999 --    71 C    0.988
    87   1 H    0.998 --    71 C    0.982
    88   1 H    0.997 --    72 C    0.962
    89   1 H    0.996 --    72 C    0.966
    90   1 H    0.998 --    74 C    0.986
    91   1 H    0.999 --    74 C    0.988
    92   1 H    0.998 --    74 C    0.982
    93   1 H    0.996 --    75 C    0.959
    94   1 H    0.996 --    75 C    0.966
    95   1 H    0.997 --    66 C    0.975
    96   1 H    0.995 --    66 C    0.964
    97   1 H    0.998 --    66 C    0.978
    98   1 H    0.997 --    63 C    0.976
    99   1 H    0.997 --    63 C    0.971
   100   1 H    0.999 --    63 C    0.979
   101   1 H    0.998 --    69 C    0.978
   102   1 H    0.996 --    69 C    0.977
   103   1 H    0.998 --    69 C    0.978
   104   1 H    0.997 --    40 C    0.966
   105   1 H    0.994 --    42 C    0.960
   106   1 H    0.993 --    46 C    0.960
   107   1 H    0.994 --    30 C    0.961
   108   1 H    0.993 --    21 C    0.961
   109   1 H    0.997 --    15 C    0.966
   110   1 H    0.994 --    17 C    0.960
   111   1 H    0.992 --     5 C    0.958
 ---------------------------------------------------------------------------

Topologies differ in total number of bonds
Writing corrected topology to xtbtopo.mol

molecular dipole:
                 x           y           z       tot (Debye)
 q only:        1.261      -0.043      -3.133
   full:        0.905       0.035      -3.818       9.973
molecular quadrupole (traceless):
                xx          xy          yy          xz          yz          zz
 q only:      -50.805     -69.307     -11.595       1.987       6.470      62.400
  q+dip:      -67.592     -74.038      -4.784      13.318       7.440      72.376
   full:      -74.533     -76.222     -10.902      13.033       7.348      85.435

           -------------------------------------------------
          |                Geometry Summary                 |
           -------------------------------------------------

      molecular mass/u    :     1124.0328308
   center of mass at/Å    :       -0.7339898       0.3505560       0.8331095
  moments of inertia/u·Å² :        0.1551391E+05   0.2566607E+05   0.3711896E+05
rotational constants/cm⁻¹ :        0.1086614E-02   0.6568061E-03   0.4541516E-03

 * 104 selected distances

     #   Z          #   Z                                           value/Å
     1   6 C        2   6 C                                       1.4077598
     2   6 C        3   6 C                                       1.3970894
     3   6 C        4   6 C                                       1.4245001
     4   6 C        5   6 C                                       1.4285142
     1   6 C        6   6 C                                       1.4103436
     5   6 C        6   6 C                                       1.3729421
     7   6 C        8   6 C                                       1.4062483
     4   6 C       10   7 N                                       1.3303522
     9   6 C       10   7 N                                       1.3394737
    11   6 C       12   6 C                                       1.4361550
    12   6 C       13   7 N                                       1.3284069
     8   6 C       14   6 C                                       1.4338804
    13   7 N       14   6 C                                       1.3383876
    14   6 C       15   6 C                                       1.4055305
    15   6 C       16   6 C                                       1.3805044
     9   6 C       17   6 C                                       1.4078169
    16   6 C       17   6 C                                       1.3773169
    11   6 C       18   6 C                                       1.4143208
    18   6 C       19   6 C                                       1.4228942
    19   6 C       20   6 C                                       1.4015608
    12   6 C       21   6 C                                       1.4290604
    20   6 C       21   6 C                                       1.3690590
     2   6 C       22   8 O                                       1.3098941
    26   6 C       27   6 C                                       1.4048908
    27   6 C       28   6 C                                       1.3951857
    28   6 C       29   6 C                                       1.4255471
    29   6 C       30   6 C                                       1.4305984
    26   6 C       31   6 C                                       1.4054982
    30   6 C       31   6 C                                       1.3731691
    32   6 C       33   6 C                                       1.4066483
    29   6 C       35   7 N                                       1.3306555
    34   6 C       35   7 N                                       1.3398867
    36   6 C       37   6 C                                       1.4353344
    37   6 C       38   7 N                                       1.3284997
    33   6 C       39   6 C                                       1.4335334
    38   7 N       39   6 C                                       1.3379105
    39   6 C       40   6 C                                       1.4054756
    40   6 C       41   6 C                                       1.3803808
    34   6 C       42   6 C                                       1.4076253
    41   6 C       42   6 C                                       1.3773244
    36   6 C       43   6 C                                       1.4181031
    43   6 C       44   6 C                                       1.4261578
    44   6 C       45   6 C                                       1.4022316
    37   6 C       46   6 C                                       1.4265037
    45   6 C       46   6 C                                       1.3689095
    27   6 C       47   8 O                                       1.3084546
    22   8 O       51   5 B                                       1.4414875
    47   8 O       51   5 B                                       1.4411443
    25  16 S       52   8 O                                       1.4519103
    53   8 O       54   6 C                                       1.4031847
    55   8 O       56   6 C                                       1.4046359
    24  16 S       57   8 O                                       1.4546683
    48  16 S       58   8 O                                       1.4504439
    59   8 O       60   6 C                                       1.4023452
    50  16 S       61   8 O                                       1.4518713
    62   8 O       63   6 C                                       1.4026282
    49  16 S       64   8 O                                       1.4541434
    65   8 O       66   6 C                                       1.4038964
    23  16 S       67   8 O                                       1.4553414
    68   8 O       69   6 C                                       1.4033564
    18   6 C       70   7 N                                       1.3768092
    51   5 B       70   7 N                                       1.5246356
    70   7 N       72   6 C                                       1.4525243
    71   6 C       72   6 C                                       1.5313771
    43   6 C       73   7 N                                       1.3775104
    51   5 B       73   7 N                                       1.5248478
    73   7 N       75   6 C                                       1.4529989
    74   6 C       75   6 C                                       1.5319774 (max)
    60   6 C       76   1 H                                       1.0904352
    60   6 C       77   1 H                                       1.0948260
    60   6 C       78   1 H                                       1.0947665
    56   6 C       79   1 H                                       1.0907278
    56   6 C       80   1 H                                       1.0957221
    56   6 C       81   1 H                                       1.0935378
    54   6 C       82   1 H                                       1.0895205
    54   6 C       83   1 H                                       1.0946452
    54   6 C       84   1 H                                       1.0953200
    71   6 C       85   1 H                                       1.0875000
    71   6 C       86   1 H                                       1.0879122
    71   6 C       87   1 H                                       1.0867675
    72   6 C       88   1 H                                       1.0951560
    72   6 C       89   1 H                                       1.0890040
    74   6 C       90   1 H                                       1.0877130
    74   6 C       91   1 H                                       1.0882475
    74   6 C       92   1 H                                       1.0870123
    75   6 C       93   1 H                                       1.0931588
Note: The following floating-point exceptions are signalling: IEEE_UNDERFLOW_FLAG
normal termination of xtb
    75   6 C       94   1 H                                       1.0888725
    66   6 C       95   1 H                                       1.0908529
    66   6 C       96   1 H                                       1.0953446
    66   6 C       97   1 H                                       1.0942930
    63   6 C       98   1 H                                       1.0896734
    63   6 C       99   1 H                                       1.0955424
    63   6 C      100   1 H                                       1.0947901
    69   6 C      101   1 H                                       1.0933628
    69   6 C      102   1 H                                       1.0899147
    69   6 C      103   1 H                                       1.0944758
    40   6 C      104   1 H                                       1.0782665 (min)
    42   6 C      105   1 H                                       1.0788831
    46   6 C      106   1 H                                       1.0788891
    30   6 C      107   1 H                                       1.0793682
    21   6 C      108   1 H                                       1.0784877
    15   6 C      109   1 H                                       1.0783143
    17   6 C      110   1 H                                       1.0788788
     5   6 C      111   1 H                                       1.0796774

 * 7 distinct bonds (by element types)

   Z      Z             #   av. dist./Å        max./Å        min./Å
   1 H    6 C          36     1.0888850     1.0957221     1.0782665
   6 C    6 C          38     1.4134728     1.5319774     1.3689095
   5 B    7 N           2     1.5247417     1.5248478     1.5246356
   6 C    7 N          12     1.3611180     1.4529989     1.3284069
   5 B    8 O           2     1.4413159     1.4414875     1.4411443
   6 C    8 O           8     1.3797994     1.4046359     1.3084546
   8 O   16 S           6     1.4530631     1.4553414     1.4504439


optimized geometry written to: xtbopt.mol


           -------------------------------------------------
          | TOTAL ENERGY             -216.730896940437 Eh   |
          | GRADIENT NORM               0.000891982159 Eh/α |
          | HOMO-LUMO GAP               0.139786746877 eV   |
           -------------------------------------------------
########################################################################
[WARNING] Runtime exception occurred
-2- restart_readRestart: Multiplicity missmatch in restart file.
-1- restart_readRestart: Number of electron missmatch in restart file.
########################################################################

------------------------------------------------------------------------
 * finished run on 2024/11/01 at 12:24:38.645     
------------------------------------------------------------------------
 total:
 * wall-time:     0 d,  0 h,  2 min, 20.348 sec
 *  cpu-time:     0 d,  0 h,  7 min, 10.573 sec
 * ratio c/w:     3.068 speedup
 SCF:
 * wall-time:     0 d,  0 h,  0 min,  2.895 sec
 *  cpu-time:     0 d,  0 h,  0 min,  9.975 sec
 * ratio c/w:     3.445 speedup
 ANC optimizer:
 * wall-time:     0 d,  0 h,  2 min, 17.421 sec
 *  cpu-time:     0 d,  0 h,  7 min,  0.559 sec
 * ratio c/w:     3.060 speedup

