      -----------------------------------------------------------      
     |                   =====================                   |     
     |                           x T B                           |     
     |                   =====================                   |     
     |                         S. Grimme                         |     
     |          Mulliken Center for Theoretical Chemistry        |     
     |                    University of Bonn                     |     
      -----------------------------------------------------------      

   * xtb version 6.6.1 (8d0f1dd) compiled by 'runner@Mac-1690902418499.local' on 2023-08-01

   xtb is free software: you can redistribute it and/or modify it under
   the terms of the GNU Lesser General Public License as published by
   the Free Software Foundation, either version 3 of the License, or
   (at your option) any later version.
   
   xtb is distributed in the hope that it will be useful,
   but WITHOUT ANY WARRANTY; without even the implied warranty of
   MERCHANTABILITY or FITNESS FOR A PARTICULAR PURPOSE.  See the
   GNU Lesser General Public License for more details.
   
   Cite this work as:
   * C. Bannwarth, E. Caldeweyher, S. Ehlert, A. Hansen, P. Pracht,
     J. Seibert, S. Spicher, S. Grimme, WIREs Comput. Mol. Sci., 2020, 11,
     e01493. DOI: 10.1002/wcms.1493
   
   for GFN2-xTB:
   * C. Bannwarth, S. Ehlert and S. Grimme., J. Chem. Theory Comput., 2019,
     15, 1652-1671. DOI: 10.1021/acs.jctc.8b01176
   for GFN1-xTB:
   * S. Grimme, C. Bannwarth, P. Shushkov, J. Chem. Theory Comput., 2017,
     13, 1989-2009. DOI: 10.1021/acs.jctc.7b00118
   for GFN0-xTB:
   * P. Pracht, E. Caldeweyher, S. Ehlert, S. Grimme, ChemRxiv, 2019, preprint.
     DOI: 10.26434/chemrxiv.8326202.v1
   for GFN-FF:
   * S. Spicher and S. Grimme, Angew. Chem. Int. Ed., 2020, 59, 15665-15673.
     DOI: 10.1002/anie.202004239
   
   for ALPB and GBSA implicit solvation:
   * S. Ehlert, M. Stahn, S. Spicher, S. Grimme, J. Chem. Theory Comput.,
     2021, 17, 4250-4261. DOI: 10.1021/acs.jctc.1c00471
   
   for DFT-D4:
   * E. Caldeweyher, C. Bannwarth and S. Grimme, J. Chem. Phys., 2017,
     147, 034112. DOI: 10.1063/1.4993215
   * E. Caldeweyher, S. Ehlert, A. Hansen, H. Neugebauer, S. Spicher,
     C. Bannwarth and S. Grimme, J. Chem. Phys., 2019, 150, 154122.
     DOI: 10.1063/1.5090222
   * E. Caldeweyher, J.-M. Mewes, S. Ehlert and S. Grimme, Phys. Chem. Chem. Phys.
     2020, 22, 8499-8512. DOI: 10.1039/D0CP00502A
   
   for sTDA-xTB:
   * S. Grimme and C. Bannwarth, J. Chem. Phys., 2016, 145, 054103.
     DOI: 10.1063/1.4959605
   
   in the mass-spec context:
   * V. Asgeirsson, C. Bauer and S. Grimme, Chem. Sci., 2017, 8, 4879.
     DOI: 10.1039/c7sc00601b
   * J. Koopman and S. Grimme, ACS Omega 2019, 4, 12, 15120-15133.
     DOI: 10.1021/acsomega.9b02011
   
   for metadynamics refer to:
   * S. Grimme, J. Chem. Theory Comput., 2019, 155, 2847-2862
     DOI: 10.1021/acs.jctc.9b00143
   
   for SPH calculations refer to:
   * S. Spicher and S. Grimme, J. Chem. Theory Comput., 2021, 17, 1701-1714
     DOI: 10.1021/acs.jctc.0c01306
   
   with help from (in alphabetical order)
   P. Atkinson, C. Bannwarth, F. Bohle, G. Brandenburg, E. Caldeweyher
   M. Checinski, S. Dohm, S. Ehlert, S. Ehrlich, I. Gerasimov, C. Hölzer
   A. Katbashev, J. Koopman, C. Lavigne, S. Lehtola, F. März, M. Müller,
   F. Musil, H. Neugebauer, J. Pisarek, C. Plett, P. Pracht, F. Pultar,
   J. Seibert, P. Shushkov, S. Spicher, M. Stahn, M. Steiner, T. Strunk,
   J. Stückrath, T. Rose, and J. Unsleber
   
 * started run on 2024/11/07 at 16:17:34.523     

           -------------------------------------------------
          |                Calculation Setup                |
           -------------------------------------------------

          program call               : xtb opt_radical_Base2SO2Me.mol --gfn2 --sp --chrg -1 --uhf 0
          coordinate file            : opt_radical_Base2SO2Me.mol
          omp threads                :                     8

   ID    Z sym.   atoms
    1    6 C      1-9, 11, 12, 14-21, 26-34, 36, 37, 39-46, 54, 56, 60, 63,
                  66, 69, 71, 72, 74, 75
    2    7 N      10, 13, 35, 38, 70, 73
    3    8 O      22, 47, 52, 53, 55, 57-59, 61, 62, 64, 65, 67, 68
    4   16 S      23-25, 48-50
    5    5 B      51
    6    1 H      76-111

           -------------------------------------------------
          |                 G F N 2 - x T B                 |
           -------------------------------------------------

        Reference                      10.1021/acs.jctc.8b01176
      * Hamiltonian:
        H0-scaling (s, p, d)           1.850000    2.230000    2.230000
        zeta-weighting                 0.500000
      * Dispersion:
        s8                             2.700000
        a1                             0.520000
        a2                             5.000000
        s9                             5.000000
      * Repulsion:
        kExp                           1.500000    1.000000
        rExp                           1.000000
      * Coulomb:
        alpha                          2.000000
        third order                    shell-resolved
        anisotropic                    true
        a3                             3.000000
        a5                             4.000000
        cn-shift                       1.200000
        cn-exp                         4.000000
        max-rad                        5.000000

q/qsh data taken from xtbrestart
CAMM data taken from xtbrestart

          ...................................................
          :                      SETUP                      :
          :.................................................:
          :  # basis functions                 372          :
          :  # atomic orbitals                 366          :
          :  # shells                          192          :
          :  # electrons                       382          :
          :  max. iterations                   250          :
          :  Hamiltonian                  GFN2-xTB          :
          :  restarted?                       true          :
          :  GBSA solvation                  false          :
          :  PC potential                    false          :
          :  electronic temp.          300.0000000     K    :
          :  accuracy                    1.0000000          :
          :  -> integral cutoff          0.2500000E+02      :
          :  -> integral neglect         0.1000000E-07      :
          :  -> SCF convergence          0.1000000E-05 Eh   :
          :  -> wf. convergence          0.1000000E-03 e    :
          :  Broyden damping             0.4000000          :
          ...................................................

 iter      E             dE          RMSdq      gap      omega  full diag
   1   -219.1796902 -0.219180E+03  0.127E+00    0.16       0.0  T
   2   -218.9737462  0.205944E+00  0.126E+00    0.13       1.0  T
   3   -219.0612431 -0.874969E-01  0.935E-01    0.38       1.0  T
   4   -219.0632568 -0.201373E-02  0.844E-01    0.33       1.0  T
   5   -219.0911211 -0.278643E-01  0.721E-01    0.19       1.0  T
   6   -219.1449235 -0.538024E-01  0.527E-01    0.21       1.0  T
   7   -219.1795654 -0.346419E-01  0.349E-01    0.26       1.0  T
   8   -219.1944924 -0.149270E-01  0.228E-01    0.14       1.0  T
   9   -219.1996659 -0.517353E-02  0.141E-01    0.12       1.0  T
  10   -219.2022114 -0.254547E-02  0.516E-02    0.09       1.0  T
  11   -219.2024523 -0.240915E-03  0.247E-02    0.10       1.0  T
  12   -219.2024669 -0.146023E-04  0.171E-02    0.09       1.0  T
  13   -219.2024865 -0.195790E-04  0.109E-02    0.09       1.0  T
  14   -219.2025109 -0.244607E-04  0.643E-03    0.09       1.5  T
  15   -219.2025166 -0.566727E-05  0.340E-03    0.09       2.8  T
  16   -219.2025182 -0.160470E-05  0.155E-03    0.09       6.1  T
  17   -219.2025186 -0.368897E-06  0.656E-04    0.09      14.5  T
  18   -219.2025186 -0.360732E-07  0.423E-04    0.09      22.5  T

   *** convergence criteria satisfied after 18 iterations ***

         #    Occupation            Energy/Eh            Energy/eV
      -------------------------------------------------------------
         1        2.0000           -0.7101796             -19.3250
       ...           ...                  ...                  ...
       185        2.0000           -0.3032588              -8.2521
       186        2.0000           -0.2938193              -7.9952
       187        2.0000           -0.2900753              -7.8934
       188        2.0000           -0.2838009              -7.7226
       189        2.0000           -0.2817115              -7.6658
       190        1.9998           -0.2801875              -7.6243
       191        1.7160           -0.2731118              -7.4317 (HOMO)
       192        0.2842           -0.2696945              -7.3388 (LUMO)
       193                         -0.2251915              -6.1278
       194                         -0.2150408              -5.8516
       195                         -0.1912249              -5.2035
       196                         -0.1886468              -5.1333
       ...                                ...                  ...
       366                          1.1094358              30.1893
      -------------------------------------------------------------
                  HL-Gap            0.0034173 Eh            0.0930 eV
             Fermi-level           -0.2714027 Eh           -7.3852 eV

 SCC (total)                   0 d,  0 h,  0 min,  1.528 sec
 SCC setup                      ...        0 min,  0.000 sec (  0.025%)
 Dispersion                     ...        0 min,  0.001 sec (  0.085%)
 classical contributions        ...        0 min,  0.000 sec (  0.018%)
 integral evaluation            ...        0 min,  0.008 sec (  0.546%)
 iterations                     ...        0 min,  1.476 sec ( 96.590%)
 molecular gradient             ...        0 min,  0.040 sec (  2.644%)
 printout                       ...        0 min,  0.001 sec (  0.092%)

         :::::::::::::::::::::::::::::::::::::::::::::::::::::
         ::                     SUMMARY                     ::
         :::::::::::::::::::::::::::::::::::::::::::::::::::::
         :: total energy            -216.726365693716 Eh    ::
         :: gradient norm              0.043145358234 Eh/a0 ::
         :: HOMO-LUMO gap              0.092989011924 eV    ::
         ::.................................................::
         :: SCC energy              -219.202518597132 Eh    ::
         :: -> isotropic ES            0.484806751909 Eh    ::
         :: -> anisotropic ES         -0.011822625663 Eh    ::
         :: -> anisotropic XC          0.066920554838 Eh    ::
         :: -> dispersion             -0.209977602019 Eh    ::
         :: repulsion energy           2.470684106969 Eh    ::
         :: add. restraining           0.000000000000 Eh    ::
         :: total charge              -1.000001803061 e     ::
         :::::::::::::::::::::::::::::::::::::::::::::::::::::

           -------------------------------------------------
          |                Property Printout                |
           -------------------------------------------------

    * Orbital Energies and Occupations

         #    Occupation            Energy/Eh            Energy/eV
      -------------------------------------------------------------
         1        2.0000           -0.7101796             -19.3250
       ...           ...                  ...                  ...
       179        2.0000           -0.3210717              -8.7368
       180        2.0000           -0.3176461              -8.6436
       181        2.0000           -0.3173122              -8.6345
       182        2.0000           -0.3155447              -8.5864
       183        2.0000           -0.3125469              -8.5048
       184        2.0000           -0.3056789              -8.3179
       185        2.0000           -0.3032588              -8.2521
       186        2.0000           -0.2938193              -7.9952
       187        2.0000           -0.2900753              -7.8934
       188        2.0000           -0.2838009              -7.7226
       189        2.0000           -0.2817115              -7.6658
       190        1.9998           -0.2801875              -7.6243
       191        1.7160           -0.2731118              -7.4317 (HOMO)
       192        0.2842           -0.2696945              -7.3388 (LUMO)
       193                         -0.2251915              -6.1278
       194                         -0.2150408              -5.8516
       195                         -0.1912249              -5.2035
       196                         -0.1886468              -5.1333
       197                         -0.1808386              -4.9209
       198                         -0.1778009              -4.8382
       199                         -0.1676864              -4.5630
       200                         -0.1649646              -4.4889
       201                         -0.1598050              -4.3485
       202                         -0.1526167              -4.1529
       ...                                ...                  ...
       366                          1.1094358              30.1893
      -------------------------------------------------------------
                  HL-Gap            0.0034173 Eh            0.0930 eV
             Fermi-level           -0.2714027 Eh           -7.3852 eV

     #   Z          covCN         q      C6AA      α(0)
     1   6 C        2.979    -0.032    28.785     8.801
     2   6 C        2.989     0.162    24.489     8.118
     3   6 C        2.986    -0.035    28.871     8.814
     4   6 C        2.964     0.094    25.905     8.348
     5   6 C        2.949    -0.054    29.351     8.886
     6   6 C        2.968    -0.067    29.661     8.933
     7   6 C        2.966     0.042    27.058     8.532
     8   6 C        2.997    -0.024    28.602     8.773
     9   6 C        2.958     0.091    25.983     8.361
    10   7 N        1.846    -0.254    27.453     7.765
    11   6 C        2.973    -0.018    28.459     8.750
    12   6 C        2.957     0.097    25.848     8.339
    13   7 N        1.850    -0.253    27.450     7.765
    14   6 C        2.951     0.091    25.980     8.360
    15   6 C        2.948    -0.055    29.361     8.887
    16   6 C        2.954    -0.056    29.379     8.890
    17   6 C        2.945    -0.044    29.104     8.848
    18   6 C        3.078     0.103    25.640     8.302
    19   6 C        2.997    -0.022    28.541     8.764
    20   6 C        2.953    -0.073    29.832     8.958
    21   6 C        2.940    -0.042    29.055     8.840
    22   8 O        1.652    -0.393    20.716     6.144
    23  16 S        3.096     0.633   117.883    18.274
    24  16 S        3.302     0.658   117.061    18.210
    25  16 S        2.852     0.643   117.561    18.249
    26   6 C        3.007    -0.041    29.009     8.835
    27   6 C        2.987     0.165    24.438     8.109
    28   6 C        2.986    -0.036    28.899     8.818
    29   6 C        2.965     0.093    25.939     8.354
    30   6 C        2.930    -0.052    29.300     8.877
    31   6 C        2.965    -0.084    30.112     9.001
    32   6 C        2.966     0.041    27.069     8.534
    33   6 C        2.997    -0.025    28.606     8.774
    34   6 C        2.959     0.091    25.986     8.361
    35   7 N        1.847    -0.257    27.535     7.777
    36   6 C        2.971    -0.018    28.454     8.750
    37   6 C        2.957     0.097    25.840     8.338
    38   7 N        1.851    -0.251    27.391     7.757
    39   6 C        2.951     0.091    25.970     8.358
    40   6 C        2.948    -0.054    29.349     8.885
    41   6 C        2.954    -0.056    29.378     8.890
    42   6 C        2.946    -0.045    29.107     8.849
    43   6 C        3.079     0.104    25.623     8.299
    44   6 C        2.992    -0.009    28.238     8.717
    45   6 C        2.957    -0.052    29.285     8.876
    46   6 C        2.953    -0.041    29.006     8.834
    47   8 O        1.652    -0.392    20.689     6.140
    48  16 S        3.324     0.668   116.754    18.186
    49  16 S        3.098     0.626   118.125    18.292
    50  16 S        2.851     0.646   117.466    18.241
    51   5 B        3.748     0.535    15.024     6.257
    52   8 O        0.860    -0.502    23.828     6.545
    53   8 O        1.706    -0.375    20.356     6.091
    54   6 C        3.740     0.052    19.782     6.346
    55   8 O        1.716    -0.391    20.661     6.137
    56   6 C        3.725     0.042    19.971     6.381
    57   8 O        0.860    -0.489    23.546     6.506
    58   8 O        0.860    -0.509    23.989     6.567
    59   8 O        1.705    -0.379    20.426     6.102
    60   6 C        3.721     0.045    19.933     6.376
    61   8 O        0.860    -0.502    23.824     6.544
    62   8 O        1.705    -0.377    20.399     6.098
    63   6 C        3.740     0.052    19.779     6.346
    64   8 O        0.860    -0.488    23.523     6.503
    65   8 O        1.706    -0.388    20.596     6.127
    66   6 C        3.765     0.036    20.012     6.376
    67   8 O        0.860    -0.500    23.782     6.538
    68   8 O        1.705    -0.371    20.287     6.081
    69   6 C        3.764     0.045    19.866     6.353
    70   7 N        2.668    -0.285    27.342     7.766
    71   6 C        3.753    -0.103    22.524     6.768
    72   6 C        3.747     0.019    20.319     6.430
    73   7 N        2.668    -0.285    27.363     7.769
    74   6 C        3.753    -0.100    22.475     6.760
    75   6 C        3.747     0.016    20.375     6.438
    76   1 H        0.925     0.053     2.283     2.363
    77   1 H        0.924     0.042     2.416     2.431
    78   1 H        0.924     0.063     2.160     2.299
    79   1 H        0.925     0.053     2.287     2.365
    80   1 H        0.924     0.073     2.054     2.241
    81   1 H        0.924     0.048     2.343     2.394
    82   1 H        0.925     0.050     2.318     2.381
    83   1 H        0.924     0.036     2.498     2.472
    84   1 H        0.924     0.058     2.225     2.333
    85   1 H        0.925     0.037     2.491     2.468
    86   1 H        0.925     0.037     2.493     2.469
    87   1 H        0.925     0.041     2.440     2.443
    88   1 H        0.924     0.023     2.689     2.564
    89   1 H        0.925     0.042     2.428     2.437
    90   1 H        0.925     0.034     2.529     2.487
    91   1 H        0.925     0.035     2.516     2.481
    92   1 H        0.925     0.037     2.488     2.467
    93   1 H        0.924     0.037     2.492     2.468
    94   1 H        0.925     0.040     2.453     2.449
    95   1 H        0.924     0.035     2.514     2.480
    96   1 H        0.924     0.057     2.231     2.336
    97   1 H        0.925     0.062     2.179     2.308
    98   1 H        0.925     0.049     2.334     2.389
    99   1 H        0.924     0.058     2.218     2.329
   100   1 H        0.924     0.035     2.520     2.483
   101   1 H        0.924     0.045     2.386     2.416
   102   1 H        0.925     0.058     2.225     2.333
   103   1 H        0.924     0.044     2.397     2.421
   104   1 H        0.926     0.050     2.323     2.383
   105   1 H        0.926     0.070     2.082     2.256
   106   1 H        0.926     0.073     2.049     2.239
   107   1 H        0.926     0.067     2.118     2.276
   108   1 H        0.926     0.066     2.130     2.282
   109   1 H        0.926     0.050     2.325     2.384
   110   1 H        0.926     0.071     2.073     2.251
   111   1 H        0.926     0.077     2.005     2.214

 Mol. C6AA /au·bohr⁶  :     216388.367563
 Mol. C8AA /au·bohr⁸  :    5892530.037524
 Mol. α(0) /au        :        729.761774


Wiberg/Mayer (AO) data.
largest (>0.10) Wiberg bond orders for each atom

 ---------------------------------------------------------------------------
     #   Z sym  total        # sym  WBO       # sym  WBO       # sym  WBO
 ---------------------------------------------------------------------------
     1   6 C    3.917 --     2 C    1.299     6 C    1.271    44 C    1.091
     2   6 C    3.926 --     3 C    1.301     1 C    1.299    22 O    1.100
     3   6 C    3.944 --     2 C    1.301     4 C    1.198     7 C    1.184
     4   6 C    3.968 --    10 N    1.377     5 C    1.210     3 C    1.198
     5   6 C    3.923 --     6 C    1.549     4 C    1.210   111 H    0.958
     6   6 C    3.952 --     5 C    1.549     1 C    1.271    23 S    0.915
     7   6 C    3.975 --     8 C    1.343    11 C    1.198     3 C    1.184
     8   6 C    3.973 --     7 C    1.343    14 C    1.184     9 C    1.181
     9   6 C    3.974 --    10 N    1.324    17 C    1.282     8 C    1.181
    10   7 N    2.937 --     4 C    1.377     9 C    1.324
    11   6 C    3.929 --    18 C    1.288     7 C    1.198    12 C    1.184
    12   6 C    3.963 --    13 N    1.389    21 C    1.201    11 C    1.184
    13   7 N    2.951 --    12 C    1.389    14 C    1.316
    14   6 C    3.974 --    13 N    1.316    15 C    1.290     8 C    1.184
    15   6 C    3.848 --    16 C    1.423    14 C    1.290   109 H    0.966
    16   6 C    3.961 --    17 C    1.435    15 C    1.423    25 S    0.904
    17   6 C    3.849 --    16 C    1.435     9 C    1.282   110 H    0.960
    18   6 C    3.937 --    11 C    1.288    19 C    1.264    70 N    1.132
    19   6 C    3.871 --    20 C    1.292    18 C    1.264    26 C    1.097
    20   6 C    3.954 --    21 C    1.535    19 C    1.292    24 S    0.903
    21   6 C    3.884 --    20 C    1.535    12 C    1.201   108 H    0.961
    22   8 O    2.156 --     2 C    1.100    51 B    0.816
    23  16 S    3.948 --    67 O    1.860    68 O    1.041     6 C    0.915
    24  16 S    3.946 --    57 O    1.842    55 O    1.033    20 C    0.903
    25  16 S    3.907 --    52 O    1.850    53 O    1.038    16 C    0.904
    26   6 C    3.917 --    27 C    1.294    31 C    1.274    19 C    1.097
    27   6 C    3.926 --    28 C    1.303    26 C    1.294    47 O    1.103
    28   6 C    3.943 --    27 C    1.303    29 C    1.197    32 C    1.183
    29   6 C    3.967 --    35 N    1.379    30 C    1.208    28 C    1.197
    30   6 C    3.922 --    31 C    1.545    29 C    1.208   107 H    0.961
    31   6 C    3.948 --    30 C    1.545    26 C    1.274    48 S    0.904
    32   6 C    3.975 --    33 C    1.342    36 C    1.200    28 C    1.183
    33   6 C    3.972 --    32 C    1.342    39 C    1.184    34 C    1.181
    34   6 C    3.974 --    35 N    1.320    42 C    1.285    33 C    1.181
    35   7 N    2.925 --    29 C    1.379    34 C    1.320
    36   6 C    3.928 --    43 C    1.286    32 C    1.200    37 C    1.183
    37   6 C    3.963 --    38 N    1.386    46 C    1.207    36 C    1.183
    38   7 N    2.952 --    37 C    1.386    39 C    1.320
    39   6 C    3.974 --    38 N    1.320    40 C    1.286    33 C    1.184
    40   6 C    3.848 --    41 C    1.427    39 C    1.286   104 H    0.966
    41   6 C    3.961 --    42 C    1.432    40 C    1.427    50 S    0.905
    42   6 C    3.848 --    41 C    1.432    34 C    1.285   105 H    0.960
    43   6 C    3.936 --    36 C    1.286    44 C    1.263    73 N    1.133
    44   6 C    3.872 --    45 C    1.298    43 C    1.263     1 C    1.091
    45   6 C    3.955 --    46 C    1.526    44 C    1.298    49 S    0.918
    46   6 C    3.883 --    45 C    1.526    37 C    1.207   106 H    0.960
    47   8 O    2.159 --    27 C    1.103    51 B    0.815
    48  16 S    3.964 --    58 O    1.840    59 O    1.033    31 C    0.904
    49  16 S    3.919 --    64 O    1.872    65 O    1.014    45 C    0.918
    50  16 S    3.903 --    61 O    1.850    62 O    1.033    41 C    0.905
    51   5 B    3.341 --    22 O    0.816    47 O    0.815    70 N    0.741
                            73 N    0.738
    52   8 O    2.032 --    25 S    1.850
    53   8 O    2.163 --    25 S    1.038    54 C    0.980
    54   6 C    3.939 --    53 O    0.980    83 H    0.979    82 H    0.976
                            84 H    0.971
    55   8 O    2.160 --    24 S    1.033    56 C    0.971
    56   6 C    3.925 --    81 H    0.978    79 H    0.977    55 O    0.971
                            80 H    0.963
    57   8 O    2.035 --    24 S    1.842
    58   8 O    2.020 --    48 S    1.840
    59   8 O    2.162 --    48 S    1.033    60 C    0.977
    60   6 C    3.933 --    59 O    0.977    77 H    0.977    76 H    0.976
                            78 H    0.969
    61   8 O    2.033 --    50 S    1.850
    62   8 O    2.159 --    50 S    1.033    63 C    0.981
    63   6 C    3.939 --    62 O    0.981   100 H    0.979    98 H    0.976
                            99 H    0.970
    64   8 O    2.048 --    49 S    1.872
    65   8 O    2.143 --    49 S    1.014    66 C    0.978
    66   6 C    3.940 --    95 H    0.980    65 O    0.978    96 H    0.977
                            97 H    0.977
    67   8 O    2.037 --    23 S    1.860
    68   8 O    2.162 --    23 S    1.041    69 C    0.976
    69   6 C    3.941 --   103 H    0.980   101 H    0.978   102 H    0.977
                            68 O    0.976
    70   7 N    3.112 --    18 C    1.132    72 C    0.995    51 B    0.741
    71   6 C    3.989 --    72 C    1.003    86 H    0.988    85 H    0.985
                            87 H    0.982
    72   6 C    3.977 --    71 C    1.003    70 N    0.995    89 H    0.964
                            88 H    0.962
    73   7 N    3.098 --    43 C    1.133    75 C    0.993    51 B    0.738
    74   6 C    3.989 --    75 C    1.003    91 H    0.988    90 H    0.986
                            92 H    0.982
    75   6 C    3.975 --    74 C    1.003    73 N    0.993    94 H    0.965
                            93 H    0.959
    76   1 H    0.996 --    60 C    0.976
    77   1 H    0.998 --    60 C    0.977
    78   1 H    0.996 --    60 C    0.969
    79   1 H    0.997 --    56 C    0.977
    80   1 H    0.995 --    56 C    0.963
    81   1 H    0.998 --    56 C    0.978
    82   1 H    0.997 --    54 C    0.976
    83   1 H    0.999 --    54 C    0.979
    84   1 H    0.997 --    54 C    0.971
    85   1 H    0.997 --    71 C    0.985
    86   1 H    0.999 --    71 C    0.988
    87   1 H    0.998 --    71 C    0.982
    88   1 H    0.999 --    72 C    0.962
    89   1 H    0.995 --    72 C    0.964
    90   1 H    0.998 --    74 C    0.986
    91   1 H    0.999 --    74 C    0.988
    92   1 H    0.998 --    74 C    0.982
    93   1 H    0.998 --    75 C    0.959
    94   1 H    0.995 --    75 C    0.965
    95   1 H    0.999 --    66 C    0.980
    96   1 H    0.997 --    66 C    0.977
    97   1 H    0.996 --    66 C    0.977
    98   1 H    0.997 --    63 C    0.976
    99   1 H    0.997 --    63 C    0.970
   100   1 H    0.999 --    63 C    0.979
   101   1 H    0.998 --    69 C    0.978
   102   1 H    0.996 --    69 C    0.977
   103   1 H    0.998 --    69 C    0.980
   104   1 H    0.997 --    40 C    0.966
   105   1 H    0.994 --    42 C    0.960
   106   1 H    0.992 --    46 C    0.960
   107   1 H    0.994 --    30 C    0.961
   108   1 H    0.993 --    21 C    0.961
   109   1 H    0.997 --    15 C    0.966
   110   1 H    0.994 --    17 C    0.960
   111   1 H    0.992 --     5 C    0.958
 ---------------------------------------------------------------------------

Topologies differ in total number of bonds
Writing corrected topology to xtbtopo.mol

molecular dipole:
                 x           y           z       tot (Debye)
 q only:        1.524       0.145      -3.137
   full:        1.249       0.232      -3.803      10.191
molecular quadrupole (traceless):
                xx          xy          yy          xz          yz          zz
 q only:      -55.146     -63.785      -1.050       4.157       8.373      56.196
  q+dip:      -70.286     -68.968       5.073      15.781       9.259      65.213
   full:      -78.576     -70.981      -0.207      15.638       9.321      78.782


           -------------------------------------------------
          | TOTAL ENERGY             -216.726365693716 Eh   |
          | GRADIENT NORM               0.043145358234 Eh/α |
          | HOMO-LUMO GAP               0.092989011924 eV   |
           -------------------------------------------------
########################################################################
[WARNING] Runtime exception occurred
-2- restart_readRestart: Multiplicity missmatch in restart file.
Note: The following floating-point exceptions are signalling: IEEE_UNDERFLOW_FLAG
normal termination of xtb
-1- restart_readRestart: Number of electron missmatch in restart file.
########################################################################

------------------------------------------------------------------------
 * finished run on 2024/11/07 at 16:17:36.067     
------------------------------------------------------------------------
 total:
 * wall-time:     0 d,  0 h,  0 min,  1.543 sec
 *  cpu-time:     0 d,  0 h,  0 min,  5.818 sec
 * ratio c/w:     3.771 speedup
 SCF:
 * wall-time:     0 d,  0 h,  0 min,  1.528 sec
 *  cpu-time:     0 d,  0 h,  0 min,  5.780 sec
 * ratio c/w:     3.782 speedup

