      -----------------------------------------------------------      
     |                   =====================                   |     
     |                           x T B                           |     
     |                   =====================                   |     
     |                         S. Grimme                         |     
     |          Mulliken Center for Theoretical Chemistry        |     
     |                    University of Bonn                     |     
      -----------------------------------------------------------      

   * xtb version 6.6.1 (8d0f1dd) compiled by 'runner@Mac-1690902418499.local' on 2023-08-01

   xtb is free software: you can redistribute it and/or modify it under
   the terms of the GNU Lesser General Public License as published by
   the Free Software Foundation, either version 3 of the License, or
   (at your option) any later version.
   
   xtb is distributed in the hope that it will be useful,
   but WITHOUT ANY WARRANTY; without even the implied warranty of
   MERCHANTABILITY or FITNESS FOR A PARTICULAR PURPOSE.  See the
   GNU Lesser General Public License for more details.
   
   Cite this work as:
   * C. Bannwarth, E. Caldeweyher, S. Ehlert, A. Hansen, P. Pracht,
     J. Seibert, S. Spicher, S. Grimme, WIREs Comput. Mol. Sci., 2020, 11,
     e01493. DOI: 10.1002/wcms.1493
   
   for GFN2-xTB:
   * C. Bannwarth, S. Ehlert and S. Grimme., J. Chem. Theory Comput., 2019,
     15, 1652-1671. DOI: 10.1021/acs.jctc.8b01176
   for GFN1-xTB:
   * S. Grimme, C. Bannwarth, P. Shushkov, J. Chem. Theory Comput., 2017,
     13, 1989-2009. DOI: 10.1021/acs.jctc.7b00118
   for GFN0-xTB:
   * P. Pracht, E. Caldeweyher, S. Ehlert, S. Grimme, ChemRxiv, 2019, preprint.
     DOI: 10.26434/chemrxiv.8326202.v1
   for GFN-FF:
   * S. Spicher and S. Grimme, Angew. Chem. Int. Ed., 2020, 59, 15665-15673.
     DOI: 10.1002/anie.202004239
   
   for ALPB and GBSA implicit solvation:
   * S. Ehlert, M. Stahn, S. Spicher, S. Grimme, J. Chem. Theory Comput.,
     2021, 17, 4250-4261. DOI: 10.1021/acs.jctc.1c00471
   
   for DFT-D4:
   * E. Caldeweyher, C. Bannwarth and S. Grimme, J. Chem. Phys., 2017,
     147, 034112. DOI: 10.1063/1.4993215
   * E. Caldeweyher, S. Ehlert, A. Hansen, H. Neugebauer, S. Spicher,
     C. Bannwarth and S. Grimme, J. Chem. Phys., 2019, 150, 154122.
     DOI: 10.1063/1.5090222
   * E. Caldeweyher, J.-M. Mewes, S. Ehlert and S. Grimme, Phys. Chem. Chem. Phys.
     2020, 22, 8499-8512. DOI: 10.1039/D0CP00502A
   
   for sTDA-xTB:
   * S. Grimme and C. Bannwarth, J. Chem. Phys., 2016, 145, 054103.
     DOI: 10.1063/1.4959605
   
   in the mass-spec context:
   * V. Asgeirsson, C. Bauer and S. Grimme, Chem. Sci., 2017, 8, 4879.
     DOI: 10.1039/c7sc00601b
   * J. Koopman and S. Grimme, ACS Omega 2019, 4, 12, 15120-15133.
     DOI: 10.1021/acsomega.9b02011
   
   for metadynamics refer to:
   * S. Grimme, J. Chem. Theory Comput., 2019, 155, 2847-2862
     DOI: 10.1021/acs.jctc.9b00143
   
   for SPH calculations refer to:
   * S. Spicher and S. Grimme, J. Chem. Theory Comput., 2021, 17, 1701-1714
     DOI: 10.1021/acs.jctc.0c01306
   
   with help from (in alphabetical order)
   P. Atkinson, C. Bannwarth, F. Bohle, G. Brandenburg, E. Caldeweyher
   M. Checinski, S. Dohm, S. Ehlert, S. Ehrlich, I. Gerasimov, C. Hölzer
   A. Katbashev, J. Koopman, C. Lavigne, S. Lehtola, F. März, M. Müller,
   F. Musil, H. Neugebauer, J. Pisarek, C. Plett, P. Pracht, F. Pultar,
   J. Seibert, P. Shushkov, S. Spicher, M. Stahn, M. Steiner, T. Strunk,
   J. Stückrath, T. Rose, and J. Unsleber
   
 * started run on 2024/11/01 at 12:24:38.704     

           -------------------------------------------------
          |                Calculation Setup                |
           -------------------------------------------------

          program call               : xtb Base2SO2Me.mol --opt --gfn2 --chrg 1 --uhf 0 --tight
          coordinate file            : Base2SO2Me.mol
          omp threads                :                     8

   ID    Z sym.   atoms
    1    6 C      1-9, 11, 12, 14-21, 26-34, 36, 37, 39-46, 54, 56, 60, 63,
                  66, 69, 71, 72, 74, 75
    2    7 N      10, 13, 35, 38, 70, 73
    3    8 O      22, 47, 52, 53, 55, 57-59, 61, 62, 64, 65, 67, 68
    4   16 S      23-25, 48-50
    5    5 B      51
    6    1 H      76-111

molecular fragmentation (1/2 indicates fragments):
111111111111111111111111111111111111111111111111111111111111111111111111
111111112111111111111111211111111111111
# atoms in fragment 1/2:   109     2
 fragment masses (1/2) :     1122.02        2.02
CMA distance (Bohr)    :   3.654
constraining FC (au)   :  0.0500
########################################################################
[WARNING] Please study the warnings concerning your input carefully
-2- prog_main: Charge in sdf/mol input was overwritten
-1- prog_main_parseArguments: Unknown option '--tight' provided
########################################################################

           -------------------------------------------------
          |                 G F N 2 - x T B                 |
           -------------------------------------------------

        Reference                      10.1021/acs.jctc.8b01176
      * Hamiltonian:
        H0-scaling (s, p, d)           1.850000    2.230000    2.230000
        zeta-weighting                 0.500000
      * Dispersion:
        s8                             2.700000
        a1                             0.520000
        a2                             5.000000
        s9                             5.000000
      * Repulsion:
        kExp                           1.500000    1.000000
        rExp                           1.000000
      * Coulomb:
        alpha                          2.000000
        third order                    shell-resolved
        anisotropic                    true
        a3                             3.000000
        a5                             4.000000
        cn-shift                       1.200000
        cn-exp                         4.000000
        max-rad                        5.000000

q/qsh data taken from xtbrestart
CAMM data taken from xtbrestart

          ...................................................
          :                      SETUP                      :
          :.................................................:
          :  # basis functions                 372          :
          :  # atomic orbitals                 366          :
          :  # shells                          192          :
          :  # electrons                       380          :
          :  max. iterations                   250          :
          :  Hamiltonian                  GFN2-xTB          :
          :  restarted?                       true          :
          :  GBSA solvation                  false          :
          :  PC potential                    false          :
          :  electronic temp.          300.0000000     K    :
          :  accuracy                    1.0000000          :
          :  -> integral cutoff          0.2500000E+02      :
          :  -> integral neglect         0.1000000E-07      :
          :  -> SCF convergence          0.1000000E-05 Eh   :
          :  -> wf. convergence          0.1000000E-03 e    :
          :  Broyden damping             0.4000000          :
          ...................................................

 iter      E             dE          RMSdq      gap      omega  full diag
   1   -215.3498298 -0.215350E+03  0.555E+00    0.12       0.0  T
   2   -202.5797765  0.127701E+02  0.107E+01    0.18       1.0  T
   3   -216.0053079 -0.134255E+02  0.403E+00    0.00       1.0  T
   4   -208.8711642  0.713414E+01  0.614E+00    0.05       1.0  T
   5   -208.9097235 -0.385594E-01  0.573E+00    0.12       1.0  T
   6   -214.8402751 -0.593055E+01  0.489E+00    0.12       1.0  T
   7   -216.6641949 -0.182392E+01  0.214E+00    0.14       1.0  T
   8   -215.0541823  0.161001E+01  0.272E+00    0.10       1.0  T
   9   -216.1795360 -0.112535E+01  0.233E+00    0.12       1.0  T
  10   -216.9516085 -0.772072E+00  0.156E+00    0.01       1.0  T
  11   -216.9913713 -0.397628E-01  0.121E+00    0.02       1.0  T
  12   -217.1272615 -0.135890E+00  0.131E+00    0.05       1.0  T
  13   -217.2359599 -0.108698E+00  0.941E-01    0.02       1.0  T
  14   -217.2992280 -0.632680E-01  0.784E-01    0.03       1.0  T
  15   -217.2963611  0.286692E-02  0.715E-01    0.04       1.0  T
  16   -217.2669267  0.294343E-01  0.840E-01    0.04       1.0  T
  17   -217.2954465 -0.285197E-01  0.690E-01    0.03       1.0  T
  18   -217.2817988  0.136476E-01  0.715E-01    0.03       1.0  T
  19   -217.3133656 -0.315668E-01  0.589E-01    0.03       1.0  T
  20   -217.3347897 -0.214241E-01  0.461E-01    0.03       1.0  T
  21   -217.3606197 -0.258301E-01  0.263E-01    0.04       1.0  T
  22   -217.3608133 -0.193611E-03  0.252E-01    0.05       1.0  T
  23   -217.3669558 -0.614249E-02  0.154E-01    0.05       1.0  T
  24   -217.3672598 -0.303919E-03  0.151E-01    0.06       1.0  T
  25   -217.3674915 -0.231789E-03  0.128E-01    0.05       1.0  T
  26   -217.3679611 -0.469581E-03  0.122E-01    0.05       1.0  T
  27   -217.3703920 -0.243088E-02  0.536E-02    0.05       1.0  T
  28   -217.3706117 -0.219745E-03  0.432E-02    0.05       1.0  T
  29   -217.3707808 -0.169036E-03  0.267E-02    0.05       1.0  T
  30   -217.3708755 -0.947230E-04  0.152E-02    0.05       1.0  T
  31   -217.3708634  0.121338E-04  0.149E-02    0.05       1.0  T
  32   -217.3708888 -0.254259E-04  0.815E-03    0.05       1.2  T
  33   -217.3708974 -0.856880E-05  0.239E-03    0.05       4.0  T
  34   -217.3708974 -0.217242E-07  0.209E-03    0.05       4.6  T
  35   -217.3708956  0.177561E-05  0.367E-03    0.05       2.6  T
  36   -217.3708974 -0.174277E-05  0.178E-03    0.05       5.3  T
  37   -217.3708978 -0.456162E-06  0.724E-04    0.05      13.1  T
  38   -217.3708979 -0.100965E-06  0.203E-04    0.05      46.7  T

   *** convergence criteria satisfied after 38 iterations ***

         #    Occupation            Energy/Eh            Energy/eV
      -------------------------------------------------------------
         1        2.0000           -0.9290220             -25.2800
       ...           ...                  ...                  ...
       184        2.0000           -0.3559469              -9.6858
       185        1.9999           -0.3556884              -9.6788
       186        1.9997           -0.3542849              -9.6406
       187        1.9991           -0.3532304              -9.6119
       188        1.9812           -0.3502920              -9.5319
       189        1.6912           -0.3474819              -9.4555
       190        1.4698           -0.3468351              -9.4379 (HOMO)
       191        0.5749           -0.3450038              -9.3880 (LUMO)
       192        0.2768           -0.3441290              -9.3642
       193        0.0044           -0.3400470              -9.2532
       194        0.0031           -0.3397115              -9.2440
       195                         -0.3046266              -8.2893
       ...                                ...                  ...
       366                          4.7846150             130.1960
      -------------------------------------------------------------
                  HL-Gap            0.0018313 Eh            0.0498 eV
             Fermi-level           -0.3458664 Eh           -9.4115 eV

 SCC (total)                   0 d,  0 h,  0 min,  4.195 sec
 SCC setup                      ...        0 min,  0.000 sec (  0.009%)
 Dispersion                     ...        0 min,  0.001 sec (  0.027%)
 classical contributions        ...        0 min,  0.000 sec (  0.006%)
 integral evaluation            ...        0 min,  0.008 sec (  0.196%)
 iterations                     ...        0 min,  4.143 sec ( 98.777%)
 molecular gradient             ...        0 min,  0.040 sec (  0.946%)
 printout                       ...        0 min,  0.002 sec (  0.039%)

         :::::::::::::::::::::::::::::::::::::::::::::::::::::
         ::                     SUMMARY                     ::
         :::::::::::::::::::::::::::::::::::::::::::::::::::::
         :: total energy            -211.374987345499 Eh    ::
         :: gradient norm              5.553933840979 Eh/a0 ::
         :: HOMO-LUMO gap              0.049831807843 eV    ::
         ::.................................................::
         :: SCC energy              -217.370897915253 Eh    ::
         :: -> isotropic ES            0.428336589543 Eh    ::
         :: -> anisotropic ES          0.064591154598 Eh    ::
         :: -> anisotropic XC          0.040445028302 Eh    ::
         :: -> dispersion             -0.189374998217 Eh    ::
         :: repulsion energy           5.992118876223 Eh    ::
         :: add. restraining           0.000000000000 Eh    ::
         :: total charge               0.999999602893 e     ::
         :::::::::::::::::::::::::::::::::::::::::::::::::::::

      ----------------------------------------------------------- 
     |                   =====================                   |
     |                        A N C O P T                        |
     |                   =====================                   |
     |               Approximate Normal Coordinate               |
     |                Rational Function Optimizer                |
      ----------------------------------------------------------- 

          ...................................................
          :                      SETUP                      :
          :.................................................:
          :   optimization level            normal          :
          :   max. optcycles                   333          :
          :   ANC micro-cycles                  20          :
          :   degrees of freedom               327          :
          :.................................................:
          :   RF solver                   davidson          :
          :   write xtbopt.log                true          :
          :   linear?                        false          :
          :   energy convergence         0.5000000E-05 Eh   :
          :   grad. convergence          0.1000000E-02 Eh/α :
          :   maxmium RF displ.          1.0000000          :
          :   Hlow (freq-cutoff)         0.1000000E-01      :
          :   Hmax (freq-cutoff)         5.0000000          :
          :   S6 in model hess.         20.0000000          :
          ...................................................

generating ANC from model Hessian ...
Using Lindh-Hessian (1995)
 Shifting diagonal of input Hessian by    9.9544802606376312E-003
 Lowest  eigenvalues of input Hessian
    0.000000    0.000000    0.000000    0.000000    0.000000    0.000000
    0.010000    0.010004    0.010106    0.010190    0.010216    0.010411
    0.010596    0.010635    0.010781    0.010865    0.011008    0.011287
 Highest eigenvalues
    6.207729    6.253665    6.276231    6.328757    6.416265    7.669385


........................................................................
.............................. CYCLE    1 ..............................
........................................................................

 iter      E             dE          RMSdq      gap      omega  full diag
   1   -217.3708979 -0.217371E+03  0.253E-04    0.05       0.0  T
   2   -217.3708933  0.460464E-05  0.481E-03    0.05       2.0  T
   3   -217.3708978 -0.450331E-05  0.750E-04    0.05      12.7  T
   4   -217.3708979 -0.678129E-07  0.454E-04    0.05      20.9  T
   5   -217.3708979 -0.352926E-07  0.223E-04    0.05      42.6  T
     SCC iter.                  ...        0 min,  0.327 sec
     gradient                   ...        0 min,  0.040 sec
 * total energy  :  -211.3749873 Eh     change        0.3809276E-08 Eh
   gradient norm :     5.5539370 Eh/α   predicted     0.0000000E+00 (-100.00%)
   displ. norm   :     0.7889882 α      lambda       -0.4297546E+01
   maximum displ.:     0.4481750 α      in ANC's #281, #256, #315, ...

........................................................................
.............................. CYCLE    2 ..............................
........................................................................

 iter      E             dE          RMSdq      gap      omega  full diag
   1   -216.9885211 -0.216989E+03  0.183E+00    0.09       0.0  T
   2   -214.6415390  0.234698E+01  0.350E+00    0.09       1.0  T
   3   -216.2910354 -0.164950E+01  0.250E+00    0.18       1.0  T
   4   -216.6719046 -0.380869E+00  0.195E+00    0.10       1.0  T
   5   -216.9281718 -0.256267E+00  0.165E+00    0.03       1.0  T
   6   -216.8948360  0.333358E-01  0.163E+00    0.07       1.0  T
   7   -217.2373480 -0.342512E+00  0.101E+00    0.02       1.0  T
   8   -216.7887758  0.448572E+00  0.153E+00    0.05       1.0  T
   9   -217.1446844 -0.355909E+00  0.113E+00    0.07       1.0  T
  10   -217.3338746 -0.189190E+00  0.611E-01    0.04       1.0  T
  11   -217.2712381  0.626366E-01  0.788E-01    0.06       1.0  T
  12   -217.3746163 -0.103378E+00  0.450E-01    0.07       1.0  T
  13   -217.3571920  0.174243E-01  0.466E-01    0.05       1.0  T
  14   -217.3797941 -0.226021E-01  0.392E-01    0.05       1.0  T
  15   -217.3727575  0.703653E-02  0.411E-01    0.04       1.0  T
  16   -217.3696971  0.306043E-02  0.383E-01    0.03       1.0  T
  17   -217.3881066 -0.184095E-01  0.241E-01    0.04       1.0  T
  18   -217.3949227 -0.681613E-02  0.138E-01    0.05       1.0  T
  19   -217.3979295 -0.300678E-02  0.791E-02    0.05       1.0  T
  20   -217.3952016  0.272785E-02  0.132E-01    0.05       1.0  T
  21   -217.3967371 -0.153549E-02  0.969E-02    0.05       1.0  T
  22   -217.3982875 -0.155035E-02  0.403E-02    0.05       1.0  T
  23   -217.3981443  0.143180E-03  0.470E-02    0.05       1.0  T
  24   -217.3985087 -0.364418E-03  0.127E-02    0.05       1.0  T
  25   -217.3985371 -0.283931E-04  0.508E-03    0.05       1.9  T
  26   -217.3985291  0.802046E-05  0.806E-03    0.05       1.2  T
  27   -217.3985322 -0.309417E-05  0.674E-03    0.05       1.4  T
  28   -217.3985381 -0.593175E-05  0.397E-03    0.05       2.4  T
  29   -217.3985396 -0.146665E-05  0.262E-03    0.05       3.6  T
  30   -217.3985401 -0.520697E-06  0.186E-03    0.05       5.1  T
  31   -217.3985404 -0.259829E-06  0.114E-03    0.05       8.4  T
  32   -217.3985400  0.353314E-06  0.175E-03    0.05       5.4  T
  33   -217.3985406 -0.560820E-06  0.381E-04    0.05      24.9  T
  34   -217.3985406 -0.735187E-08  0.296E-04    0.05      32.1  T
     SCC iter.                  ...        0 min,  2.343 sec
     gradient                   ...        0 min,  0.041 sec
 * total energy  :  -213.5192848 Eh     change       -0.2144298E+01 Eh
   gradient norm :     1.6348960 Eh/α   predicted    -0.3486389E+01 (  62.59%)
   displ. norm   :     0.6192940 α      lambda       -0.9260727E+00
   maximum displ.:     0.1631888 α      in ANC's #212, #256, #234, ...

........................................................................
.............................. CYCLE    3 ..............................
........................................................................

 iter      E             dE          RMSdq      gap      omega  full diag
   1   -217.0532400 -0.217053E+03  0.243E+00    0.10       0.0  T
   2   -215.1439175  0.190932E+01  0.392E+00    0.17       1.0  T
   3   -215.4952408 -0.351323E+00  0.313E+00    0.18       1.0  T
   4   -216.3696858 -0.874445E+00  0.236E+00    0.10       1.0  T
   5   -217.1450482 -0.775362E+00  0.149E+00    0.04       1.0  T
   6   -217.1058293  0.392190E-01  0.158E+00    0.09       1.0  T
   7   -216.7075617  0.398268E+00  0.186E+00    0.05       1.0  T
   8   -217.0590962 -0.351534E+00  0.160E+00    0.09       1.0  T
   9   -217.3150040 -0.255908E+00  0.973E-01    0.04       1.0  T
  10   -217.4109434 -0.959394E-01  0.605E-01    0.05       1.0  T
  11   -217.4103564  0.586997E-03  0.698E-01    0.08       1.0  T
  12   -217.4463730 -0.360166E-01  0.540E-01    0.07       1.0  T
  13   -217.4548071 -0.843410E-02  0.336E-01    0.04       1.0  T
  14   -217.4349672  0.198399E-01  0.541E-01    0.02       1.0  T
  15   -217.4521111 -0.171439E-01  0.365E-01    0.02       1.0  T
  16   -217.4638528 -0.117417E-01  0.236E-01    0.05       1.0  T
  17   -217.4698622 -0.600947E-02  0.179E-01    0.05       1.0  T
  18   -217.4735228 -0.366053E-02  0.560E-02    0.04       1.0  T
  19   -217.4725442  0.978603E-03  0.848E-02    0.05       1.0  T
  20   -217.4735551 -0.101092E-02  0.550E-02    0.05       1.0  T
  21   -217.4739426 -0.387470E-03  0.230E-02    0.04       1.0  T
  22   -217.4735237  0.418881E-03  0.529E-02    0.04       1.0  T
  23   -217.4737674 -0.243672E-03  0.409E-02    0.04       1.0  T
  24   -217.4739865 -0.219164E-03  0.115E-02    0.04       1.0  T
  25   -217.4740035 -0.170302E-04  0.527E-03    0.04       1.8  T
  26   -217.4740068 -0.321104E-05  0.371E-03    0.04       2.6  T
  27   -217.4740049  0.186115E-05  0.469E-03    0.04       2.0  T
  28   -217.4740074 -0.245704E-05  0.255E-03    0.04       3.7  T
  29   -217.4740080 -0.616560E-06  0.158E-03    0.04       6.0  T
  30   -217.4740084 -0.385736E-06  0.659E-04    0.04      14.4  T
  31   -217.4740084 -0.285650E-07  0.440E-04    0.04      21.6  T
     SCC iter.                  ...        0 min,  2.225 sec
     gradient                   ...        0 min,  0.040 sec
 * total energy  :  -214.2373978 Eh     change       -0.7181130E+00 Eh
   gradient norm :     0.9553180 Eh/α   predicted    -0.6406281E+00 ( -10.79%)
   displ. norm   :     0.6822696 α      lambda       -0.6057912E+00
   maximum displ.:     0.1725143 α      in ANC's #212, #295, #299, ...

........................................................................
.............................. CYCLE    4 ..............................
........................................................................

 iter      E             dE          RMSdq      gap      omega  full diag
   1   -217.2064946 -0.217206E+03  0.243E+00    0.07       0.0  T
   2   -215.4134904  0.179300E+01  0.402E+00    0.23       1.0  T
   3   -216.4322233 -0.101873E+01  0.249E+00    0.06       1.0  T
   4   -216.6790790 -0.246856E+00  0.213E+00    0.11       1.0  T
   5   -217.4100208 -0.730942E+00  0.127E+00    0.03       1.0  T
   6   -217.4436726 -0.336518E-01  0.107E+00    0.10       1.0  T
   7   -217.4046848  0.389879E-01  0.126E+00    0.05       1.0  T
   8   -217.4586750 -0.539903E-01  0.111E+00    0.06       1.0  T
   9   -217.5210310 -0.623560E-01  0.867E-01    0.05       1.0  T
  10   -217.4537954  0.672356E-01  0.817E-01    0.02       1.0  T
  11   -217.4211340  0.326614E-01  0.981E-01    0.06       1.0  T
  12   -217.5616033 -0.140469E+00  0.652E-01    0.10       1.0  T
  13   -217.5584545  0.314888E-02  0.600E-01    0.08       1.0  T
  14   -217.5595075 -0.105304E-02  0.586E-01    0.09       1.0  T
  15   -217.5752331 -0.157256E-01  0.466E-01    0.09       1.0  T
  16   -217.5951149 -0.198817E-01  0.301E-01    0.07       1.0  T
  17   -217.5970402 -0.192531E-02  0.271E-01    0.07       1.0  T
  18   -217.5915180  0.552215E-02  0.312E-01    0.07       1.0  T
  19   -217.6066552 -0.151372E-01  0.135E-01    0.06       1.0  T
  20   -217.6073779 -0.722614E-03  0.122E-01    0.06       1.0  T
  21   -217.6075811 -0.203204E-03  0.117E-01    0.06       1.0  T
  22   -217.6085813 -0.100023E-02  0.788E-02    0.06       1.0  T
  23   -217.6091863 -0.605015E-03  0.406E-02    0.06       1.0  T
  24   -217.6088550  0.331272E-03  0.705E-02    0.05       1.0  T
  25   -217.6093077 -0.452634E-03  0.339E-02    0.05       1.0  T
  26   -217.6093984 -0.907497E-04  0.207E-02    0.06       1.0  T
  27   -217.6094427 -0.442526E-04  0.644E-03    0.05       1.5  T
  28   -217.6094428 -0.787005E-07  0.618E-03    0.05       1.5  T
  29   -217.6094418  0.974754E-06  0.591E-03    0.05       1.6  T
  30   -217.6094466 -0.478387E-05  0.127E-03    0.05       7.4  T
  31   -217.6094467 -0.161479E-06  0.677E-04    0.05      14.0  T
  32   -217.6094468 -0.302975E-07  0.560E-04    0.05      17.0  T
     SCC iter.                  ...        0 min,  2.069 sec
     gradient                   ...        0 min,  0.041 sec
 * total energy  :  -214.7366110 Eh     change       -0.4992132E+00 Eh
   gradient norm :     0.6202282 Eh/α   predicted    -0.4438914E+00 ( -11.08%)
   displ. norm   :     0.7612927 α      lambda       -0.4486584E+00
   maximum displ.:     0.1895444 α      in ANC's #223, #212, #219, ...

........................................................................
.............................. CYCLE    5 ..............................
........................................................................

 iter      E             dE          RMSdq      gap      omega  full diag
   1   -217.4951032 -0.217495E+03  0.171E+00    0.06       0.0  T
   2   -215.8946357  0.160047E+01  0.351E+00    0.10       1.0  T
   3   -217.3288160 -0.143418E+01  0.181E+00    0.39       1.0  T
   4   -217.3561320 -0.273159E-01  0.143E+00    0.06       1.0  T
   5   -217.1795689  0.176563E+00  0.149E+00    0.27       1.0  T
   6   -217.6031200 -0.423551E+00  0.971E-01    0.27       1.0  T
   7   -217.7100116 -0.106892E+00  0.699E-01    0.09       1.0  T
   8   -217.0264747  0.683537E+00  0.182E+00    0.03       1.0  T
   9   -217.6393790 -0.612904E+00  0.768E-01    0.08       1.0  T
  10   -217.6870028 -0.476237E-01  0.638E-01    0.15       1.0  T
  11   -217.7370051 -0.500023E-01  0.455E-01    0.09       1.0  T
  12   -217.7634712 -0.264661E-01  0.192E-01    0.07       1.0  T
  13   -217.7598681  0.360307E-02  0.197E-01    0.09       1.0  T
  14   -217.7607365 -0.868336E-03  0.187E-01    0.09       1.0  T
  15   -217.7589879  0.174853E-02  0.195E-01    0.09       1.0  T
  16   -217.7615812 -0.259322E-02  0.182E-01    0.08       1.0  T
  17   -217.7666201 -0.503890E-02  0.768E-02    0.08       1.0  T
  18   -217.7659069  0.713126E-03  0.950E-02    0.08       1.0  T
  19   -217.7667912 -0.884248E-03  0.525E-02    0.07       1.0  T
  20   -217.7672766 -0.485439E-03  0.247E-02    0.08       1.0  T
  21   -217.7673228 -0.462257E-04  0.191E-02    0.08       1.0  T
  22   -217.7673816 -0.587594E-04  0.701E-03    0.08       1.4  T
  23   -217.7673669  0.146518E-04  0.105E-02    0.08       1.0  T
  24   -217.7673836 -0.166122E-04  0.468E-03    0.08       2.0  T
  25   -217.7673854 -0.183040E-05  0.326E-03    0.08       2.9  T
  26   -217.7673870 -0.165203E-05  0.793E-04    0.08      12.0  T
  27   -217.7673871 -0.102957E-06  0.537E-04    0.08      17.7  T
  28   -217.7673872 -0.309434E-07  0.308E-04    0.08      30.8  T
     SCC iter.                  ...        0 min,  2.024 sec
     gradient                   ...        0 min,  0.040 sec
 * total energy  :  -215.0989259 Eh     change       -0.3623149E+00 Eh
   gradient norm :     0.4298189 Eh/α   predicted    -0.3543430E+00 (  -2.20%)
   displ. norm   :     0.7263204 α      lambda       -0.2735544E+00
   maximum displ.:     0.1877482 α      in ANC's #223, #212, #219, ...

........................................................................
.............................. CYCLE    6 ..............................
........................................................................

 iter      E             dE          RMSdq      gap      omega  full diag
   1   -217.7746028 -0.217775E+03  0.955E-01    0.07       0.0  T
   2   -216.4168499  0.135775E+01  0.281E+00    0.10       1.0  T
   3   -217.6755029 -0.125865E+01  0.117E+00    0.32       1.0  T
   4   -217.5634781  0.112025E+00  0.129E+00    0.05       1.0  T
   5   -217.7522420 -0.188764E+00  0.828E-01    0.14       1.0  T
   6   -217.7917385 -0.394966E-01  0.636E-01    0.04       1.0  T
   7   -217.2817356  0.510003E+00  0.140E+00    0.05       1.0  T
   8   -217.8411692 -0.559434E+00  0.513E-01    0.11       1.0  T
   9   -217.6390107  0.202159E+00  0.108E+00    0.02       1.0  T
  10   -217.7706004 -0.131590E+00  0.871E-01    0.08       1.0  T
  11   -217.7986940 -0.280936E-01  0.550E-01    0.06       1.0  T
  12   -217.8510705 -0.523765E-01  0.368E-01    0.12       1.0  T
  13   -217.8496743  0.139626E-02  0.349E-01    0.14       1.0  T
  14   -217.8680776 -0.184033E-01  0.230E-01    0.12       1.0  T
  15   -217.8677241  0.353495E-03  0.236E-01    0.11       1.0  T
  16   -217.8725303 -0.480621E-02  0.155E-01    0.10       1.0  T
  17   -217.8742162 -0.168591E-02  0.105E-01    0.09       1.0  T
  18   -217.8749991 -0.782920E-03  0.828E-02    0.09       1.0  T
  19   -217.8757501 -0.750945E-03  0.575E-02    0.09       1.0  T
  20   -217.8759378 -0.187749E-03  0.454E-02    0.09       1.0  T
  21   -217.8760783 -0.140425E-03  0.334E-02    0.09       1.0  T
  22   -217.8762212 -0.142916E-03  0.185E-02    0.09       1.0  T
  23   -217.8762437 -0.225593E-04  0.128E-02    0.09       1.0  T
  24   -217.8762604 -0.166655E-04  0.639E-03    0.09       1.5  T
  25   -217.8762662 -0.575860E-05  0.233E-03    0.09       4.1  T
  26   -217.8762667 -0.502828E-06  0.145E-03    0.09       6.6  T
  27   -217.8762668 -0.151332E-06  0.110E-03    0.09       8.6  T
  28   -217.8762670 -0.192757E-06  0.515E-04    0.09      18.4  T
  29   -217.8762670 -0.276739E-07  0.318E-04    0.09      29.9  T
     SCC iter.                  ...        0 min,  1.664 sec
     gradient                   ...        0 min,  0.038 sec
 * total energy  :  -215.3097722 Eh     change       -0.2108463E+00 Eh
   gradient norm :     0.3365020 Eh/α   predicted    -0.2089329E+00 (  -0.91%)
   displ. norm   :     0.6500454 α      lambda       -0.1470548E+00
   maximum displ.:     0.1361733 α      in ANC's #146, #223, #212, ...

........................................................................
.............................. CYCLE    7 ..............................
........................................................................

 iter      E             dE          RMSdq      gap      omega  full diag
   1   -217.8987980 -0.217899E+03  0.661E-01    0.11       0.0  T
   2   -216.3867396  0.151206E+01  0.251E+00    0.06       1.0  T
   3   -217.7557180 -0.136898E+01  0.985E-01    0.03       1.0  T
   4   -217.7518147  0.390321E-02  0.915E-01    0.08       1.0  T
   5   -217.8708863 -0.119072E+00  0.613E-01    0.09       1.0  T
   6   -217.8937660 -0.228798E-01  0.478E-01    0.05       1.0  T
   7   -217.5606879  0.333078E+00  0.110E+00    0.10       1.0  T
   8   -217.8626908 -0.302003E+00  0.579E-01    0.21       1.0  T
   9   -217.9147097 -0.520189E-01  0.339E-01    0.13       1.0  T
  10   -217.9330818 -0.183721E-01  0.163E-01    0.10       1.0  T
  11   -217.9313413  0.174045E-02  0.192E-01    0.12       1.0  T
  12   -217.9341401 -0.279876E-02  0.146E-01    0.10       1.0  T
  13   -217.9369714 -0.283129E-02  0.870E-02    0.10       1.0  T
  14   -217.9387616 -0.179022E-02  0.258E-02    0.08       1.0  T
  15   -217.9386128  0.148798E-03  0.365E-02    0.08       1.0  T
  16   -217.9387286 -0.115810E-03  0.252E-02    0.09       1.0  T
  17   -217.9387807 -0.520462E-04  0.194E-02    0.09       1.0  T
  18   -217.9388431 -0.624656E-04  0.707E-03    0.09       1.3  T
  19   -217.9388525 -0.940987E-05  0.283E-03    0.09       3.4  T
  20   -217.9388531 -0.513607E-06  0.263E-03    0.09       3.6  T
  21   -217.9388538 -0.766828E-06  0.152E-03    0.09       6.2  T
  22   -217.9388543 -0.464693E-06  0.383E-04    0.09      24.8  T
  23   -217.9388543 -0.449652E-07  0.118E-04    0.09      80.2  T
     SCC iter.                  ...        0 min,  1.494 sec
     gradient                   ...        0 min,  0.041 sec
 * total energy  :  -215.4226168 Eh     change       -0.1128446E+00 Eh
   gradient norm :     0.2833909 Eh/α   predicted    -0.1045971E+00 (  -7.31%)
   displ. norm   :     0.6111443 α      lambda       -0.9053799E-01
   maximum displ.:     0.1361683 α      in ANC's #55, #146, #85, ...

........................................................................
.............................. CYCLE    8 ..............................
........................................................................

 iter      E             dE          RMSdq      gap      omega  full diag
   1   -217.9568469 -0.217957E+03  0.633E-01    0.17       0.0  T
   2   -216.0618188  0.189503E+01  0.264E+00    0.11       1.0  T
   3   -217.5944639 -0.153265E+01  0.130E+00    0.05       1.0  T
   4   -217.5074601  0.870038E-01  0.133E+00    0.09       1.0  T
   5   -217.9196371 -0.412177E+00  0.665E-01    0.19       1.0  T
   6   -217.9704001 -0.507630E-01  0.374E-01    0.10       1.0  T
   7   -217.9056679  0.647322E-01  0.666E-01    0.07       1.0  T
   8   -217.9667100 -0.610420E-01  0.332E-01    0.10       1.0  T
   9   -217.9793135 -0.126036E-01  0.250E-01    0.07       1.0  T
  10   -217.9867330 -0.741950E-02  0.208E-01    0.10       1.0  T
  11   -217.9855435  0.118957E-02  0.204E-01    0.07       1.0  T
  12   -217.9865982 -0.105469E-02  0.192E-01    0.07       1.0  T
  13   -217.9903424 -0.374424E-02  0.144E-01    0.08       1.0  T
  14   -217.9911410 -0.798610E-03  0.122E-01    0.08       1.0  T
  15   -217.9944909 -0.334988E-02  0.400E-02    0.10       1.0  T
  16   -217.9947897 -0.298824E-03  0.123E-02    0.10       1.0  T
  17   -217.9948028 -0.130405E-04  0.982E-03    0.10       1.0  T
  18   -217.9948246 -0.218317E-04  0.519E-03    0.10       1.8  T
  19   -217.9948260 -0.141147E-05  0.337E-03    0.10       2.8  T
  20   -217.9948267 -0.691074E-06  0.266E-03    0.10       3.6  T
  21   -217.9948276 -0.879674E-06  0.151E-03    0.10       6.3  T
  22   -217.9948278 -0.256712E-06  0.827E-04    0.10      11.5  T
  23   -217.9948280 -0.148071E-06  0.324E-04    0.10      29.3  T
     SCC iter.                  ...        0 min,  1.510 sec
     gradient                   ...        0 min,  0.040 sec
 * total energy  :  -215.4938934 Eh     change       -0.7127663E-01 Eh
   gradient norm :     0.2240960 Eh/α   predicted    -0.6217686E-01 ( -12.77%)
   displ. norm   :     0.5779910 α      lambda       -0.6450884E-01
   maximum displ.:     0.1378151 α      in ANC's #55, #52, #83, ...

........................................................................
.............................. CYCLE    9 ..............................
........................................................................

 iter      E             dE          RMSdq      gap      omega  full diag
   1   -218.0125031 -0.218013E+03  0.608E-01    0.24       0.0  T
   2   -216.5358170  0.147669E+01  0.239E+00    0.08       1.0  T
   3   -217.9577876 -0.142197E+01  0.650E-01    0.13       1.0  T
   4   -217.9804682 -0.226806E-01  0.598E-01    0.20       1.0  T
   5   -218.0065594 -0.260913E-01  0.487E-01    0.11       1.0  T
   6   -218.0281416 -0.215821E-01  0.307E-01    0.12       1.0  T
   7   -218.0224220  0.571958E-02  0.312E-01    0.13       1.0  T
   8   -218.0417435 -0.193215E-01  0.180E-01    0.13       1.0  T
   9   -218.0463101 -0.456655E-02  0.117E-01    0.13       1.0  T
  10   -218.0467247 -0.414657E-03  0.105E-01    0.13       1.0  T
  11   -218.0469481 -0.223361E-03  0.838E-02    0.13       1.0  T
  12   -218.0467440  0.204107E-03  0.925E-02    0.12       1.0  T
  13   -218.0480101 -0.126610E-02  0.210E-02    0.14       1.0  T
  14   -218.0481085 -0.984622E-04  0.108E-02    0.13       1.0  T
  15   -218.0481337 -0.251697E-04  0.647E-03    0.14       1.5  T
  16   -218.0481379 -0.421468E-05  0.443E-03    0.14       2.1  T
  17   -218.0481419 -0.399365E-05  0.197E-03    0.14       4.8  T
  18   -218.0481416  0.267990E-06  0.180E-03    0.14       5.3  T
  19   -218.0481423 -0.615285E-06  0.600E-04    0.14      15.8  T
  20   -218.0481423 -0.493329E-07  0.225E-04    0.14      42.1  T
     SCC iter.                  ...        0 min,  1.283 sec
     gradient                   ...        0 min,  0.040 sec
 * total energy  :  -215.5429338 Eh     change       -0.4904041E-01 Eh
   gradient norm :     0.1419520 Eh/α   predicted    -0.4302978E-01 ( -12.26%)
   displ. norm   :     0.5308565 α      lambda       -0.3726913E-01
   maximum displ.:     0.1250096 α      in ANC's #52, #55, #48, ...

........................................................................
.............................. CYCLE   10 ..............................
........................................................................

 iter      E             dE          RMSdq      gap      omega  full diag
   1   -218.0615495 -0.218062E+03  0.485E-01    0.28       0.0  T
   2   -217.0922490  0.969301E+00  0.210E+00    0.11       1.0  T
   3   -218.0307595 -0.938510E+00  0.535E-01    0.29       1.0  T
   4   -218.0405863 -0.982679E-02  0.487E-01    0.22       1.0  T
   5   -218.0335273  0.705897E-02  0.508E-01    0.15       1.0  T
   6   -218.0701045 -0.365772E-01  0.280E-01    0.24       1.0  T
   7   -218.0781559 -0.805136E-02  0.163E-01    0.18       1.0  T
   8   -218.0805350 -0.237913E-02  0.129E-01    0.21       1.0  T
   9   -218.0821932 -0.165823E-02  0.950E-02    0.18       1.0  T
  10   -218.0832000 -0.100681E-02  0.529E-02    0.18       1.0  T
  11   -218.0830004  0.199643E-03  0.533E-02    0.19       1.0  T
  12   -218.0829637  0.366639E-04  0.469E-02    0.17       1.0  T
  13   -218.0834532 -0.489481E-03  0.124E-02    0.19       1.0  T
  14   -218.0834780 -0.247490E-04  0.431E-03    0.19       2.2  T
  15   -218.0834792 -0.124189E-05  0.320E-03    0.19       3.0  T
  16   -218.0834809 -0.167346E-05  0.108E-03    0.19       8.8  T
  17   -218.0834809 -0.493710E-07  0.830E-04    0.19      11.4  T
  18   -218.0834810 -0.112734E-06  0.346E-04    0.19      27.4  T
     SCC iter.                  ...        0 min,  1.191 sec
     gradient                   ...        0 min,  0.039 sec
 * total energy  :  -215.5697254 Eh     change       -0.2679162E-01 Eh
   gradient norm :     0.0790573 Eh/α   predicted    -0.2388595E-01 ( -10.85%)
   displ. norm   :     0.5400360 α      lambda       -0.1859959E-01
   maximum displ.:     0.1342493 α      in ANC's #17, #27, #52, ...

........................................................................
.............................. CYCLE   11 ..............................
........................................................................

 iter      E             dE          RMSdq      gap      omega  full diag
   1   -218.0871728 -0.218087E+03  0.303E-01    0.27       0.0  T
   2   -217.5958860  0.491287E+00  0.159E+00    0.14       1.0  T
   3   -218.0763348 -0.480449E+00  0.335E-01    0.31       1.0  T
   4   -218.0723524  0.398249E-02  0.343E-01    0.26       1.0  T
   5   -218.0853208 -0.129685E-01  0.215E-01    0.23       1.0  T
   6   -218.0857440 -0.423131E-03  0.197E-01    0.23       1.0  T
   7   -218.0920857 -0.634168E-02  0.875E-02    0.25       1.0  T
   8   -218.0926673 -0.581613E-03  0.699E-02    0.25       1.0  T
   9   -218.0930038 -0.336564E-03  0.569E-02    0.24       1.0  T
  10   -218.0932642 -0.260327E-03  0.336E-02    0.24       1.0  T
  11   -218.0934511 -0.186971E-03  0.914E-03    0.23       1.0  T
  12   -218.0934515 -0.361043E-06  0.595E-03    0.23       1.6  T
  13   -218.0934532 -0.173601E-05  0.507E-03    0.23       1.9  T
  14   -218.0934567 -0.351403E-05  0.240E-03    0.23       4.0  T
  15   -218.0934577 -0.922201E-06  0.788E-04    0.23      12.0  T
  16   -218.0934577 -0.703486E-07  0.426E-04    0.23      22.3  T
     SCC iter.                  ...        0 min,  1.218 sec
     gradient                   ...        0 min,  0.041 sec
 * total energy  :  -215.5838817 Eh     change       -0.1415632E-01 Eh
   gradient norm :     0.0597062 Eh/α   predicted    -0.1201199E-01 ( -15.15%)
   displ. norm   :     0.5919827 α      lambda       -0.1279317E-01
   maximum displ.:     0.1901024 α      in ANC's #17, #18, #13, ...

........................................................................
.............................. CYCLE   12 ..............................
........................................................................

 iter      E             dE          RMSdq      gap      omega  full diag
   1   -218.1037292 -0.218104E+03  0.200E-01    0.26       0.0  T
   2   -218.0176827  0.860465E-01  0.667E-01    0.19       1.0  T
   3   -218.0962601 -0.785774E-01  0.238E-01    0.30       1.0  T
   4   -218.0815121  0.147480E-01  0.357E-01    0.21       1.0  T
   5   -218.0945354 -0.130233E-01  0.234E-01    0.26       1.0  T
   6   -218.1029671 -0.843162E-02  0.109E-01    0.25       1.0  T
   7   -218.1043346 -0.136757E-02  0.603E-02    0.26       1.0  T
   8   -218.1048951 -0.560452E-03  0.334E-02    0.25       1.0  T
   9   -218.1049633 -0.682202E-04  0.273E-02    0.25       1.0  T
  10   -218.1050063 -0.430358E-04  0.191E-02    0.25       1.0  T
  11   -218.1050727 -0.663642E-04  0.518E-03    0.25       1.8  T
  12   -218.1050758 -0.304548E-05  0.171E-03    0.25       5.5  T
  13   -218.1050759 -0.166446E-06  0.108E-03    0.25       8.8  T
  14   -218.1050761 -0.159811E-06  0.410E-04    0.25      23.2  T
  15   -218.1050761 -0.154088E-07  0.191E-04    0.25      49.8  T
     SCC iter.                  ...        0 min,  0.846 sec
     gradient                   ...        0 min,  0.039 sec
 * total energy  :  -215.5940371 Eh     change       -0.1015538E-01 Eh
   gradient norm :     0.0508183 Eh/α   predicted    -0.8638226E-02 ( -14.94%)
   displ. norm   :     0.6464178 α      lambda       -0.1001587E-01
   maximum displ.:     0.2358991 α      in ANC's #17, #18, #13, ...

........................................................................
.............................. CYCLE   13 ..............................
........................................................................

 iter      E             dE          RMSdq      gap      omega  full diag
   1   -218.1190794 -0.218119E+03  0.158E-01    0.25       0.0  T
   2   -218.1160524  0.302707E-02  0.158E-01    0.26       1.0  T
   3   -218.0891034  0.269489E-01  0.391E-01    0.21       1.0  T
   4   -218.1045885 -0.154850E-01  0.291E-01    0.31       1.0  T
   5   -218.1180428 -0.134544E-01  0.845E-02    0.24       1.0  T
   6   -218.1155998  0.244302E-02  0.135E-01    0.25       1.0  T
   7   -218.1192822 -0.368241E-02  0.243E-02    0.25       1.0  T
   8   -218.1193596 -0.773759E-04  0.123E-02    0.25       1.0  T
   9   -218.1193394  0.201257E-04  0.149E-02    0.25       1.0  T
  10   -218.1193756 -0.361707E-04  0.618E-03    0.25       1.5  T
  11   -218.1193819 -0.623805E-05  0.210E-03    0.25       4.5  T
  12   -218.1193826 -0.733166E-06  0.103E-03    0.25       9.2  T
  13   -218.1193828 -0.183171E-06  0.503E-04    0.25      18.9  T
  14   -218.1193828 -0.168656E-07  0.314E-04    0.25      30.3  T
     SCC iter.                  ...        0 min,  0.873 sec
     gradient                   ...        0 min,  0.040 sec
 * total energy  :  -215.6022506 Eh     change       -0.8213508E-02 Eh
   gradient norm :     0.0462905 Eh/α   predicted    -0.7100534E-02 ( -13.55%)
   displ. norm   :     0.6897750 α      lambda       -0.8446301E-02
   maximum displ.:     0.2693023 α      in ANC's #17, #18, #13, ...

........................................................................
.............................. CYCLE   14 ..............................
........................................................................

 iter      E             dE          RMSdq      gap      omega  full diag
   1   -218.1349191 -0.218135E+03  0.151E-01    0.23       0.0  T
   2   -218.1172943  0.176248E-01  0.304E-01    0.30       1.0  T
   3   -218.1176239 -0.329695E-03  0.313E-01    0.20       1.0  T
   4   -218.1199952 -0.237129E-02  0.288E-01    0.24       1.0  T
   5   -218.1321775 -0.121823E-01  0.129E-01    0.24       1.0  T
   6   -218.1332135 -0.103593E-02  0.110E-01    0.25       1.0  T
   7   -218.1353476 -0.213412E-02  0.354E-02    0.25       1.0  T
   8   -218.1354568 -0.109182E-03  0.251E-02    0.24       1.0  T
   9   -218.1355273 -0.705397E-04  0.141E-02    0.24       1.0  T
  10   -218.1355557 -0.283827E-04  0.618E-03    0.24       1.5  T
  11   -218.1355600 -0.434743E-05  0.325E-03    0.24       2.9  T
  12   -218.1355620 -0.197003E-05  0.971E-04    0.24       9.8  T
  13   -218.1355620 -0.323952E-07  0.784E-04    0.24      12.1  T
  14   -218.1355621 -0.923635E-07  0.296E-04    0.24      32.1  T
     SCC iter.                  ...        0 min,  0.863 sec
     gradient                   ...        0 min,  0.039 sec
 * total energy  :  -215.6093541 Eh     change       -0.7103473E-02 Eh
   gradient norm :     0.0437176 Eh/α   predicted    -0.6232490E-02 ( -12.26%)
   displ. norm   :     0.7167499 α      lambda       -0.7395456E-02
   maximum displ.:     0.2839519 α      in ANC's #17, #18, #9, ...

........................................................................
.............................. CYCLE   15 ..............................
........................................................................

 iter      E             dE          RMSdq      gap      omega  full diag
   1   -218.1463114 -0.218146E+03  0.163E-01    0.22       0.0  T
   2   -218.1062871  0.400243E-01  0.440E-01    0.31       1.0  T
   3   -218.1359056 -0.296184E-01  0.260E-01    0.19       1.0  T
   4   -218.1305954  0.531017E-02  0.300E-01    0.22       1.0  T
   5   -218.1401779 -0.958252E-02  0.192E-01    0.22       1.0  T
   6   -218.1471528 -0.697489E-02  0.564E-02    0.24       1.0  T
   7   -218.1476221 -0.469258E-03  0.287E-02    0.23       1.0  T
   8   -218.1476188  0.330619E-05  0.276E-02    0.24       1.0  T
   9   -218.1477241 -0.105306E-03  0.133E-02    0.23       1.0  T
  10   -218.1477503 -0.261800E-04  0.463E-03    0.23       2.1  T
  11   -218.1477514 -0.117554E-05  0.302E-03    0.23       3.1  T
  12   -218.1477534 -0.195506E-05  0.917E-04    0.23      10.4  T
  13   -218.1477534 -0.616967E-07  0.722E-04    0.23      13.1  T
  14   -218.1477535 -0.557120E-07  0.395E-04    0.23      24.0  T
     SCC iter.                  ...        0 min,  0.763 sec
     gradient                   ...        0 min,  0.040 sec
 * total energy  :  -215.6156157 Eh     change       -0.6261616E-02 Eh
   gradient norm :     0.0396949 Eh/α   predicted    -0.5597367E-02 ( -10.61%)
   displ. norm   :     0.7248509 α      lambda       -0.6323777E-02
   maximum displ.:     0.2883618 α      in ANC's #17, #18, #9, ...

........................................................................
.............................. CYCLE   16 ..............................
........................................................................

 iter      E             dE          RMSdq      gap      omega  full diag
   1   -218.1559180 -0.218156E+03  0.176E-01    0.21       0.0  T
   2   -218.1045724  0.513455E-01  0.494E-01    0.26       1.0  T
   3   -218.1505814 -0.460090E-01  0.209E-01    0.19       1.0  T
   4   -218.1357196  0.148618E-01  0.338E-01    0.20       1.0  T
   5   -218.1545510 -0.188313E-01  0.139E-01    0.23       1.0  T
   6   -218.1577731 -0.322210E-02  0.446E-02    0.23       1.0  T
   7   -218.1580138 -0.240750E-03  0.260E-02    0.21       1.0  T
   8   -218.1579352  0.785722E-04  0.313E-02    0.23       1.0  T
   9   -218.1580956 -0.160390E-03  0.141E-02    0.22       1.0  T
  10   -218.1581151 -0.195164E-04  0.825E-03    0.22       1.2  T
  11   -218.1581223 -0.717142E-05  0.334E-03    0.22       2.8  T
  12   -218.1581242 -0.185625E-05  0.115E-03    0.22       8.2  T
  13   -218.1581242 -0.499842E-07  0.991E-04    0.22       9.6  T
  14   -218.1581244 -0.158915E-06  0.433E-04    0.22      21.9  T
     SCC iter.                  ...        0 min,  0.992 sec
     gradient                   ...        0 min,  0.041 sec
 * total energy  :  -215.6209199 Eh     change       -0.5304173E-02 Eh
   gradient norm :     0.0355002 Eh/α   predicted    -0.4823176E-02 (  -9.07%)
   displ. norm   :     0.7123294 α      lambda       -0.5116516E-02
   maximum displ.:     0.2767950 α      in ANC's #17, #18, #9, ...

........................................................................
.............................. CYCLE   17 ..............................
........................................................................

 iter      E             dE          RMSdq      gap      omega  full diag
   1   -218.1583365 -0.218158E+03  0.201E-01    0.18       0.0  T
   2   -218.0835518  0.747846E-01  0.599E-01    0.21       1.0  T
   3   -218.1598869 -0.763351E-01  0.136E-01    0.20       1.0  T
   4   -218.1198141  0.400729E-01  0.482E-01    0.15       1.0  T
   5   -218.1572464 -0.374324E-01  0.158E-01    0.18       1.0  T
   6   -218.1607416 -0.349517E-02  0.936E-02    0.20       1.0  T
   7   -218.1619736 -0.123201E-02  0.404E-02    0.19       1.0  T
   8   -218.1621599 -0.186288E-03  0.275E-02    0.21       1.0  T
   9   -218.1621935 -0.335450E-04  0.221E-02    0.20       1.0  T
  10   -218.1622273 -0.338884E-04  0.170E-02    0.21       1.0  T
  11   -218.1622671 -0.397350E-04  0.855E-03    0.21       1.1  T
  12   -218.1622789 -0.118313E-04  0.288E-03    0.20       3.3  T
  13   -218.1622794 -0.471234E-06  0.203E-03    0.21       4.7  T
  14   -218.1622800 -0.650466E-06  0.886E-04    0.20      10.7  T
  15   -218.1622801 -0.840540E-07  0.482E-04    0.20      19.7  T
     SCC iter.                  ...        0 min,  0.887 sec
     gradient                   ...        0 min,  0.041 sec
 * total energy  :  -215.6251402 Eh     change       -0.4220272E-02 Eh
   gradient norm :     0.0300856 Eh/α   predicted    -0.3856354E-02 (  -8.62%)
   displ. norm   :     0.6957753 α      lambda       -0.4099459E-02
   maximum displ.:     0.2662776 α      in ANC's #17, #18, #9, ...

........................................................................
.............................. CYCLE   18 ..............................
........................................................................

 iter      E             dE          RMSdq      gap      omega  full diag
   1   -218.1637410 -0.218164E+03  0.220E-01    0.15       0.0  T
   2   -218.0509778  0.112763E+00  0.738E-01    0.15       1.0  T
   3   -218.1496604 -0.986825E-01  0.330E-01    0.20       1.0  T
   4   -218.1602510 -0.105906E-01  0.223E-01    0.15       1.0  T
   5   -218.1599760  0.274950E-03  0.207E-01    0.14       1.0  T
   6   -218.1675921 -0.761608E-02  0.987E-02    0.17       1.0  T
   7   -218.1681527 -0.560603E-03  0.819E-02    0.18       1.0  T
   8   -218.1687170 -0.564299E-03  0.519E-02    0.18       1.0  T
   9   -218.1691306 -0.413603E-03  0.318E-02    0.18       1.0  T
  10   -218.1692139 -0.832979E-04  0.196E-02    0.18       1.0  T
  11   -218.1692481 -0.341900E-04  0.135E-02    0.18       1.0  T
  12   -218.1692765 -0.283947E-04  0.427E-03    0.18       2.2  T
  13   -218.1692797 -0.316674E-05  0.150E-03    0.18       6.3  T
  14   -218.1692801 -0.468525E-06  0.698E-04    0.18      13.6  T
  15   -218.1692802 -0.845701E-07  0.276E-04    0.18      34.4  T
     SCC iter.                  ...        0 min,  0.830 sec
     gradient                   ...        0 min,  0.040 sec
 * total energy  :  -215.6284792 Eh     change       -0.3339034E-02 Eh
   gradient norm :     0.0326038 Eh/α   predicted    -0.3042020E-02 (  -8.90%)
   displ. norm   :     0.6852594 α      lambda       -0.3512071E-02
   maximum displ.:     0.2450722 α      in ANC's #17, #9, #10, ...

........................................................................
.............................. CYCLE   19 ..............................
........................................................................

 iter      E             dE          RMSdq      gap      omega  full diag
   1   -218.1640804 -0.218164E+03  0.223E-01    0.12       0.0  T
   2   -218.0332195  0.130861E+00  0.795E-01    0.12       1.0  T
   3   -218.1454819 -0.112262E+00  0.364E-01    0.19       1.0  T
   4   -218.1610872 -0.156053E-01  0.221E-01    0.13       1.0  T
   5   -218.1628606 -0.177348E-02  0.186E-01    0.13       1.0  T
   6   -218.1678351 -0.497444E-02  0.112E-01    0.15       1.0  T
   7   -218.1689301 -0.109500E-02  0.773E-02    0.16       1.0  T
   8   -218.1692793 -0.349236E-03  0.565E-02    0.16       1.0  T
   9   -218.1698457 -0.566361E-03  0.308E-02    0.16       1.0  T
  10   -218.1698896 -0.439298E-04  0.220E-02    0.15       1.0  T
  11   -218.1699408 -0.511934E-04  0.158E-02    0.15       1.0  T
  12   -218.1699855 -0.447125E-04  0.521E-03    0.15       1.8  T
  13   -218.1699909 -0.534884E-05  0.159E-03    0.15       6.0  T
  14   -218.1699913 -0.467279E-06  0.748E-04    0.15      12.7  T
  15   -218.1699914 -0.933044E-07  0.314E-04    0.15      30.2  T
     SCC iter.                  ...        0 min,  0.970 sec
     gradient                   ...        0 min,  0.041 sec
 * total energy  :  -215.6313185 Eh     change       -0.2839304E-02 Eh
   gradient norm :     0.0296188 Eh/α   predicted    -0.2580641E-02 (  -9.11%)
   displ. norm   :     0.6847033 α      lambda       -0.3256079E-02
   maximum displ.:     0.2287915 α      in ANC's #17, #9, #18, ...

........................................................................
.............................. CYCLE   20 ..............................
........................................................................

 iter      E             dE          RMSdq      gap      omega  full diag
   1   -218.1702558 -0.218170E+03  0.211E-01    0.10       0.0  T
   2   -218.0297855  0.140470E+00  0.802E-01    0.08       1.0  T
   3   -218.1470006 -0.117215E+00  0.381E-01    0.17       1.0  T
   4   -218.1642509 -0.172503E-01  0.245E-01    0.10       1.0  T
   5   -218.1652331 -0.982257E-03  0.213E-01    0.11       1.0  T
   6   -218.1660674 -0.834224E-03  0.180E-01    0.13       1.0  T
   7   -218.1725101 -0.644275E-02  0.124E-01    0.15       1.0  T
   8   -218.1742046 -0.169449E-02  0.759E-02    0.14       1.0  T
   9   -218.1749118 -0.707157E-03  0.465E-02    0.13       1.0  T
  10   -218.1749924 -0.806149E-04  0.398E-02    0.13       1.0  T
  11   -218.1751504 -0.158027E-03  0.262E-02    0.13       1.0  T
  12   -218.1752525 -0.102082E-03  0.111E-02    0.13       1.0  T
  13   -218.1752721 -0.196636E-04  0.271E-03    0.13       3.5  T
  14   -218.1752736 -0.149300E-05  0.116E-03    0.13       8.2  T
  15   -218.1752738 -0.171608E-06  0.613E-04    0.13      15.5  T
  16   -218.1752738 -0.105278E-07  0.566E-04    0.13      16.8  T
     SCC iter.                  ...        0 min,  1.061 sec
     gradient                   ...        0 min,  0.041 sec
 * total energy  :  -215.6340238 Eh     change       -0.2705258E-02 Eh
   gradient norm :     0.0317874 Eh/α   predicted    -0.2391303E-02 ( -11.61%)
   displ. norm   :     0.6970199 α      lambda       -0.3157191E-02
   maximum displ.:     0.2185106 α      in ANC's #17, #9, #10, ...
 * RMSD in coord.:     0.7866134 α      energy gain  -0.4259036E+01 Eh

generating ANC from model Hessian ...
Using Lindh-Hessian (1995)
 Shifting diagonal of input Hessian by    9.9504010676792053E-003
 Lowest  eigenvalues of input Hessian
    0.000000    0.000000    0.000000    0.000000    0.000000    0.000000
    0.010000    0.010017    0.010123    0.010135    0.010238    0.010324
    0.010386    0.010454    0.010558    0.010571    0.010711    0.010848
 Highest eigenvalues
    2.694159    2.700804    2.724794    2.761196    2.766167    2.780474


........................................................................
.............................. CYCLE   21 ..............................
........................................................................

 iter      E             dE          RMSdq      gap      omega  full diag
   1   -218.1746821 -0.218175E+03  0.194E-01    0.09       0.0  T
   2   -218.0728971  0.101785E+00  0.673E-01    0.10       1.0  T
   3   -218.1642472 -0.913501E-01  0.238E-01    0.10       1.0  T
   4   -218.0452380  0.119009E+00  0.700E-01    0.07       1.0  T
   5   -218.1657875 -0.120550E+00  0.236E-01    0.10       1.0  T
   6   -218.1683373 -0.254975E-02  0.197E-01    0.12       1.0  T
   7   -218.1727789 -0.444157E-02  0.159E-01    0.10       1.0  T
   8   -218.1776923 -0.491339E-02  0.660E-02    0.12       1.0  T
   9   -218.1779939 -0.301630E-03  0.490E-02    0.11       1.0  T
  10   -218.1778159  0.178007E-03  0.532E-02    0.11       1.0  T
  11   -218.1779864 -0.170524E-03  0.380E-02    0.11       1.0  T
  12   -218.1782672 -0.280841E-03  0.198E-02    0.11       1.0  T
  13   -218.1782999 -0.326192E-04  0.145E-02    0.11       1.0  T
  14   -218.1783200 -0.201414E-04  0.866E-03    0.11       1.1  T
  15   -218.1783309 -0.108528E-04  0.411E-03    0.11       2.3  T
  16   -218.1783328 -0.189125E-05  0.137E-03    0.11       6.9  T
  17   -218.1783330 -0.274416E-06  0.343E-04    0.11      27.7  T
  18   -218.1783331 -0.252856E-07  0.172E-04    0.11      55.2  T
     SCC iter.                  ...        0 min,  1.004 sec
     gradient                   ...        0 min,  0.038 sec
 * total energy  :  -215.6367426 Eh     change       -0.2718850E-02 Eh
   gradient norm :     0.0328841 Eh/α   predicted     0.0000000E+00 (-100.00%)
   displ. norm   :     0.3347791 α      lambda       -0.4118375E-02
   maximum displ.:     0.1129816 α      in ANC's #14, #46, #23, ...

........................................................................
.............................. CYCLE   22 ..............................
........................................................................

 iter      E             dE          RMSdq      gap      omega  full diag
   1   -218.1803300 -0.218180E+03  0.120E-01    0.10       0.0  T
   2   -218.1400608  0.402692E-01  0.441E-01    0.13       1.0  T
   3   -218.1750076 -0.349468E-01  0.193E-01    0.08       1.0  T
   4   -218.1708825  0.412511E-02  0.231E-01    0.12       1.0  T
   5   -218.1555789  0.153036E-01  0.328E-01    0.08       1.0  T
   6   -218.1787499 -0.231710E-01  0.914E-02    0.10       1.0  T
   7   -218.1794651 -0.715158E-03  0.798E-02    0.11       1.0  T
   8   -218.1810526 -0.158747E-02  0.374E-02    0.11       1.0  T
   9   -218.1812714 -0.218858E-03  0.175E-02    0.11       1.0  T
  10   -218.1812625  0.890085E-05  0.160E-02    0.10       1.0  T
  11   -218.1812896 -0.271124E-04  0.113E-02    0.10       1.0  T
  12   -218.1813112 -0.215442E-04  0.311E-03    0.10       3.1  T
  13   -218.1813129 -0.173466E-05  0.923E-04    0.10      10.3  T
  14   -218.1813131 -0.176316E-06  0.420E-04    0.10      22.6  T
  15   -218.1813131 -0.551128E-08  0.294E-04    0.10      32.3  T
     SCC iter.                  ...        0 min,  1.058 sec
     gradient                   ...        0 min,  0.040 sec
 * total energy  :  -215.6400941 Eh     change       -0.3351467E-02 Eh
   gradient norm :     0.0198250 Eh/α   predicted    -0.2291598E-02 ( -31.62%)
   displ. norm   :     0.6270581 α      lambda       -0.4673483E-02
   maximum displ.:     0.2172408 α      in ANC's #14, #46, #23, ...

........................................................................
.............................. CYCLE   23 ..............................
........................................................................

 iter      E             dE          RMSdq      gap      omega  full diag
   1   -218.1736490 -0.218174E+03  0.238E-01    0.09       0.0  T
   2   -218.0108707  0.162778E+00  0.882E-01    0.24       1.0  T
   3   -218.1187589 -0.107888E+00  0.544E-01    0.05       1.0  T
   4   -218.1408682 -0.221093E-01  0.405E-01    0.08       1.0  T
   5   -218.1264281  0.144402E-01  0.451E-01    0.13       1.0  T
   6   -218.1619187 -0.354906E-01  0.257E-01    0.08       1.0  T
   7   -218.1745713 -0.126527E-01  0.130E-01    0.11       1.0  T
   8   -218.1778544 -0.328312E-02  0.890E-02    0.09       1.0  T
   9   -218.1789734 -0.111897E-02  0.570E-02    0.10       1.0  T
  10   -218.1791127 -0.139315E-03  0.387E-02    0.09       1.0  T
  11   -218.1791309 -0.181259E-04  0.357E-02    0.10       1.0  T
  12   -218.1793599 -0.229056E-03  0.767E-03    0.10       1.2  T
  13   -218.1793655 -0.558489E-05  0.484E-03    0.10       2.0  T
  14   -218.1793676 -0.206712E-05  0.369E-03    0.10       2.6  T
  15   -218.1793711 -0.357121E-05  0.928E-04    0.10      10.2  T
  16   -218.1793712 -0.708105E-07  0.504E-04    0.10      18.8  T
  17   -218.1793712 -0.300765E-07  0.389E-04    0.10      24.4  T
     SCC iter.                  ...        0 min,  1.041 sec
     gradient                   ...        0 min,  0.041 sec
 * total energy  :  -215.6437250 Eh     change       -0.3630932E-02 Eh
   gradient norm :     0.0172632 Eh/α   predicted    -0.3256156E-02 ( -10.32%)
   displ. norm   :     0.6751794 α      lambda       -0.3409028E-02
   maximum displ.:     0.2385755 α      in ANC's #14, #23, #25, ...

........................................................................
.............................. CYCLE   24 ..............................
........................................................................

 iter      E             dE          RMSdq      gap      omega  full diag
   1   -218.1645055 -0.218165E+03  0.295E-01    0.08       0.0  T
   2   -217.9232305  0.241275E+00  0.107E+00    0.36       1.0  T
   3   -218.1229090 -0.199679E+00  0.458E-01    0.08       1.0  T
   4   -218.0707600  0.521490E-01  0.623E-01    0.09       1.0  T
   5   -218.1544874 -0.837274E-01  0.337E-01    0.10       1.0  T
   6   -218.1741921 -0.197047E-01  0.676E-02    0.09       1.0  T
   7   -218.1721080  0.208411E-02  0.107E-01    0.10       1.0  T
   8   -218.1719274  0.180636E-03  0.112E-01    0.08       1.0  T
   9   -218.1741042 -0.217686E-02  0.598E-02    0.09       1.0  T
  10   -218.1737549  0.349352E-03  0.676E-02    0.08       1.0  T
  11   -218.1745233 -0.768405E-03  0.420E-02    0.09       1.0  T
  12   -218.1748084 -0.285164E-03  0.112E-02    0.09       1.0  T
  13   -218.1748331 -0.247055E-04  0.451E-03    0.09       2.1  T
  14   -218.1748328  0.292823E-06  0.399E-03    0.09       2.4  T
  15   -218.1748343 -0.147069E-05  0.248E-03    0.09       3.8  T
  16   -218.1748357 -0.138004E-05  0.633E-04    0.09      15.0  T
  17   -218.1748358 -0.668319E-07  0.376E-04    0.09      25.2  T
  18   -218.1748358 -0.139306E-07  0.186E-04    0.09      51.1  T
     SCC iter.                  ...        0 min,  1.163 sec
     gradient                   ...        0 min,  0.040 sec
 * total energy  :  -215.6467042 Eh     change       -0.2979204E-02 Eh
   gradient norm :     0.0333192 Eh/α   predicted    -0.2481547E-02 ( -16.70%)
   displ. norm   :     0.7816974 α      lambda       -0.4209889E-02
   maximum displ.:     0.2661861 α      in ANC's #14, #23, #25, ...

........................................................................
.............................. CYCLE   25 ..............................
........................................................................

 iter      E             dE          RMSdq      gap      omega  full diag
   1   -218.1477621 -0.218148E+03  0.427E-01    0.07       0.0  T
   2   -217.7801728  0.367589E+00  0.133E+00    0.51       1.0  T
   3   -218.1132238 -0.333051E+00  0.459E-01    0.11       1.0  T
   4   -217.9083338  0.204890E+00  0.973E-01    0.15       1.0  T
   5   -218.0980842 -0.189750E+00  0.500E-01    0.04       1.0  T
   6   -218.1574302 -0.593460E-01  0.229E-01    0.10       1.0  T
   7   -218.1644109 -0.698073E-02  0.163E-01    0.08       1.0  T
   8   -218.1693665 -0.495557E-02  0.104E-01    0.09       1.0  T
   9   -218.1697176 -0.351119E-03  0.755E-02    0.08       1.0  T
  10   -218.1700799 -0.362309E-03  0.695E-02    0.08       1.0  T
  11   -218.1704105 -0.330595E-03  0.488E-02    0.08       1.0  T
  12   -218.1708089 -0.398317E-03  0.192E-02    0.08       1.0  T
  13   -218.1708713 -0.624371E-04  0.617E-03    0.08       1.5  T
  14   -218.1708709  0.430660E-06  0.732E-03    0.08       1.3  T
  15   -218.1708781 -0.719496E-05  0.190E-03    0.08       5.0  T
  16   -218.1708790 -0.964668E-06  0.714E-04    0.08      13.3  T
  17   -218.1708791 -0.566316E-07  0.469E-04    0.08      20.2  T
     SCC iter.                  ...        0 min,  1.048 sec
     gradient                   ...        0 min,  0.039 sec
 * total energy  :  -215.6507946 Eh     change       -0.4090388E-02 Eh
   gradient norm :     0.0427111 Eh/α   predicted    -0.3391187E-02 ( -17.09%)
   displ. norm   :     0.8359941 α      lambda       -0.6294709E-02
   maximum displ.:     0.2583598 α      in ANC's #14, #23, #25, ...

........................................................................
.............................. CYCLE   26 ..............................
........................................................................

 iter      E             dE          RMSdq      gap      omega  full diag
   1   -218.1283152 -0.218128E+03  0.572E-01    0.08       0.0  T
   2   -217.6284421  0.499873E+00  0.155E+00    0.50       1.0  T
   3   -218.1122125 -0.483770E+00  0.481E-01    0.11       1.0  T
   4   -217.8499611  0.262251E+00  0.107E+00    0.20       1.0  T
   5   -218.0963393 -0.246378E+00  0.538E-01    0.03       1.0  T
   6   -218.1343984 -0.380590E-01  0.350E-01    0.08       1.0  T
   7   -218.1588479 -0.244495E-01  0.229E-01    0.06       1.0  T
   8   -218.1665471 -0.769923E-02  0.111E-01    0.07       1.0  T
   9   -218.1673451 -0.797956E-03  0.104E-01    0.07       1.0  T
  10   -218.1663066  0.103849E-02  0.111E-01    0.07       1.0  T
  11   -218.1676662 -0.135965E-02  0.911E-02    0.07       1.0  T
  12   -218.1684815 -0.815306E-03  0.496E-02    0.07       1.0  T
  13   -218.1690699 -0.588376E-03  0.159E-02    0.07       1.0  T
  14   -218.1690962 -0.262621E-04  0.127E-02    0.07       1.0  T
  15   -218.1691303 -0.341886E-04  0.392E-03    0.07       2.4  T
  16   -218.1691322 -0.183761E-05  0.185E-03    0.07       5.1  T
  17   -218.1691329 -0.698603E-06  0.643E-04    0.07      14.8  T
  18   -218.1691329 -0.537168E-07  0.293E-04    0.07      32.4  T
     SCC iter.                  ...        0 min,  1.135 sec
     gradient                   ...        0 min,  0.039 sec
 * total energy  :  -215.6568309 Eh     change       -0.6036322E-02 Eh
   gradient norm :     0.0383553 Eh/α   predicted    -0.5346996E-02 ( -11.42%)
   displ. norm   :     0.8188914 α      lambda       -0.8236616E-02
   maximum displ.:     0.2784236 α      in ANC's #23, #25, #14, ...

........................................................................
.............................. CYCLE   27 ..............................
........................................................................

 iter      E             dE          RMSdq      gap      omega  full diag
   1   -218.1253354 -0.218125E+03  0.663E-01    0.10       0.0  T
   2   -217.5759384  0.549397E+00  0.158E+00    0.36       1.0  T
   3   -218.0972227 -0.521284E+00  0.593E-01    0.12       1.0  T
   4   -217.8870697  0.210153E+00  0.995E-01    0.18       1.0  T
   5   -218.1119986 -0.224929E+00  0.482E-01    0.05       1.0  T
   6   -218.1427784 -0.307798E-01  0.331E-01    0.07       1.0  T
   7   -218.1634152 -0.206368E-01  0.219E-01    0.06       1.0  T
   8   -218.1708310 -0.741585E-02  0.124E-01    0.07       1.0  T
   9   -218.1716955 -0.864472E-03  0.915E-02    0.08       1.0  T
  10   -218.1708523  0.843211E-03  0.961E-02    0.07       1.0  T
  11   -218.1720875 -0.123523E-02  0.644E-02    0.07       1.0  T
  12   -218.1725051 -0.417594E-03  0.496E-02    0.07       1.0  T
  13   -218.1731398 -0.634730E-03  0.140E-02    0.07       1.0  T
  14   -218.1731732 -0.334135E-04  0.694E-03    0.07       1.4  T
  15   -218.1731714  0.189350E-05  0.563E-03    0.07       1.7  T
  16   -218.1731791 -0.774188E-05  0.215E-03    0.07       4.4  T
  17   -218.1731803 -0.123472E-05  0.610E-04    0.07      15.6  T
  18   -218.1731803  0.629965E-07  0.618E-04    0.07      15.3  T
  19   -218.1731803 -0.573073E-07  0.437E-04    0.07      21.7  T
     SCC iter.                  ...        0 min,  1.250 sec
     gradient                   ...        0 min,  0.048 sec
 * total energy  :  -215.6647286 Eh     change       -0.7897688E-02 Eh
   gradient norm :     0.0383469 Eh/α   predicted    -0.6879979E-02 ( -12.89%)
   displ. norm   :     0.9097917 α      lambda       -0.1071213E-01
   maximum displ.:     0.3365143 α      in ANC's #23, #25, #34, ...

........................................................................
.............................. CYCLE   28 ..............................
........................................................................

 iter      E             dE          RMSdq      gap      omega  full diag
   1   -218.1389427 -0.218139E+03  0.670E-01    0.13       0.0  T
   2   -217.5978576  0.541085E+00  0.148E+00    0.17       1.0  T
   3   -218.0855386 -0.487681E+00  0.669E-01    0.18       1.0  T
   4   -217.9403859  0.145153E+00  0.846E-01    0.11       1.0  T
   5   -218.0991513 -0.158765E+00  0.520E-01    0.14       1.0  T
   6   -218.1521326 -0.529813E-01  0.331E-01    0.13       1.0  T
   7   -218.1624837 -0.103511E-01  0.230E-01    0.11       1.0  T
   8   -218.1648679 -0.238423E-02  0.172E-01    0.11       1.0  T
   9   -218.1671097 -0.224184E-02  0.134E-01    0.09       1.0  T
  10   -218.1715476 -0.443790E-02  0.589E-02    0.10       1.0  T
  11   -218.1717823 -0.234667E-03  0.403E-02    0.10       1.0  T
  12   -218.1718328 -0.504690E-04  0.338E-02    0.09       1.0  T
  13   -218.1720152 -0.182435E-03  0.165E-02    0.09       1.0  T
  14   -218.1720512 -0.359643E-04  0.947E-03    0.09       1.0  T
  15   -218.1720530 -0.179454E-05  0.782E-03    0.09       1.2  T
  16   -218.1720657 -0.126914E-04  0.265E-03    0.09       3.6  T
  17   -218.1720670 -0.136516E-05  0.981E-04    0.09       9.7  T
  18   -218.1720672 -0.177700E-06  0.489E-04    0.09      19.4  T
  19   -218.1720672 -0.189994E-07  0.264E-04    0.09      36.0  T
     SCC iter.                  ...        0 min,  1.512 sec
     gradient                   ...        0 min,  0.043 sec
 * total energy  :  -215.6768901 Eh     change       -0.1216144E-01 Eh
   gradient norm :     0.0803916 Eh/α   predicted    -0.9789387E-02 ( -19.50%)
   displ. norm   :     0.9038784 α      lambda       -0.1478675E-01
   maximum displ.:     0.3394861 α      in ANC's #23, #25, #34, ...

........................................................................
.............................. CYCLE   29 ..............................
........................................................................

 iter      E             dE          RMSdq      gap      omega  full diag
   1   -218.1548091 -0.218155E+03  0.487E-01    0.14       0.0  T
   2   -217.8488084  0.306001E+00  0.114E+00    0.12       1.0  T
   3   -218.1096076 -0.260799E+00  0.533E-01    0.21       1.0  T
   4   -218.1243466 -0.147391E-01  0.445E-01    0.18       1.0  T
   5   -218.1231923  0.115430E-02  0.413E-01    0.16       1.0  T
   6   -218.1326790 -0.948667E-02  0.343E-01    0.17       1.0  T
   7   -218.1512539 -0.185749E-01  0.224E-01    0.16       1.0  T
   8   -218.1583595 -0.710558E-02  0.132E-01    0.14       1.0  T
   9   -218.1607265 -0.236706E-02  0.809E-02    0.13       1.0  T
  10   -218.1617050 -0.978533E-03  0.389E-02    0.12       1.0  T
  11   -218.1617278 -0.227044E-04  0.314E-02    0.12       1.0  T
  12   -218.1620138 -0.286006E-03  0.136E-02    0.12       1.0  T
  13   -218.1620364 -0.226557E-04  0.810E-03    0.12       1.2  T
  14   -218.1620483 -0.118750E-04  0.355E-03    0.12       2.7  T
  15   -218.1620502 -0.188017E-05  0.184E-03    0.12       5.2  T
  16   -218.1620504 -0.227627E-06  0.149E-03    0.12       6.4  T
  17   -218.1620507 -0.311388E-06  0.836E-04    0.12      11.4  T
  18   -218.1620508 -0.125617E-06  0.463E-04    0.12      20.5  T
     SCC iter.                  ...        0 min,  1.318 sec
     gradient                   ...        0 min,  0.040 sec
 * total energy  :  -215.6943795 Eh     change       -0.1748940E-01 Eh
   gradient norm :     0.1205471 Eh/α   predicted    -0.1343374E-01 ( -23.19%)
   displ. norm   :     0.8588075 α      lambda       -0.2114446E-01
   maximum displ.:     0.3289307 α      in ANC's #23, #25, #34, ...

........................................................................
.............................. CYCLE   30 ..............................
........................................................................

 iter      E             dE          RMSdq      gap      omega  full diag
   1   -218.1556819 -0.218156E+03  0.366E-01    0.14       0.0  T
   2   -218.1509182  0.476362E-02  0.245E-01    0.11       1.0  T
   3   -218.1162904  0.346278E-01  0.426E-01    0.14       1.0  T
   4   -218.0915942  0.246962E-01  0.504E-01    0.09       1.0  T
   5   -218.1426533 -0.510590E-01  0.250E-01    0.13       1.0  T
   6   -218.1483690 -0.571575E-02  0.186E-01    0.14       1.0  T
   7   -218.1507652 -0.239621E-02  0.172E-01    0.16       1.0  T
   8   -218.1561850 -0.541980E-02  0.726E-02    0.13       1.0  T
   9   -218.1570222 -0.837151E-03  0.488E-02    0.14       1.0  T
  10   -218.1574188 -0.396644E-03  0.229E-02    0.14       1.0  T
  11   -218.1574877 -0.689106E-04  0.139E-02    0.13       1.0  T
  12   -218.1575176 -0.298789E-04  0.620E-03    0.13       1.5  T
  13   -218.1575262 -0.856528E-05  0.254E-03    0.13       3.7  T
  14   -218.1575266 -0.416888E-06  0.183E-03    0.13       5.2  T
  15   -218.1575273 -0.657287E-06  0.718E-04    0.13      13.2  T
  16   -218.1575273 -0.653824E-07  0.485E-04    0.13      19.6  T
     SCC iter.                  ...        0 min,  0.925 sec
     gradient                   ...        0 min,  0.040 sec
 * total energy  :  -215.7180491 Eh     change       -0.2366968E-01 Eh
   gradient norm :     0.1516352 Eh/α   predicted    -0.1836979E-01 ( -22.39%)
   displ. norm   :     0.8198463 α      lambda       -0.2661275E-01
   maximum displ.:     0.3247159 α      in ANC's #23, #25, #34, ...

........................................................................
.............................. CYCLE   31 ..............................
........................................................................

 iter      E             dE          RMSdq      gap      omega  full diag
   1   -218.1597172 -0.218160E+03  0.280E-01    0.14       0.0  T
   2   -218.1487767  0.109405E-01  0.271E-01    0.16       1.0  T
   3   -217.9098624  0.238914E+00  0.106E+00    0.13       1.0  T
   4   -218.1507354 -0.240873E+00  0.216E-01    0.13       1.0  T
   5   -218.1482947  0.244076E-02  0.213E-01    0.11       1.0  T
   6   -218.1535631 -0.526840E-02  0.176E-01    0.15       1.0  T
   7   -218.1540536 -0.490524E-03  0.173E-01    0.17       1.0  T
   8   -218.1600789 -0.602529E-02  0.726E-02    0.14       1.0  T
   9   -218.1605919 -0.513007E-03  0.510E-02    0.14       1.0  T
  10   -218.1607924 -0.200548E-03  0.385E-02    0.14       1.0  T
  11   -218.1610618 -0.269379E-03  0.134E-02    0.14       1.0  T
  12   -218.1610814 -0.195806E-04  0.558E-03    0.14       1.7  T
  13   -218.1610846 -0.318233E-05  0.233E-03    0.14       4.1  T
  14   -218.1610848 -0.192822E-06  0.162E-03    0.14       5.9  T
  15   -218.1610853 -0.527532E-06  0.782E-04    0.14      12.1  T
  16   -218.1610853  0.205499E-07  0.745E-04    0.14      12.7  T
     SCC iter.                  ...        0 min,  1.378 sec
     gradient                   ...        0 min,  0.039 sec
 * total energy  :  -215.7464606 Eh     change       -0.2841145E-01 Eh
   gradient norm :     0.1703434 Eh/α   predicted    -0.2225023E-01 ( -21.69%)
   displ. norm   :     0.7929398 α      lambda       -0.3016821E-01
   maximum displ.:     0.3226213 α      in ANC's #23, #25, #34, ...

........................................................................
.............................. CYCLE   32 ..............................
........................................................................

 iter      E             dE          RMSdq      gap      omega  full diag
   1   -218.1709070 -0.218171E+03  0.227E-01    0.13       0.0  T
   2   -218.1619774  0.892965E-02  0.235E-01    0.15       1.0  T
   3   -217.9987360  0.163241E+00  0.893E-01    0.12       1.0  T
   4   -218.1560969 -0.157361E+00  0.245E-01    0.14       1.0  T
   5   -218.1302369  0.258600E-01  0.425E-01    0.12       1.0  T
   6   -218.1623590 -0.321221E-01  0.193E-01    0.15       1.0  T
   7   -218.1683179 -0.595889E-02  0.118E-01    0.14       1.0  T
   8   -218.1705250 -0.220712E-02  0.752E-02    0.14       1.0  T
   9   -218.1713892 -0.864175E-03  0.428E-02    0.14       1.0  T
  10   -218.1716488 -0.259579E-03  0.245E-02    0.13       1.0  T
  11   -218.1717523 -0.103520E-03  0.972E-03    0.13       1.0  T
  12   -218.1717677 -0.154083E-04  0.285E-03    0.13       3.3  T
  13   -218.1717685 -0.820338E-06  0.180E-03    0.13       5.3  T
  14   -218.1717689 -0.350394E-06  0.121E-03    0.13       7.9  T
  15   -218.1717691 -0.253395E-06  0.387E-04    0.13      24.5  T
  16   -218.1717691  0.501503E-07  0.545E-04    0.13      17.4  T
     SCC iter.                  ...        0 min,  0.962 sec
     gradient                   ...        0 min,  0.040 sec
 * total energy  :  -215.7760366 Eh     change       -0.2957604E-01 Eh
   gradient norm :     0.1794825 Eh/α   predicted    -0.2456830E-01 ( -16.93%)
   displ. norm   :     0.8201107 α      lambda       -0.6636884E-01
   maximum displ.:     0.2358971 α      in ANC's #23, #34, #35, ...

........................................................................
.............................. CYCLE   33 ..............................
........................................................................

 iter      E             dE          RMSdq      gap      omega  full diag
   1   -218.2319616 -0.218232E+03  0.391E-01    0.09       0.0  T
   2   -218.2104305  0.215311E-01  0.389E-01    0.14       1.0  T
   3   -217.7266275  0.483803E+00  0.149E+00    0.11       1.0  T
   4   -218.2134384 -0.486811E+00  0.341E-01    0.11       1.0  T
   5   -218.2156571 -0.221866E-02  0.248E-01    0.07       1.0  T
   6   -218.1613939  0.542632E-01  0.470E-01    0.03       1.0  T
   7   -218.2325617 -0.711678E-01  0.111E-01    0.11       1.0  T
   8   -218.2317947  0.766962E-03  0.119E-01    0.10       1.0  T
   9   -218.2331471 -0.135236E-02  0.831E-02    0.10       1.0  T
  10   -218.2342950 -0.114795E-02  0.489E-02    0.10       1.0  T
  11   -218.2345456 -0.250614E-03  0.340E-02    0.10       1.0  T
  12   -218.2347528 -0.207123E-03  0.117E-02    0.09       1.0  T
  13   -218.2347779 -0.251482E-04  0.327E-03    0.09       2.9  T
  14   -218.2347775  0.421563E-06  0.279E-03    0.09       3.4  T
  15   -218.2347789 -0.140624E-05  0.106E-03    0.09       9.0  T
  16   -218.2347789 -0.304273E-07  0.931E-04    0.09      10.2  T
  17   -218.2347791 -0.178983E-06  0.355E-04    0.09      26.7  T
     SCC iter.                  ...        0 min,  0.976 sec
     gradient                   ...        0 min,  0.043 sec
 * total energy  :  -215.8159481 Eh     change       -0.3991148E-01 Eh
   gradient norm :     0.1546467 Eh/α   predicted    -0.5550366E-01 (  39.07%)
   displ. norm   :     0.7255536 α      lambda       -0.4390004E-01
   maximum displ.:     0.2874794 α      in ANC's #23, #25, #35, ...

........................................................................
.............................. CYCLE   34 ..............................
........................................................................

 iter      E             dE          RMSdq      gap      omega  full diag
   1   -218.2246332 -0.218225E+03  0.327E-01    0.10       0.0  T
   2   -217.9850095  0.239624E+00  0.110E+00    0.07       1.0  T
[...]
    91   1 H        0.925     0.045     2.381     2.413
    92   1 H        0.925     0.046     2.367     2.406
    93   1 H        0.924     0.061     2.188     2.313
    94   1 H        0.925     0.052     2.296     2.370
    95   1 H        0.924     0.054     2.276     2.359
    96   1 H        0.924     0.079     1.993     2.208
    97   1 H        0.925     0.071     2.071     2.250
    98   1 H        0.925     0.072     2.066     2.248
    99   1 H        0.924     0.070     2.082     2.256
   100   1 H        0.924     0.039     2.459     2.452
   101   1 H        0.924     0.049     2.337     2.391
   102   1 H        0.925     0.065     2.145     2.291
   103   1 H        0.924     0.057     2.231     2.336
   104   1 H        0.926     0.092     1.856     2.130
   105   1 H        0.926     0.112     1.678     2.026
   106   1 H        0.926     0.112     1.681     2.028
   107   1 H        0.926     0.096     1.823     2.111
   108   1 H        0.926     0.110     1.698     2.038
   109   1 H        0.926     0.093     1.854     2.129
   110   1 H        0.926     0.111     1.685     2.030
   111   1 H        0.926     0.098     1.799     2.098

 Mol. C6AA /au·bohr⁶  :     211498.522987
 Mol. C8AA /au·bohr⁸  :    5776955.146080
 Mol. α(0) /au        :        721.421117


Wiberg/Mayer (AO) data.
largest (>0.10) Wiberg bond orders for each atom

 ---------------------------------------------------------------------------
     #   Z sym  total        # sym  WBO       # sym  WBO       # sym  WBO
 ---------------------------------------------------------------------------
     1   6 C    3.913 --     2 C    1.332     6 C    1.294    44 C    1.026
     2   6 C    3.934 --     1 C    1.332     3 C    1.274    22 O    1.097
     3   6 C    3.957 --     2 C    1.274     4 C    1.197     7 C    1.196
     4   6 C    3.971 --    10 N    1.361     5 C    1.224     3 C    1.197
     5   6 C    3.927 --     6 C    1.531     4 C    1.224   111 H    0.954
     6   6 C    3.937 --     5 C    1.531     1 C    1.294    23 S    0.885
     7   6 C    3.976 --     8 C    1.346     3 C    1.196    11 C    1.178
     8   6 C    3.974 --     7 C    1.346    14 C    1.177     9 C    1.175
     9   6 C    3.972 --    10 N    1.364    17 C    1.245     8 C    1.175
    10   7 N    2.993 --     9 C    1.364     4 C    1.361
    11   6 C    3.948 --    18 C    1.302     7 C    1.178    12 C    1.177
    12   6 C    3.969 --    13 N    1.396    21 C    1.197    11 C    1.177
    13   7 N    3.026 --    12 C    1.396    14 C    1.338
    14   6 C    3.970 --    13 N    1.338    15 C    1.268     8 C    1.177
    15   6 C    3.845 --    16 C    1.429    14 C    1.268   109 H    0.959
    16   6 C    3.944 --    17 C    1.451    15 C    1.429    25 S    0.862
    17   6 C    3.838 --    16 C    1.451     9 C    1.245   110 H    0.951
    18   6 C    3.937 --    11 C    1.302    19 C    1.275    70 N    1.114
    19   6 C    3.873 --    20 C    1.306    18 C    1.275    26 C    1.062
    20   6 C    3.936 --    21 C    1.535    19 C    1.306    24 S    0.873
    21   6 C    3.897 --    20 C    1.535    12 C    1.197   108 H    0.953
    22   8 O    2.143 --     2 C    1.097    51 B    0.804
    23  16 S    3.935 --    67 O    1.854    68 O    1.025     6 C    0.885
    24  16 S    3.949 --    57 O    1.875    55 O    1.062    20 C    0.873
    25  16 S    3.909 --    52 O    1.868    53 O    1.064    16 C    0.862
    26   6 C    3.908 --    27 C    1.310    31 C    1.282    19 C    1.062
    27   6 C    3.929 --    26 C    1.310    28 C    1.278    47 O    1.112
    28   6 C    3.956 --    27 C    1.278    29 C    1.198    32 C    1.193
    29   6 C    3.968 --    35 N    1.373    30 C    1.208    28 C    1.198
    30   6 C    3.921 --    31 C    1.544    29 C    1.208   107 H    0.956
    31   6 C    3.930 --    30 C    1.544    26 C    1.282    48 S    0.870
    32   6 C    3.974 --    33 C    1.345    28 C    1.193    36 C    1.180
    33   6 C    3.973 --    32 C    1.345    34 C    1.179    39 C    1.175
    34   6 C    3.971 --    35 N    1.353    42 C    1.253    33 C    1.179
    35   7 N    2.967 --    29 C    1.373    34 C    1.353
    36   6 C    3.944 --    43 C    1.295    32 C    1.180    37 C    1.172
    37   6 C    3.970 --    38 N    1.395    46 C    1.205    36 C    1.172
    38   7 N    3.032 --    37 C    1.395    39 C    1.340
    39   6 C    3.971 --    38 N    1.340    40 C    1.268    33 C    1.175
    40   6 C    3.840 --    41 C    1.430    39 C    1.268   104 H    0.959
    41   6 C    3.946 --    42 C    1.445    40 C    1.430    50 S    0.869
    42   6 C    3.835 --    41 C    1.445    34 C    1.253   105 H    0.951
    43   6 C    3.937 --    36 C    1.295    44 C    1.286    73 N    1.111
    44   6 C    3.875 --    45 C    1.304    43 C    1.286     1 C    1.026
    45   6 C    3.942 --    46 C    1.524    44 C    1.304    49 S    0.893
    46   6 C    3.904 --    45 C    1.524    37 C    1.205   106 H    0.949
    47   8 O    2.162 --    27 C    1.112    51 B    0.801
    48  16 S    3.960 --    58 O    1.826    59 O    1.091    31 C    0.870
    49  16 S    3.903 --    64 O    1.882    65 O    1.002    45 C    0.893
    50  16 S    3.914 --    61 O    1.865    62 O    1.065    41 C    0.869
    51   5 B    3.367 --    22 O    0.804    47 O    0.801    70 N    0.781
                            73 N    0.771
    52   8 O    2.054 --    25 S    1.868
    53   8 O    2.182 --    25 S    1.064    54 C    0.970
    54   6 C    3.924 --    83 H    0.977    82 H    0.972    53 O    0.970
                            84 H    0.969
    55   8 O    2.164 --    24 S    1.062    56 C    0.949
    56   6 C    3.910 --    79 H    0.978    80 H    0.977    81 H    0.974
                            55 O    0.949
    57   8 O    2.058 --    24 S    1.875
    58   8 O    2.006 --    48 S    1.826
    59   8 O    2.192 --    48 S    1.091    60 C    0.958
    60   6 C    3.913 --    77 H    0.975    76 H    0.973    78 H    0.968
                            59 O    0.958
    61   8 O    2.052 --    50 S    1.865
    62   8 O    2.181 --    50 S    1.065    63 C    0.970
    63   6 C    3.925 --   100 H    0.979    98 H    0.973    62 O    0.970
                            99 H    0.968
    64   8 O    2.062 --    49 S    1.882
    65   8 O    2.152 --    49 S    1.002    66 C    0.962
    66   6 C    3.920 --    95 H    0.980    96 H    0.973    97 H    0.973
                            65 O    0.962
    67   8 O    2.030 --    23 S    1.854
    68   8 O    2.153 --    23 S    1.025    69 C    0.969
    69   6 C    3.932 --   101 H    0.979   103 H    0.978   102 H    0.976
                            68 O    0.969
    70   7 N    3.161 --    18 C    1.114    72 C    0.991    51 B    0.781
    71   6 C    3.971 --    72 C    0.995    86 H    0.987    85 H    0.981
                            87 H    0.980
    72   6 C    3.960 --    71 C    0.995    70 N    0.991    89 H    0.964
                            88 H    0.955
    73   7 N    3.148 --    43 C    1.111    75 C    0.993    51 B    0.771
    74   6 C    3.966 --    75 C    0.989    91 H    0.987    90 H    0.981
                            92 H    0.980
    75   6 C    3.954 --    73 N    0.993    74 C    0.989    94 H    0.964
                            93 H    0.944
    76   1 H    0.993 --    60 C    0.973
    77   1 H    0.995 --    60 C    0.975
    78   1 H    0.994 --    60 C    0.968
    79   1 H    0.995 --    56 C    0.978
    80   1 H    0.995 --    56 C    0.977
    81   1 H    0.993 --    56 C    0.974
    82   1 H    0.994 --    54 C    0.972
    83   1 H    0.997 --    54 C    0.977
    84   1 H    0.995 --    54 C    0.969
    85   1 H    0.994 --    71 C    0.981
    86   1 H    0.998 --    71 C    0.987
    87   1 H    0.996 --    71 C    0.980
    88   1 H    0.988 --    72 C    0.955
    89   1 H    0.994 --    72 C    0.964
    90   1 H    0.994 --    74 C    0.981
    91   1 H    0.998 --    74 C    0.987
    92   1 H    0.996 --    74 C    0.980
    93   1 H    0.983 --    75 C    0.944
    94   1 H    0.994 --    75 C    0.964
    95   1 H    0.997 --    66 C    0.980
    96   1 H    0.994 --    66 C    0.973
    97   1 H    0.994 --    66 C    0.973
    98   1 H    0.994 --    63 C    0.973
    99   1 H    0.995 --    63 C    0.968
   100   1 H    0.998 --    63 C    0.979
   101   1 H    0.997 --    69 C    0.979
   102   1 H    0.995 --    69 C    0.976
   103   1 H    0.995 --    69 C    0.978
   104   1 H    0.990 --    40 C    0.959
   105   1 H    0.986 --    42 C    0.951
   106   1 H    0.985 --    46 C    0.949
   107   1 H    0.987 --    30 C    0.956
   108   1 H    0.985 --    21 C    0.953
   109   1 H    0.990 --    15 C    0.959
   110   1 H    0.986 --    17 C    0.951
   111   1 H    0.987 --     5 C    0.954
 ---------------------------------------------------------------------------

Topologies differ in total number of bonds
Writing corrected topology to xtbtopo.mol

molecular dipole:
                 x           y           z       tot (Debye)
 q only:       -1.237       1.571       0.898
   full:       -1.579       1.575       0.388       5.755
molecular quadrupole (traceless):
                xx          xy          yy          xz          yz          zz
 q only:       67.924     -22.756       1.457      32.668      37.674     -69.381
  q+dip:       54.991     -29.532       8.035      44.612      39.745     -63.027
   full:       46.809     -30.487       4.503      43.203      40.284     -51.311

           -------------------------------------------------
          |                Geometry Summary                 |
           -------------------------------------------------

      molecular mass/u    :     1124.0328308
   center of mass at/Å    :       -0.7468420       0.3567984       0.8010402
  moments of inertia/u·Å² :        0.1545923E+05   0.2581475E+05   0.3692629E+05
rotational constants/cm⁻¹ :        0.1090457E-02   0.6530233E-03   0.4565212E-03

 * 104 selected distances

     #   Z          #   Z                                           value/Å
     1   6 C        2   6 C                                       1.4013639
     2   6 C        3   6 C                                       1.3979441
     3   6 C        4   6 C                                       1.4249054
     4   6 C        5   6 C                                       1.4277011
     1   6 C        6   6 C                                       1.4084782
     5   6 C        6   6 C                                       1.3765751
     7   6 C        8   6 C                                       1.4041482
     8   6 C        9   6 C                                       1.4389355
     4   6 C       10   7 N                                       1.3300604
     9   6 C       10   7 N                                       1.3316449
    12   6 C       13   7 N                                       1.3235311
     8   6 C       14   6 C                                       1.4334260
    13   7 N       14   6 C                                       1.3339741
    14   6 C       15   6 C                                       1.4104452
    15   6 C       16   6 C                                       1.3811502
     9   6 C       17   6 C                                       1.4149248
    16   6 C       17   6 C                                       1.3770102
    11   6 C       18   6 C                                       1.4105776
    18   6 C       19   6 C                                       1.4248152
    19   6 C       20   6 C                                       1.4002803
    12   6 C       21   6 C                                       1.4311666
    20   6 C       21   6 C                                       1.3680147
     2   6 C       22   8 O                                       1.3138782
    26   6 C       27   6 C                                       1.4035541
    27   6 C       28   6 C                                       1.3958046
    28   6 C       29   6 C                                       1.4257925
    29   6 C       30   6 C                                       1.4325664
    26   6 C       31   6 C                                       1.4069493
    30   6 C       31   6 C                                       1.3722379
    32   6 C       33   6 C                                       1.4053223
    33   6 C       34   6 C                                       1.4388148
    29   6 C       35   7 N                                       1.3280931
    34   6 C       35   7 N                                       1.3339602
    37   6 C       38   7 N                                       1.3227300
    33   6 C       39   6 C                                       1.4333512
    38   7 N       39   6 C                                       1.3330603
    39   6 C       40   6 C                                       1.4102067
    40   6 C       41   6 C                                       1.3811069
    34   6 C       42   6 C                                       1.4133059
    41   6 C       42   6 C                                       1.3780715
    36   6 C       43   6 C                                       1.4170054
    43   6 C       44   6 C                                       1.4264876
    44   6 C       45   6 C                                       1.4031082
    37   6 C       46   6 C                                       1.4258959
    45   6 C       46   6 C                                       1.3703074
    27   6 C       47   8 O                                       1.3084612
    22   8 O       51   5 B                                       1.4364851
    47   8 O       51   5 B                                       1.4312997
    25  16 S       52   8 O                                       1.4415693
    53   8 O       54   6 C                                       1.4069659
    55   8 O       56   6 C                                       1.4188721
    24  16 S       57   8 O                                       1.4430737
    48  16 S       58   8 O                                       1.4438926
    59   8 O       60   6 C                                       1.4113226
    50  16 S       61   8 O                                       1.4423246
    62   8 O       63   6 C                                       1.4074073
    49  16 S       64   8 O                                       1.4409260
    65   8 O       66   6 C                                       1.4132430
    23  16 S       67   8 O                                       1.4454467
    68   8 O       69   6 C                                       1.4089455
    18   6 C       70   7 N                                       1.3736215
    51   5 B       70   7 N                                       1.5281197
    70   7 N       72   6 C                                       1.4509445
    71   6 C       72   6 C                                       1.5301543
    43   6 C       73   7 N                                       1.3735081
    51   5 B       73   7 N                                       1.5366713 (max)
    73   7 N       75   6 C                                       1.4480869
    74   6 C       75   6 C                                       1.5314552
    60   6 C       76   1 H                                       1.0896995
    60   6 C       77   1 H                                       1.0923176
    60   6 C       78   1 H                                       1.0936535
    56   6 C       79   1 H                                       1.0915397
    56   6 C       80   1 H                                       1.0921779
    56   6 C       81   1 H                                       1.0883899
    54   6 C       82   1 H                                       1.0885454
    54   6 C       83   1 H                                       1.0942333
    54   6 C       84   1 H                                       1.0945630
    71   6 C       85   1 H                                       1.0861442
    71   6 C       86   1 H                                       1.0875126
    71   6 C       87   1 H                                       1.0868489
    72   6 C       88   1 H                                       1.0962693
    72   6 C       89   1 H                                       1.0878129
    74   6 C       90   1 H                                       1.0860733
    74   6 C       91   1 H                                       1.0876442
    74   6 C       92   1 H                                       1.0872199
    75   6 C       93   1 H                                       1.0927908
Note: The following floating-point exceptions are signalling: IEEE_UNDERFLOW_FLAG
normal termination of xtb
    75   6 C       94   1 H                                       1.0879583
    66   6 C       95   1 H                                       1.0922962
    66   6 C       96   1 H                                       1.0929261
    66   6 C       97   1 H                                       1.0890020
    63   6 C       98   1 H                                       1.0886874
    63   6 C       99   1 H                                       1.0946055
    63   6 C      100   1 H                                       1.0937663
    69   6 C      101   1 H                                       1.0926192
    69   6 C      102   1 H                                       1.0897717
    69   6 C      103   1 H                                       1.0926938
    40   6 C      104   1 H                                       1.0785814
    42   6 C      105   1 H                                       1.0805638
    46   6 C      106   1 H                                       1.0808452
    30   6 C      107   1 H                                       1.0785993
    21   6 C      108   1 H                                       1.0786698
    15   6 C      109   1 H                                       1.0785221 (min)
    17   6 C      110   1 H                                       1.0805807
     5   6 C      111   1 H                                       1.0792533

 * 7 distinct bonds (by element types)

   Z      Z             #   av. dist./Å        max./Å        min./Å
   1 H    6 C          36     1.0881494     1.0962693     1.0785221
   6 C    6 C          38     1.4140358     1.5314552     1.3680147
   5 B    7 N           2     1.5323955     1.5366713     1.5281197
   6 C    7 N          12     1.3569346     1.4509445     1.3227300
   5 B    8 O           2     1.4338924     1.4364851     1.4312997
   6 C    8 O           8     1.3861370     1.4188721     1.3084612
   8 O   16 S           6     1.4428722     1.4454467     1.4409260


optimized geometry written to: xtbopt.mol


           -------------------------------------------------
          | TOTAL ENERGY             -215.977408535771 Eh   |
          | GRADIENT NORM               0.000720737956 Eh/α |
          | HOMO-LUMO GAP               0.121052446004 eV   |
           -------------------------------------------------
########################################################################
[WARNING] Runtime exception occurred
-1- restart_readRestart: Number of electron missmatch in restart file.
########################################################################

------------------------------------------------------------------------
 * finished run on 2024/11/01 at 12:27:32.160     
------------------------------------------------------------------------
 total:
 * wall-time:     0 d,  0 h,  2 min, 53.453 sec
 *  cpu-time:     0 d,  0 h,  9 min,  7.159 sec
 * ratio c/w:     3.154 speedup
 SCF:
 * wall-time:     0 d,  0 h,  0 min,  4.195 sec
 *  cpu-time:     0 d,  0 h,  0 min, 16.759 sec
 * ratio c/w:     3.995 speedup
 ANC optimizer:
 * wall-time:     0 d,  0 h,  2 min, 49.125 sec
 *  cpu-time:     0 d,  0 h,  8 min, 50.360 sec
 * ratio c/w:     3.136 speedup

