      -----------------------------------------------------------      
     |                   =====================                   |     
     |                           x T B                           |     
     |                   =====================                   |     
     |                         S. Grimme                         |     
     |          Mulliken Center for Theoretical Chemistry        |     
     |                    University of Bonn                     |     
      -----------------------------------------------------------      

   * xtb version 6.6.1 (8d0f1dd) compiled by 'runner@Mac-1690902418499.local' on 2023-08-01

   xtb is free software: you can redistribute it and/or modify it under
   the terms of the GNU Lesser General Public License as published by
   the Free Software Foundation, either version 3 of the License, or
   (at your option) any later version.
   
   xtb is distributed in the hope that it will be useful,
   but WITHOUT ANY WARRANTY; without even the implied warranty of
   MERCHANTABILITY or FITNESS FOR A PARTICULAR PURPOSE.  See the
   GNU Lesser General Public License for more details.
   
   Cite this work as:
   * C. Bannwarth, E. Caldeweyher, S. Ehlert, A. Hansen, P. Pracht,
     J. Seibert, S. Spicher, S. Grimme, WIREs Comput. Mol. Sci., 2020, 11,
     e01493. DOI: 10.1002/wcms.1493
   
   for GFN2-xTB:
   * C. Bannwarth, S. Ehlert and S. Grimme., J. Chem. Theory Comput., 2019,
     15, 1652-1671. DOI: 10.1021/acs.jctc.8b01176
   for GFN1-xTB:
   * S. Grimme, C. Bannwarth, P. Shushkov, J. Chem. Theory Comput., 2017,
     13, 1989-2009. DOI: 10.1021/acs.jctc.7b00118
   for GFN0-xTB:
   * P. Pracht, E. Caldeweyher, S. Ehlert, S. Grimme, ChemRxiv, 2019, preprint.
     DOI: 10.26434/chemrxiv.8326202.v1
   for GFN-FF:
   * S. Spicher and S. Grimme, Angew. Chem. Int. Ed., 2020, 59, 15665-15673.
     DOI: 10.1002/anie.202004239
   
   for ALPB and GBSA implicit solvation:
   * S. Ehlert, M. Stahn, S. Spicher, S. Grimme, J. Chem. Theory Comput.,
     2021, 17, 4250-4261. DOI: 10.1021/acs.jctc.1c00471
   
   for DFT-D4:
   * E. Caldeweyher, C. Bannwarth and S. Grimme, J. Chem. Phys., 2017,
     147, 034112. DOI: 10.1063/1.4993215
   * E. Caldeweyher, S. Ehlert, A. Hansen, H. Neugebauer, S. Spicher,
     C. Bannwarth and S. Grimme, J. Chem. Phys., 2019, 150, 154122.
     DOI: 10.1063/1.5090222
   * E. Caldeweyher, J.-M. Mewes, S. Ehlert and S. Grimme, Phys. Chem. Chem. Phys.
     2020, 22, 8499-8512. DOI: 10.1039/D0CP00502A
   
   for sTDA-xTB:
   * S. Grimme and C. Bannwarth, J. Chem. Phys., 2016, 145, 054103.
     DOI: 10.1063/1.4959605
   
   in the mass-spec context:
   * V. Asgeirsson, C. Bauer and S. Grimme, Chem. Sci., 2017, 8, 4879.
     DOI: 10.1039/c7sc00601b
   * J. Koopman and S. Grimme, ACS Omega 2019, 4, 12, 15120-15133.
     DOI: 10.1021/acsomega.9b02011
   
   for metadynamics refer to:
   * S. Grimme, J. Chem. Theory Comput., 2019, 155, 2847-2862
     DOI: 10.1021/acs.jctc.9b00143
   
   for SPH calculations refer to:
   * S. Spicher and S. Grimme, J. Chem. Theory Comput., 2021, 17, 1701-1714
     DOI: 10.1021/acs.jctc.0c01306
   
   with help from (in alphabetical order)
   P. Atkinson, C. Bannwarth, F. Bohle, G. Brandenburg, E. Caldeweyher
   M. Checinski, S. Dohm, S. Ehlert, S. Ehrlich, I. Gerasimov, C. Hölzer
   A. Katbashev, J. Koopman, C. Lavigne, S. Lehtola, F. März, M. Müller,
   F. Musil, H. Neugebauer, J. Pisarek, C. Plett, P. Pracht, F. Pultar,
   J. Seibert, P. Shushkov, S. Spicher, M. Stahn, M. Steiner, T. Strunk,
   J. Stückrath, T. Rose, and J. Unsleber
   
 * started run on 2024/11/07 at 16:17:39.070     

           -------------------------------------------------
          |                Calculation Setup                |
           -------------------------------------------------

          program call               : xtb opt_radical_Base2SO2Me.mol --gfn2 --sp --chrg 1 --uhf 0
          coordinate file            : opt_radical_Base2SO2Me.mol
          omp threads                :                     8

   ID    Z sym.   atoms
    1    6 C      1-9, 11, 12, 14-21, 26-34, 36, 37, 39-46, 54, 56, 60, 63,
                  66, 69, 71, 72, 74, 75
    2    7 N      10, 13, 35, 38, 70, 73
    3    8 O      22, 47, 52, 53, 55, 57-59, 61, 62, 64, 65, 67, 68
    4   16 S      23-25, 48-50
    5    5 B      51
    6    1 H      76-111

           -------------------------------------------------
          |                 G F N 2 - x T B                 |
           -------------------------------------------------

        Reference                      10.1021/acs.jctc.8b01176
      * Hamiltonian:
        H0-scaling (s, p, d)           1.850000    2.230000    2.230000
        zeta-weighting                 0.500000
      * Dispersion:
        s8                             2.700000
        a1                             0.520000
        a2                             5.000000
        s9                             5.000000
      * Repulsion:
        kExp                           1.500000    1.000000
        rExp                           1.000000
      * Coulomb:
        alpha                          2.000000
        third order                    shell-resolved
        anisotropic                    true
        a3                             3.000000
        a5                             4.000000
        cn-shift                       1.200000
        cn-exp                         4.000000
        max-rad                        5.000000

q/qsh data taken from xtbrestart
CAMM data taken from xtbrestart

          ...................................................
          :                      SETUP                      :
          :.................................................:
          :  # basis functions                 372          :
          :  # atomic orbitals                 366          :
          :  # shells                          192          :
          :  # electrons                       380          :
          :  max. iterations                   250          :
          :  Hamiltonian                  GFN2-xTB          :
          :  restarted?                       true          :
          :  GBSA solvation                  false          :
          :  PC potential                    false          :
          :  electronic temp.          300.0000000     K    :
          :  accuracy                    1.0000000          :
          :  -> integral cutoff          0.2500000E+02      :
          :  -> integral neglect         0.1000000E-07      :
          :  -> SCF convergence          0.1000000E-05 Eh   :
          :  -> wf. convergence          0.1000000E-03 e    :
          :  Broyden damping             0.4000000          :
          ...................................................

 iter      E             dE          RMSdq      gap      omega  full diag
   1   -218.4008527 -0.218401E+03  0.204E+00    0.14       0.0  T
   2   -218.0610407  0.339812E+00  0.142E+00    0.04       1.0  T
   3   -216.1600188  0.190102E+01  0.261E+00    0.08       1.0  T
   4   -218.1893023 -0.202928E+01  0.111E+00    0.16       1.0  T
   5   -218.1175277  0.717746E-01  0.113E+00    0.11       1.0  T
   6   -218.2938396 -0.176312E+00  0.716E-01    0.06       1.0  T
   7   -218.4114462 -0.117607E+00  0.446E-01    0.05       1.0  T
   8   -218.4267638 -0.153176E-01  0.389E-01    0.02       1.0  T
   9   -218.4435060 -0.167422E-01  0.279E-01    0.04       1.0  T
  10   -218.4497925 -0.628649E-02  0.211E-01    0.04       1.0  T
  11   -218.4485440  0.124844E-02  0.172E-01    0.05       1.0  T
  12   -218.4510569 -0.251294E-02  0.118E-01    0.03       1.0  T
  13   -218.4497005  0.135645E-02  0.142E-01    0.07       1.0  T
  14   -218.4520817 -0.238116E-02  0.750E-02    0.05       1.0  T
  15   -218.4530555 -0.973823E-03  0.569E-02    0.05       1.0  T
  16   -218.4531356 -0.800797E-04  0.450E-02    0.05       1.0  T
  17   -218.4533181 -0.182499E-03  0.206E-02    0.04       1.0  T
  18   -218.4534573 -0.139222E-03  0.501E-03    0.04       1.9  T
  19   -218.4534579 -0.591042E-06  0.441E-03    0.04       2.2  T
  20   -218.4534592 -0.136841E-05  0.300E-03    0.04       3.2  T
  21   -218.4534612 -0.193181E-05  0.128E-03    0.04       7.4  T
  22   -218.4534614 -0.182544E-06  0.662E-04    0.04      14.3  T
  23   -218.4534615 -0.951346E-07  0.300E-04    0.04      31.6  T

   *** convergence criteria satisfied after 23 iterations ***

         #    Occupation            Energy/Eh            Energy/eV
      -------------------------------------------------------------
         1        2.0000           -0.8763765             -23.8474
       ...           ...                  ...                  ...
       184        2.0000           -0.4884331             -13.2909
       185        2.0000           -0.4843510             -13.1799
       186        1.9993           -0.4811367             -13.0924
       187        1.9978           -0.4800681             -13.0633
       188        1.9964           -0.4795784             -13.0500
       189        1.9834           -0.4781259             -13.0105
       190        1.4093           -0.4744080             -12.9093 (HOMO)
       191        0.6137           -0.4728076             -12.8658 (LUMO)
       192        0.0001           -0.4638328             -12.6215
       193                         -0.4212142             -11.4618
       194                         -0.4090860             -11.1318
       195                         -0.3816865             -10.3862
       ...                                ...                  ...
       366                          0.9497816              25.8449
      -------------------------------------------------------------
                  HL-Gap            0.0016003 Eh            0.0435 eV
             Fermi-level           -0.4735818 Eh          -12.8868 eV

 SCC (total)                   0 d,  0 h,  0 min,  1.770 sec
 SCC setup                      ...        0 min,  0.000 sec (  0.019%)
 Dispersion                     ...        0 min,  0.001 sec (  0.068%)
 classical contributions        ...        0 min,  0.000 sec (  0.016%)
 integral evaluation            ...        0 min,  0.007 sec (  0.422%)
 iterations                     ...        0 min,  1.719 sec ( 97.148%)
 molecular gradient             ...        0 min,  0.040 sec (  2.252%)
 printout                       ...        0 min,  0.001 sec (  0.074%)

         :::::::::::::::::::::::::::::::::::::::::::::::::::::
         ::                     SUMMARY                     ::
         :::::::::::::::::::::::::::::::::::::::::::::::::::::
         :: total energy            -215.977308547115 Eh    ::
         :: gradient norm              0.037551636842 Eh/a0 ::
         :: HOMO-LUMO gap              0.043547377639 eV    ::
         ::.................................................::
         :: SCC energy              -218.453461450531 Eh    ::
         :: -> isotropic ES            0.453066062663 Eh    ::
         :: -> anisotropic ES         -0.017344417950 Eh    ::
         :: -> anisotropic XC          0.074317767876 Eh    ::
         :: -> dispersion             -0.205416901717 Eh    ::
         :: repulsion energy           2.470684106969 Eh    ::
         :: add. restraining           0.000000000000 Eh    ::
         :: total charge               1.000007212408 e     ::
         :::::::::::::::::::::::::::::::::::::::::::::::::::::

           -------------------------------------------------
          |                Property Printout                |
           -------------------------------------------------

    * Orbital Energies and Occupations

         #    Occupation            Energy/Eh            Energy/eV
      -------------------------------------------------------------
         1        2.0000           -0.8763765             -23.8474
       ...           ...                  ...                  ...
       178        2.0000           -0.5055224             -13.7560
       179        2.0000           -0.5030511             -13.6887
       180        2.0000           -0.4964375             -13.5088
       181        2.0000           -0.4949418             -13.4681
       182        2.0000           -0.4912991             -13.3689
       183        2.0000           -0.4891284             -13.3099
       184        2.0000           -0.4884331             -13.2909
       185        2.0000           -0.4843510             -13.1799
       186        1.9993           -0.4811367             -13.0924
       187        1.9978           -0.4800681             -13.0633
       188        1.9964           -0.4795784             -13.0500
       189        1.9834           -0.4781259             -13.0105
       190        1.4093           -0.4744080             -12.9093 (HOMO)
       191        0.6137           -0.4728076             -12.8658 (LUMO)
       192        0.0001           -0.4638328             -12.6215
       193                         -0.4212142             -11.4618
       194                         -0.4090860             -11.1318
       195                         -0.3816865             -10.3862
       196                         -0.3804063             -10.3514
       197                         -0.3680950             -10.0164
       198                         -0.3654155              -9.9435
       199                         -0.3568244              -9.7097
       200                         -0.3530501              -9.6070
       201                         -0.3466828              -9.4337
       ...                                ...                  ...
       366                          0.9497816              25.8449
      -------------------------------------------------------------
                  HL-Gap            0.0016003 Eh            0.0435 eV
             Fermi-level           -0.4735818 Eh          -12.8868 eV

     #   Z          covCN         q      C6AA      α(0)
     1   6 C        2.979    -0.014    28.352     8.734
     2   6 C        2.989     0.170    24.343     8.093
     3   6 C        2.986    -0.024    28.591     8.771
     4   6 C        2.964     0.104    25.707     8.316
     5   6 C        2.949    -0.036    28.895     8.817
     6   6 C        2.968    -0.064    29.592     8.923
     7   6 C        2.966     0.050    26.884     8.505
     8   6 C        2.997    -0.010    28.251     8.719
     9   6 C        2.958     0.100    25.776     8.327
    10   7 N        1.846    -0.189    25.911     7.544
    11   6 C        2.973    -0.003    28.106     8.696
    12   6 C        2.957     0.106    25.653     8.307
    13   7 N        1.850    -0.190    25.932     7.547
    14   6 C        2.951     0.101    25.771     8.326
    15   6 C        2.948    -0.026    28.651     8.779
    16   6 C        2.954    -0.049    29.223     8.867
    17   6 C        2.945    -0.016    28.411     8.742
    18   6 C        3.078     0.110    25.498     8.279
    19   6 C        2.997    -0.000    28.024     8.684
    20   6 C        2.953    -0.069    29.713     8.941
    21   6 C        2.940    -0.020    28.505     8.756
    22   8 O        1.652    -0.377    20.414     6.099
    23  16 S        3.096     0.701   115.696    18.103
    24  16 S        3.302     0.705   115.557    18.093
    25  16 S        2.852     0.731   114.749    18.029
    26   6 C        3.007    -0.024    28.597     8.772
    27   6 C        2.987     0.172    24.296     8.086
    28   6 C        2.986    -0.025    28.615     8.775
    29   6 C        2.965     0.102    25.746     8.323
    30   6 C        2.930    -0.034    28.846     8.808
    31   6 C        2.965    -0.080    29.986     8.982
    32   6 C        2.966     0.049    26.900     8.507
    33   6 C        2.997    -0.010    28.252     8.719
    34   6 C        2.959     0.100    25.780     8.328
    35   7 N        1.847    -0.195    26.047     7.564
    36   6 C        2.971    -0.003    28.091     8.694
    37   6 C        2.957     0.107    25.642     8.306
    38   7 N        1.851    -0.185    25.830     7.533
    39   6 C        2.951     0.101    25.763     8.325
    40   6 C        2.948    -0.025    28.629     8.776
    41   6 C        2.954    -0.049    29.227     8.867
    42   6 C        2.946    -0.016    28.413     8.742
    43   6 C        3.079     0.111    25.479     8.276
    44   6 C        2.992     0.014    27.686     8.631
    45   6 C        2.957    -0.047    29.163     8.858
    46   6 C        2.953    -0.017    28.424     8.745
    47   8 O        1.652    -0.374    20.353     6.090
    48  16 S        3.324     0.722   115.029    18.051
    49  16 S        3.098     0.670   116.669    18.179
    50  16 S        2.851     0.733   114.680    18.024
    51   5 B        3.748     0.533    15.050     6.263
    52   8 O        0.860    -0.488    23.513     6.501
    53   8 O        1.706    -0.369    20.233     6.073
    54   6 C        3.740     0.041    19.959     6.374
    55   8 O        1.716    -0.387    20.583     6.126
    56   6 C        3.725     0.031    20.150     6.410
    57   8 O        0.860    -0.466    23.042     6.436
    58   8 O        0.860    -0.483    23.411     6.487
    59   8 O        1.705    -0.374    20.337     6.089
    60   6 C        3.721     0.034    20.120     6.406
    61   8 O        0.860    -0.488    23.510     6.501
    62   8 O        1.705    -0.372    20.295     6.082
    63   6 C        3.740     0.041    19.954     6.374
    64   8 O        0.860    -0.467    23.072     6.440
    65   8 O        1.706    -0.391    20.654     6.136
    66   6 C        3.765     0.026    20.170     6.401
    67   8 O        0.860    -0.478    23.303     6.472
    68   8 O        1.705    -0.384    20.519     6.116
    69   6 C        3.764     0.035    20.032     6.380
    70   7 N        2.668    -0.249    26.492     7.644
    71   6 C        3.753    -0.111    22.689     6.792
    72   6 C        3.747     0.010    20.480     6.455
    73   7 N        2.668    -0.250    26.509     7.647
    74   6 C        3.753    -0.109    22.639     6.785
    75   6 C        3.747     0.006    20.539     6.464
    76   1 H        0.925     0.078     1.997     2.210
    77   1 H        0.924     0.045     2.388     2.417
    78   1 H        0.924     0.077     2.015     2.220
    79   1 H        0.925     0.078     2.001     2.212
    80   1 H        0.924     0.083     1.946     2.181
    81   1 H        0.924     0.057     2.231     2.336
    82   1 H        0.925     0.075     2.035     2.231
    83   1 H        0.924     0.034     2.532     2.489
    84   1 H        0.924     0.068     2.113     2.273
    85   1 H        0.925     0.065     2.146     2.291
    86   1 H        0.925     0.048     2.350     2.397
    87   1 H        0.925     0.053     2.287     2.365
    88   1 H        0.924     0.037     2.492     2.469
    89   1 H        0.925     0.058     2.228     2.334
    90   1 H        0.925     0.062     2.175     2.306
    91   1 H        0.925     0.046     2.371     2.408
    92   1 H        0.925     0.049     2.338     2.391
    93   1 H        0.924     0.051     2.311     2.377
    94   1 H        0.925     0.056     2.249     2.345
    95   1 H        0.924     0.045     2.388     2.416
    96   1 H        0.924     0.070     2.080     2.256
    97   1 H        0.925     0.081     1.971     2.195
    98   1 H        0.925     0.073     2.054     2.241
    99   1 H        0.924     0.068     2.108     2.270
   100   1 H        0.924     0.032     2.559     2.502
   101   1 H        0.924     0.054     2.275     2.359
   102   1 H        0.925     0.070     2.089     2.260
   103   1 H        0.924     0.061     2.183     2.311
   104   1 H        0.926     0.093     1.853     2.129
   105   1 H        0.926     0.112     1.680     2.027
   106   1 H        0.926     0.114     1.659     2.014
   107   1 H        0.926     0.106     1.727     2.055
   108   1 H        0.926     0.107     1.725     2.054
   109   1 H        0.926     0.092     1.859     2.132
   110   1 H        0.926     0.113     1.672     2.022
   111   1 H        0.926     0.116     1.649     2.008

 Mol. C6AA /au·bohr⁶  :     211428.459003
 Mol. C8AA /au·bohr⁸  :    5777827.824666
 Mol. α(0) /au        :        721.315988


Wiberg/Mayer (AO) data.
largest (>0.10) Wiberg bond orders for each atom

 ---------------------------------------------------------------------------
     #   Z sym  total        # sym  WBO       # sym  WBO       # sym  WBO
 ---------------------------------------------------------------------------
     1   6 C    3.898 --     2 C    1.276     6 C    1.262    44 C    1.114
     2   6 C    3.914 --     3 C    1.309     1 C    1.276    22 O    1.099
     3   6 C    3.936 --     2 C    1.309     4 C    1.188     7 C    1.181
     4   6 C    3.966 --    10 N    1.395     5 C    1.197     3 C    1.188
     5   6 C    3.903 --     6 C    1.561     4 C    1.197   111 H    0.949
     6   6 C    3.943 --     5 C    1.561     1 C    1.262    23 S    0.897
     7   6 C    3.968 --     8 C    1.338    11 C    1.200     3 C    1.181
     8   6 C    3.955 --     7 C    1.338    14 C    1.182     9 C    1.179
     9   6 C    3.965 --    10 N    1.332    17 C    1.269     8 C    1.179
    10   7 N    2.946 --     4 C    1.395     9 C    1.332
    11   6 C    3.907 --    18 C    1.279     7 C    1.200    12 C    1.174
    12   6 C    3.957 --    13 N    1.402    21 C    1.189    11 C    1.174
    13   7 N    2.975 --    12 C    1.402    14 C    1.323
    14   6 C    3.961 --    13 N    1.323    15 C    1.275     8 C    1.182
    15   6 C    3.825 --    16 C    1.430    14 C    1.275   109 H    0.959
    16   6 C    3.946 --    17 C    1.434    15 C    1.430    25 S    0.883
    17   6 C    3.820 --    16 C    1.434     9 C    1.269   110 H    0.951
    18   6 C    3.918 --    11 C    1.279    19 C    1.239    70 N    1.140
    19   6 C    3.860 --    20 C    1.287    18 C    1.239    26 C    1.119
    20   6 C    3.939 --    21 C    1.544    19 C    1.287    24 S    0.881
    21   6 C    3.862 --    20 C    1.544    12 C    1.189   108 H    0.952
    22   8 O    2.171 --     2 C    1.099    51 B    0.831
    23  16 S    3.947 --    67 O    1.876    68 O    1.045     6 C    0.897
    24  16 S    3.956 --    57 O    1.861    55 O    1.052    20 C    0.881
    25  16 S    3.908 --    52 O    1.863    53 O    1.054    16 C    0.883
    26   6 C    3.893 --    27 C    1.269    31 C    1.263    19 C    1.119
    27   6 C    3.913 --    28 C    1.311    26 C    1.269    47 O    1.103
    28   6 C    3.934 --    27 C    1.311    29 C    1.189    32 C    1.179
    29   6 C    3.965 --    35 N    1.398    30 C    1.194    28 C    1.189
    30   6 C    3.901 --    31 C    1.556    29 C    1.194   107 H    0.952
    31   6 C    3.926 --    30 C    1.556    26 C    1.263    48 S    0.872
    32   6 C    3.968 --    33 C    1.338    36 C    1.203    28 C    1.179
    33   6 C    3.956 --    32 C    1.338    39 C    1.181    34 C    1.180
    34   6 C    3.966 --    35 N    1.327    42 C    1.273    33 C    1.180
    35   7 N    2.934 --    29 C    1.398    34 C    1.327
    36   6 C    3.902 --    43 C    1.275    32 C    1.203    37 C    1.172
    37   6 C    3.957 --    38 N    1.400    46 C    1.194    36 C    1.172
    38   7 N    2.977 --    37 C    1.400    39 C    1.328
    39   6 C    3.961 --    38 N    1.328    40 C    1.271    33 C    1.181
    40   6 C    3.821 --    41 C    1.432    39 C    1.271   104 H    0.959
    41   6 C    3.948 --    40 C    1.432    42 C    1.429    50 S    0.886
    42   6 C    3.817 --    41 C    1.429    34 C    1.273   105 H    0.952
    43   6 C    3.918 --    36 C    1.275    44 C    1.239    73 N    1.143
    44   6 C    3.864 --    45 C    1.294    43 C    1.239     1 C    1.114
    45   6 C    3.955 --    46 C    1.537    44 C    1.294    49 S    0.907
    46   6 C    3.859 --    45 C    1.537    37 C    1.194   106 H    0.950
    47   8 O    2.174 --    27 C    1.103    51 B    0.830
    48  16 S    3.964 --    58 O    1.856    59 O    1.050    31 C    0.872
    49  16 S    3.939 --    64 O    1.892    65 O    1.030    45 C    0.907
    50  16 S    3.905 --    61 O    1.863    62 O    1.049    41 C    0.886
    51   5 B    3.329 --    22 O    0.831    47 O    0.830    70 N    0.716
                            73 N    0.712
    52   8 O    2.045 --    25 S    1.863
    53   8 O    2.176 --    25 S    1.054    54 C    0.974
    54   6 C    3.927 --    83 H    0.978    53 O    0.974    82 H    0.972
                            84 H    0.970
    55   8 O    2.172 --    24 S    1.052    56 C    0.959
    56   6 C    3.907 --    81 H    0.976    79 H    0.972    80 H    0.960
                            55 O    0.959
    57   8 O    2.055 --    24 S    1.861
    58   8 O    2.034 --    48 S    1.856
    59   8 O    2.174 --    48 S    1.050    60 C    0.967
    60   6 C    3.917 --    77 H    0.975    76 H    0.971    78 H    0.968
                            59 O    0.967
    61   8 O    2.045 --    50 S    1.863
    62   8 O    2.172 --    50 S    1.049    63 C    0.975
    63   6 C    3.929 --   100 H    0.979    62 O    0.975    98 H    0.972
                            99 H    0.969
    64   8 O    2.072 --    49 S    1.892
    65   8 O    2.148 --    49 S    1.030    66 C    0.965
    66   6 C    3.923 --    95 H    0.979    96 H    0.976    97 H    0.972
                            65 O    0.965
    67   8 O    2.053 --    23 S    1.876
    68   8 O    2.156 --    23 S    1.045    69 C    0.964
    69   6 C    3.925 --   103 H    0.978   101 H    0.978   102 H    0.974
                            68 O    0.964
    70   7 N    3.103 --    18 C    1.140    72 C    0.988    51 B    0.716
    71   6 C    3.975 --    72 C    0.996    86 H    0.986    87 H    0.980
                            85 H    0.980
    72   6 C    3.959 --    71 C    0.996    70 N    0.988    88 H    0.959
                            89 H    0.958
    73   7 N    3.096 --    43 C    1.143    75 C    0.986    51 B    0.712
    74   6 C    3.976 --    75 C    0.995    91 H    0.987    92 H    0.980
                            90 H    0.980
    75   6 C    3.957 --    74 C    0.995    73 N    0.986    94 H    0.958
                            93 H    0.956
    76   1 H    0.992 --    60 C    0.971
    77   1 H    0.997 --    60 C    0.975
    78   1 H    0.993 --    60 C    0.968
    79   1 H    0.992 --    56 C    0.972
    80   1 H    0.993 --    56 C    0.960
    81   1 H    0.995 --    56 C    0.976
    82   1 H    0.994 --    54 C    0.972
    83   1 H    0.998 --    54 C    0.978
    84   1 H    0.995 --    54 C    0.970
    85   1 H    0.994 --    71 C    0.980
    86   1 H    0.998 --    71 C    0.986
    87   1 H    0.997 --    71 C    0.980
    88   1 H    0.995 --    72 C    0.959
    89   1 H    0.991 --    72 C    0.958
    90   1 H    0.994 --    74 C    0.980
    91   1 H    0.998 --    74 C    0.987
    92   1 H    0.997 --    74 C    0.980
    93   1 H    0.995 --    75 C    0.956
    94   1 H    0.990 --    75 C    0.958
    95   1 H    0.998 --    66 C    0.979
    96   1 H    0.995 --    66 C    0.976
    97   1 H    0.993 --    66 C    0.972
    98   1 H    0.994 --    63 C    0.972
    99   1 H    0.995 --    63 C    0.969
   100   1 H    0.998 --    63 C    0.979
   101   1 H    0.997 --    69 C    0.978
   102   1 H    0.994 --    69 C    0.974
   103   1 H    0.996 --    69 C    0.978
   104   1 H    0.989 --    40 C    0.959
   105   1 H    0.987 --    42 C    0.952
   106   1 H    0.983 --    46 C    0.950
   107   1 H    0.984 --    30 C    0.952
   108   1 H    0.984 --    21 C    0.952
   109   1 H    0.990 --    15 C    0.959
   110   1 H    0.986 --    17 C    0.951
   111   1 H    0.983 --     5 C    0.949
 ---------------------------------------------------------------------------

Topologies differ in total number of bonds
Writing corrected topology to xtbtopo.mol

molecular dipole:
                 x           y           z       tot (Debye)
 q only:       -1.228       1.161       0.032
   full:       -1.483       1.220      -0.451       5.015
molecular quadrupole (traceless):
                xx          xy          yy          xz          yz          zz
 q only:       70.067     -45.049     -15.301      30.202      15.952     -54.765
  q+dip:       55.202     -50.817      -8.645      39.600      16.478     -46.556
   full:       46.688     -53.041     -14.346      39.312      16.571     -32.343


           -------------------------------------------------
          | TOTAL ENERGY             -215.977308547115 Eh   |
          | GRADIENT NORM               0.037551636842 Eh/α |
Note: The following floating-point exceptions are signalling: IEEE_UNDERFLOW_FLAG
normal termination of xtb
          | HOMO-LUMO GAP               0.043547377639 eV   |
           -------------------------------------------------
########################################################################
[WARNING] Runtime exception occurred
-2- restart_readRestart: Multiplicity missmatch in restart file.
-1- restart_readRestart: Number of electron missmatch in restart file.
########################################################################

------------------------------------------------------------------------
 * finished run on 2024/11/07 at 16:17:40.857     
------------------------------------------------------------------------
 total:
 * wall-time:     0 d,  0 h,  0 min,  1.786 sec
 *  cpu-time:     0 d,  0 h,  0 min,  6.171 sec
 * ratio c/w:     3.456 speedup
 SCF:
 * wall-time:     0 d,  0 h,  0 min,  1.770 sec
 *  cpu-time:     0 d,  0 h,  0 min,  6.133 sec
 * ratio c/w:     3.465 speedup

