      -----------------------------------------------------------      
     |                   =====================                   |     
     |                           x T B                           |     
     |                   =====================                   |     
     |                         S. Grimme                         |     
     |          Mulliken Center for Theoretical Chemistry        |     
     |                    University of Bonn                     |     
      -----------------------------------------------------------      

   * xtb version 6.6.1 (8d0f1dd) compiled by 'runner@Mac-1690902418499.local' on 2023-08-01

   xtb is free software: you can redistribute it and/or modify it under
   the terms of the GNU Lesser General Public License as published by
   the Free Software Foundation, either version 3 of the License, or
   (at your option) any later version.
   
   xtb is distributed in the hope that it will be useful,
   but WITHOUT ANY WARRANTY; without even the implied warranty of
   MERCHANTABILITY or FITNESS FOR A PARTICULAR PURPOSE.  See the
   GNU Lesser General Public License for more details.
   
   Cite this work as:
   * C. Bannwarth, E. Caldeweyher, S. Ehlert, A. Hansen, P. Pracht,
     J. Seibert, S. Spicher, S. Grimme, WIREs Comput. Mol. Sci., 2020, 11,
     e01493. DOI: 10.1002/wcms.1493
   
   for GFN2-xTB:
   * C. Bannwarth, S. Ehlert and S. Grimme., J. Chem. Theory Comput., 2019,
     15, 1652-1671. DOI: 10.1021/acs.jctc.8b01176
   for GFN1-xTB:
   * S. Grimme, C. Bannwarth, P. Shushkov, J. Chem. Theory Comput., 2017,
     13, 1989-2009. DOI: 10.1021/acs.jctc.7b00118
   for GFN0-xTB:
   * P. Pracht, E. Caldeweyher, S. Ehlert, S. Grimme, ChemRxiv, 2019, preprint.
     DOI: 10.26434/chemrxiv.8326202.v1
   for GFN-FF:
   * S. Spicher and S. Grimme, Angew. Chem. Int. Ed., 2020, 59, 15665-15673.
     DOI: 10.1002/anie.202004239
   
   for ALPB and GBSA implicit solvation:
   * S. Ehlert, M. Stahn, S. Spicher, S. Grimme, J. Chem. Theory Comput.,
     2021, 17, 4250-4261. DOI: 10.1021/acs.jctc.1c00471
   
   for DFT-D4:
   * E. Caldeweyher, C. Bannwarth and S. Grimme, J. Chem. Phys., 2017,
     147, 034112. DOI: 10.1063/1.4993215
   * E. Caldeweyher, S. Ehlert, A. Hansen, H. Neugebauer, S. Spicher,
     C. Bannwarth and S. Grimme, J. Chem. Phys., 2019, 150, 154122.
     DOI: 10.1063/1.5090222
   * E. Caldeweyher, J.-M. Mewes, S. Ehlert and S. Grimme, Phys. Chem. Chem. Phys.
     2020, 22, 8499-8512. DOI: 10.1039/D0CP00502A
   
   for sTDA-xTB:
   * S. Grimme and C. Bannwarth, J. Chem. Phys., 2016, 145, 054103.
     DOI: 10.1063/1.4959605
   
   in the mass-spec context:
   * V. Asgeirsson, C. Bauer and S. Grimme, Chem. Sci., 2017, 8, 4879.
     DOI: 10.1039/c7sc00601b
   * J. Koopman and S. Grimme, ACS Omega 2019, 4, 12, 15120-15133.
     DOI: 10.1021/acsomega.9b02011
   
   for metadynamics refer to:
   * S. Grimme, J. Chem. Theory Comput., 2019, 155, 2847-2862
     DOI: 10.1021/acs.jctc.9b00143
   
   for SPH calculations refer to:
   * S. Spicher and S. Grimme, J. Chem. Theory Comput., 2021, 17, 1701-1714
     DOI: 10.1021/acs.jctc.0c01306
   
   with help from (in alphabetical order)
   P. Atkinson, C. Bannwarth, F. Bohle, G. Brandenburg, E. Caldeweyher
   M. Checinski, S. Dohm, S. Ehlert, S. Ehrlich, I. Gerasimov, C. Hölzer
   A. Katbashev, J. Koopman, C. Lavigne, S. Lehtola, F. März, M. Müller,
   F. Musil, H. Neugebauer, J. Pisarek, C. Plett, P. Pracht, F. Pultar,
   J. Seibert, P. Shushkov, S. Spicher, M. Stahn, M. Steiner, T. Strunk,
   J. Stückrath, T. Rose, and J. Unsleber
   
 * started run on 2024/11/07 at 16:17:37.819     

           -------------------------------------------------
          |                Calculation Setup                |
           -------------------------------------------------

          program call               : xtb opt_cation_Base2SO2Me.mol --gfn2 --sp --chrg 0 --uhf 1
          coordinate file            : opt_cation_Base2SO2Me.mol
          omp threads                :                     8

   ID    Z sym.   atoms
    1    6 C      1-9, 11, 12, 14-21, 26-34, 36, 37, 39-46, 54, 56, 60, 63,
                  66, 69, 71, 72, 74, 75
    2    7 N      10, 13, 35, 38, 70, 73
    3    8 O      22, 47, 52, 53, 55, 57-59, 61, 62, 64, 65, 67, 68
    4   16 S      23-25, 48-50
    5    5 B      51
    6    1 H      76-111
########################################################################
[WARNING] Please study the warnings concerning your input carefully
-1- prog_main: Charge in sdf/mol input was overwritten
########################################################################

           -------------------------------------------------
          |                 G F N 2 - x T B                 |
           -------------------------------------------------

        Reference                      10.1021/acs.jctc.8b01176
      * Hamiltonian:
        H0-scaling (s, p, d)           1.850000    2.230000    2.230000
        zeta-weighting                 0.500000
      * Dispersion:
        s8                             2.700000
        a1                             0.520000
        a2                             5.000000
        s9                             5.000000
      * Repulsion:
        kExp                           1.500000    1.000000
        rExp                           1.000000
      * Coulomb:
        alpha                          2.000000
        third order                    shell-resolved
        anisotropic                    true
        a3                             3.000000
        a5                             4.000000
        cn-shift                       1.200000
        cn-exp                         4.000000
        max-rad                        5.000000

q/qsh data taken from xtbrestart
CAMM data taken from xtbrestart

          ...................................................
          :                      SETUP                      :
          :.................................................:
          :  # basis functions                 372          :
          :  # atomic orbitals                 366          :
          :  # shells                          192          :
          :  # electrons                       381          :
          :  max. iterations                   250          :
          :  Hamiltonian                  GFN2-xTB          :
          :  restarted?                       true          :
          :  GBSA solvation                  false          :
          :  PC potential                    false          :
          :  electronic temp.          300.0000000     K    :
          :  accuracy                    1.0000000          :
          :  -> integral cutoff          0.2500000E+02      :
          :  -> integral neglect         0.1000000E-07      :
          :  -> SCF convergence          0.1000000E-05 Eh   :
          :  -> wf. convergence          0.1000000E-03 e    :
          :  Broyden damping             0.4000000          :
          ...................................................

 iter      E             dE          RMSdq      gap      omega  full diag
   1   -218.8621348 -0.218862E+03  0.240E-01    0.14       0.0  T
   2   -218.6849335  0.177201E+00  0.946E-01    0.08       1.0  T
   3   -218.8596835 -0.174750E+00  0.347E-01    0.12       1.0  T
   4   -218.8369386  0.227449E-01  0.463E-01    0.10       1.0  T
   5   -218.8350409  0.189767E-02  0.453E-01    0.11       1.0  T
   6   -218.8259106  0.913032E-02  0.441E-01    0.14       1.0  T
   7   -218.8326711 -0.676048E-02  0.436E-01    0.14       1.0  T
   8   -218.8654898 -0.328187E-01  0.208E-01    0.13       1.0  T
   9   -218.8732495 -0.775971E-02  0.742E-02    0.15       1.0  T
  10   -218.8734934 -0.243843E-03  0.520E-02    0.15       1.0  T
  11   -218.8738397 -0.346365E-03  0.312E-02    0.15       1.0  T
  12   -218.8740548 -0.215084E-03  0.102E-02    0.15       1.0  T
  13   -218.8740645 -0.966389E-05  0.681E-03    0.15       1.4  T
  14   -218.8740714 -0.691478E-05  0.233E-03    0.15       4.1  T
  15   -218.8740720 -0.646053E-06  0.884E-04    0.15      10.7  T
  16   -218.8740721 -0.426949E-07  0.620E-04    0.15      15.3  T

   *** convergence criteria satisfied after 16 iterations ***

         #    Occupation            Energy/Eh            Energy/eV
      -------------------------------------------------------------
         1        2.0000           -0.7919053             -21.5488
       ...           ...                  ...                  ...
       185        2.0000           -0.3899319             -10.6106
       186        2.0000           -0.3864796             -10.5166
       187        2.0000           -0.3818393             -10.3904
       188        1.9983           -0.3768104             -10.2535
       189        1.9671           -0.3739430             -10.1755
       190        1.9022           -0.3728446             -10.1456
       191        1.0817           -0.3689254             -10.0390 (HOMO)
       192        0.0507           -0.3633193              -9.8864 (LUMO)
       193                         -0.3162279              -8.6050
       194                         -0.3066597              -8.3446
       195                         -0.2782324              -7.5711
       196                         -0.2767696              -7.5313
       ...                                ...                  ...
       366                          1.0520740              28.6284
      -------------------------------------------------------------
                  HL-Gap            0.0056061 Eh            0.1525 eV
             Fermi-level           -0.3684177 Eh          -10.0252 eV

 SCC (total)                   0 d,  0 h,  0 min,  1.201 sec
 SCC setup                      ...        0 min,  0.000 sec (  0.033%)
 Dispersion                     ...        0 min,  0.001 sec (  0.105%)
 classical contributions        ...        0 min,  0.000 sec (  0.027%)
 integral evaluation            ...        0 min,  0.008 sec (  0.686%)
 iterations                     ...        0 min,  1.141 sec ( 94.998%)
 molecular gradient             ...        0 min,  0.045 sec (  3.726%)
 printout                       ...        0 min,  0.005 sec (  0.424%)

         :::::::::::::::::::::::::::::::::::::::::::::::::::::
         ::                     SUMMARY                     ::
         :::::::::::::::::::::::::::::::::::::::::::::::::::::
         :: total energy            -216.393834648198 Eh    ::
         :: gradient norm              0.037992797175 Eh/a0 ::
         :: HOMO-LUMO gap              0.152549689731 eV    ::
         ::.................................................::
         :: SCC energy              -218.874072068694 Eh    ::
         :: -> isotropic ES            0.424319998603 Eh    ::
         :: -> anisotropic ES         -0.011449855909 Eh    ::
         :: -> anisotropic XC          0.071974282112 Eh    ::
         :: -> dispersion             -0.207883436777 Eh    ::
         :: repulsion energy           2.474393130602 Eh    ::
         :: add. restraining           0.000000000000 Eh    ::
         :: total charge              -0.000036823599 e     ::
         :::::::::::::::::::::::::::::::::::::::::::::::::::::

           -------------------------------------------------
          |                Property Printout                |
           -------------------------------------------------

    * Orbital Energies and Occupations

         #    Occupation            Energy/Eh            Energy/eV
      -------------------------------------------------------------
         1        2.0000           -0.7919053             -21.5488
       ...           ...                  ...                  ...
       179        2.0000           -0.4053748             -11.0308
       180        2.0000           -0.4035428             -10.9810
       181        2.0000           -0.3996325             -10.8746
       182        2.0000           -0.3958649             -10.7720
       183        2.0000           -0.3950482             -10.7498
       184        2.0000           -0.3936207             -10.7110
       185        2.0000           -0.3899319             -10.6106
       186        2.0000           -0.3864796             -10.5166
       187        2.0000           -0.3818393             -10.3904
       188        1.9983           -0.3768104             -10.2535
       189        1.9671           -0.3739430             -10.1755
       190        1.9022           -0.3728446             -10.1456
       191        1.0817           -0.3689254             -10.0390 (HOMO)
       192        0.0507           -0.3633193              -9.8864 (LUMO)
       193                         -0.3162279              -8.6050
       194                         -0.3066597              -8.3446
       195                         -0.2782324              -7.5711
       196                         -0.2767696              -7.5313
       197                         -0.2683062              -7.3010
       198                         -0.2659687              -7.2374
       199                         -0.2538383              -6.9073
       200                         -0.2531162              -6.8876
       201                         -0.2475047              -6.7349
       202                         -0.2326174              -6.3298
       ...                                ...                  ...
       366                          1.0520740              28.6284
      -------------------------------------------------------------
                  HL-Gap            0.0056061 Eh            0.1525 eV
             Fermi-level           -0.3684177 Eh          -10.0252 eV

     #   Z          covCN         q      C6AA      α(0)
     1   6 C        2.970    -0.020    28.503     8.757
     2   6 C        2.981     0.158    24.575     8.132
     3   6 C        2.989    -0.029    28.706     8.789
     4   6 C        2.963     0.096    25.863     8.342
     5   6 C        2.953    -0.052    29.295     8.877
     6   6 C        2.965    -0.057    29.402     8.894
     7   6 C        2.968     0.045    26.986     8.521
     8   6 C        3.001    -0.020    28.504     8.758
     9   6 C        2.957     0.096    25.868     8.342
    10   7 N        1.845    -0.227    26.813     7.674
    11   6 C        2.974    -0.011    28.285     8.724
    12   6 C        2.957     0.102    25.751     8.323
    13   7 N        1.850    -0.219    26.617     7.646
    14   6 C        2.951     0.095    25.883     8.344
    15   6 C        2.940    -0.036    28.902     8.817
    16   6 C        2.948    -0.056    29.384     8.891
    17   6 C        2.942    -0.027    28.666     8.781
    18   6 C        3.046     0.100    25.737     8.321
    19   6 C        2.999    -0.008    28.208     8.712
    20   6 C        2.955    -0.066    29.636     8.929
    21   6 C        2.937    -0.025    28.618     8.774
    22   8 O        1.651    -0.395    20.763     6.151
    23  16 S        2.935     0.711   115.382    18.079
    24  16 S        3.309     0.690   116.051    18.131
    25  16 S        2.831     0.691   115.997    18.127
    26   6 C        3.008    -0.039    28.954     8.827
    27   6 C        2.971     0.167    24.394     8.101
    28   6 C        2.989    -0.031    28.754     8.796
    29   6 C        2.965     0.095    25.879     8.344
    30   6 C        2.924    -0.043    29.077     8.843
    31   6 C        2.964    -0.083    30.077     8.996
    32   6 C        2.968     0.044    27.008     8.524
    33   6 C        3.000    -0.021    28.508     8.758
    34   6 C        2.959     0.096    25.868     8.342
    35   7 N        1.846    -0.229    26.855     7.680
    36   6 C        2.973    -0.011    28.286     8.724
    37   6 C        2.958     0.100    25.793     8.330
    38   7 N        1.850    -0.222    26.699     7.658
    39   6 C        2.952     0.095    25.892     8.346
    40   6 C        2.939    -0.036    28.893     8.816
    41   6 C        2.948    -0.057    29.405     8.894
    42   6 C        2.942    -0.028    28.697     8.786
    43   6 C        3.042     0.098    25.794     8.330
    44   6 C        2.984     0.024    27.467     8.597
    45   6 C        2.956    -0.055    29.362     8.888
    46   6 C        2.955    -0.037    28.924     8.821
    47   8 O        1.652    -0.387    20.609     6.128
    48  16 S        3.265     0.690   116.039    18.130
    49  16 S        2.855     0.700   115.729    18.106
    50  16 S        2.827     0.690   116.052    18.131
    51   5 B        3.661     0.521    14.998     6.292
    52   8 O        0.860    -0.494    23.656     6.521
    53   8 O        1.706    -0.373    20.312     6.085
    54   6 C        3.733     0.045    19.899     6.367
    55   8 O        1.710    -0.386    20.553     6.121
    56   6 C        3.779     0.029    20.111     6.389
    57   8 O        0.860    -0.481    23.378     6.483
    58   8 O        0.860    -0.523    24.309     6.610
    59   8 O        1.706    -0.368    20.231     6.073
    60   6 C        3.720     0.038    20.053     6.396
    61   8 O        0.860    -0.495    23.671     6.523
    62   8 O        1.706    -0.374    20.325     6.087
    63   6 C        3.731     0.045    19.906     6.369
    64   8 O        0.860    -0.489    23.547     6.506
    65   8 O        1.777    -0.395    20.712     6.145
    66   6 C        3.744     0.027    20.191     6.410
    67   8 O        0.860    -0.510    24.002     6.569
    68   8 O        1.705    -0.382    20.479     6.110
    69   6 C        3.752     0.044    19.898     6.361
    70   7 N        2.671    -0.258    26.684     7.672
    71   6 C        3.753    -0.108    22.621     6.782
    72   6 C        3.749     0.016    20.372     6.437
    73   7 N        2.671    -0.249    26.484     7.643
    74   6 C        3.753    -0.103    22.534     6.769
    75   6 C        3.749     0.012    20.431     6.447
    76   1 H        0.925     0.063     2.169     2.303
    77   1 H        0.924     0.052     2.298     2.371
    78   1 H        0.924     0.071     2.077     2.254
    79   1 H        0.924     0.060     2.194     2.316
    80   1 H        0.924     0.064     2.158     2.298
    81   1 H        0.925     0.071     2.071     2.250
    82   1 H        0.925     0.061     2.186     2.312
    83   1 H        0.924     0.039     2.463     2.454
    84   1 H        0.924     0.065     2.142     2.289
    85   1 H        0.925     0.050     2.322     2.383
    86   1 H        0.925     0.042     2.421     2.433
    87   1 H        0.925     0.047     2.356     2.400
    88   1 H        0.924     0.027     2.634     2.538
    89   1 H        0.925     0.048     2.343     2.394
    90   1 H        0.925     0.052     2.301     2.372
    91   1 H        0.925     0.040     2.447     2.446
    92   1 H        0.925     0.040     2.444     2.445
    93   1 H        0.924     0.054     2.274     2.358
    94   1 H        0.925     0.046     2.375     2.410
    95   1 H        0.924     0.047     2.360     2.402
    96   1 H        0.924     0.071     2.077     2.254
    97   1 H        0.925     0.064     2.150     2.293
    98   1 H        0.925     0.060     2.204     2.322
    99   1 H        0.924     0.065     2.136     2.285
   100   1 H        0.924     0.038     2.471     2.458
   101   1 H        0.924     0.043     2.410     2.428
   102   1 H        0.925     0.060     2.199     2.319
   103   1 H        0.924     0.047     2.362     2.403
   104   1 H        0.926     0.071     2.078     2.254
   105   1 H        0.926     0.091     1.867     2.136
   106   1 H        0.926     0.094     1.840     2.121
   107   1 H        0.926     0.078     1.999     2.211
   108   1 H        0.926     0.092     1.861     2.133
   109   1 H        0.926     0.071     2.071     2.251
   110   1 H        0.926     0.091     1.871     2.139
   111   1 H        0.926     0.081     1.969     2.195

 Mol. C6AA /au·bohr⁶  :     213900.549292
 Mol. C8AA /au·bohr⁸  :    5833308.968131
 Mol. α(0) /au        :        725.533163


Wiberg/Mayer (AO) data.
largest (>0.10) Wiberg bond orders for each atom

 ---------------------------------------------------------------------------
     #   Z sym  total        # sym  WBO       # sym  WBO       # sym  WBO
 ---------------------------------------------------------------------------
     1   6 C    3.921 --     2 C    1.335     6 C    1.296    44 C    1.028
     2   6 C    3.938 --     1 C    1.335     3 C    1.276    22 O    1.096
     3   6 C    3.950 --     2 C    1.276     4 C    1.200     7 C    1.196
     4   6 C    3.972 --    10 N    1.358     5 C    1.227     3 C    1.200
     5   6 C    3.933 --     6 C    1.531     4 C    1.227   111 H    0.958
     6   6 C    3.951 --     5 C    1.531     1 C    1.296    23 S    0.902
     7   6 C    3.977 --     8 C    1.348     3 C    1.196    11 C    1.179
     8   6 C    3.975 --     7 C    1.348    14 C    1.178     9 C    1.177
     9   6 C    3.974 --    10 N    1.356    17 C    1.254     8 C    1.177
    10   7 N    2.966 --     4 C    1.358     9 C    1.356
    11   6 C    3.941 --    18 C    1.305    12 C    1.180     7 C    1.179
    12   6 C    3.968 --    13 N    1.390    21 C    1.202    11 C    1.180
    13   7 N    2.985 --    12 C    1.390    14 C    1.330
    14   6 C    3.972 --    13 N    1.330    15 C    1.278     8 C    1.178
    15   6 C    3.834 --    16 C    1.423    14 C    1.278   109 H    0.963
    16   6 C    3.957 --    17 C    1.450    15 C    1.423    25 S    0.883
    17   6 C    3.833 --    16 C    1.450     9 C    1.254   110 H    0.956
    18   6 C    3.941 --    11 C    1.305    19 C    1.278    70 N    1.114
    19   6 C    3.874 --    20 C    1.304    18 C    1.278    26 C    1.067
    20   6 C    3.951 --    21 C    1.534    19 C    1.304    24 S    0.893
    21   6 C    3.893 --    20 C    1.534    12 C    1.202   108 H    0.957
    22   8 O    2.139 --     2 C    1.096    51 B    0.800
    23  16 S    3.950 --    67 O    1.855    68 O    1.027     6 C    0.902
    24  16 S    3.954 --    57 O    1.871    55 O    1.054    20 C    0.893
    25  16 S    3.915 --    52 O    1.863    53 O    1.056    16 C    0.883
    26   6 C    3.917 --    27 C    1.311    31 C    1.283    19 C    1.067
    27   6 C    3.933 --    26 C    1.311    28 C    1.282    47 O    1.111
    28   6 C    3.949 --    27 C    1.282    29 C    1.200    32 C    1.192
    29   6 C    3.970 --    35 N    1.370    30 C    1.212    28 C    1.200
    30   6 C    3.926 --    31 C    1.544    29 C    1.212   107 H    0.960
    31   6 C    3.947 --    30 C    1.544    26 C    1.283    48 S    0.892
    32   6 C    3.975 --    33 C    1.348    28 C    1.192    36 C    1.181
    33   6 C    3.975 --    32 C    1.348    34 C    1.179    39 C    1.176
    34   6 C    3.973 --    35 N    1.345    42 C    1.263    33 C    1.179
    35   7 N    2.944 --    29 C    1.370    34 C    1.345
    36   6 C    3.936 --    43 C    1.296    32 C    1.181    37 C    1.177
    37   6 C    3.969 --    38 N    1.385    46 C    1.213    36 C    1.177
    38   7 N    2.995 --    37 C    1.385    39 C    1.334
    39   6 C    3.973 --    38 N    1.334    40 C    1.276    33 C    1.176
    40   6 C    3.835 --    41 C    1.427    39 C    1.276   104 H    0.963
    41   6 C    3.958 --    42 C    1.443    40 C    1.427    50 S    0.886
    42   6 C    3.832 --    41 C    1.443    34 C    1.263   105 H    0.956
    43   6 C    3.943 --    36 C    1.296    44 C    1.293    73 N    1.108
    44   6 C    3.880 --    45 C    1.307    43 C    1.293     1 C    1.028
    45   6 C    3.950 --    46 C    1.518    44 C    1.307    49 S    0.906
    46   6 C    3.903 --    45 C    1.518    37 C    1.213   106 H    0.953
    47   8 O    2.158 --    27 C    1.111    51 B    0.798
    48  16 S    3.963 --    58 O    1.821    59 O    1.080    31 C    0.892
    49  16 S    3.904 --    64 O    1.876    65 O    0.999    45 C    0.906
    50  16 S    3.917 --    61 O    1.860    62 O    1.056    41 C    0.886
    51   5 B    3.364 --    22 O    0.800    47 O    0.798    70 N    0.782
                            73 N    0.773
    52   8 O    2.048 --    25 S    1.863
    53   8 O    2.175 --    25 S    1.056    54 C    0.974
    54   6 C    3.931 --    83 H    0.979    82 H    0.975    53 O    0.974
                            84 H    0.969
    55   8 O    2.162 --    24 S    1.054    56 C    0.957
    56   6 C    3.922 --    79 H    0.978    80 H    0.978    81 H    0.976
                            55 O    0.957
    57   8 O    2.054 --    24 S    1.871
    58   8 O    2.004 --    48 S    1.821
    59   8 O    2.185 --    48 S    1.080    60 C    0.964
    60   6 C    3.923 --    77 H    0.977    76 H    0.976    78 H    0.968
                            59 O    0.964
    61   8 O    2.046 --    50 S    1.860
    62   8 O    2.174 --    50 S    1.056    63 C    0.974
    63   6 C    3.932 --   100 H    0.979    98 H    0.976    62 O    0.974
                            99 H    0.969
    64   8 O    2.054 --    49 S    1.876
    65   8 O    2.154 --    49 S    0.999    66 C    0.969
    66   6 C    3.929 --    95 H    0.981    97 H    0.975    96 H    0.974
                            65 O    0.969
    67   8 O    2.032 --    23 S    1.855
    68   8 O    2.156 --    23 S    1.027    69 C    0.975
    69   6 C    3.940 --   101 H    0.980   103 H    0.980   102 H    0.977
                            68 O    0.975
    70   7 N    3.154 --    18 C    1.114    72 C    0.993    51 B    0.782
    71   6 C    3.981 --    72 C    0.999    86 H    0.987    85 H    0.984
                            87 H    0.982
    72   6 C    3.970 --    71 C    0.999    70 N    0.993    89 H    0.965
                            88 H    0.959
    73   7 N    3.145 --    43 C    1.108    75 C    0.995    51 B    0.773
    74   6 C    3.977 --    75 C    0.995    91 H    0.987    90 H    0.983
                            92 H    0.981
    75   6 C    3.964 --    73 N    0.995    74 C    0.995    94 H    0.966
                            93 H    0.949
    76   1 H    0.995 --    60 C    0.976
    77   1 H    0.997 --    60 C    0.977
    78   1 H    0.995 --    60 C    0.968
    79   1 H    0.996 --    56 C    0.978
    80   1 H    0.996 --    56 C    0.978
    81   1 H    0.994 --    56 C    0.976
    82   1 H    0.996 --    54 C    0.975
    83   1 H    0.998 --    54 C    0.979
    84   1 H    0.996 --    54 C    0.969
    85   1 H    0.996 --    71 C    0.984
    86   1 H    0.998 --    71 C    0.987
    87   1 H    0.997 --    71 C    0.982
    88   1 H    0.993 --    72 C    0.959
    89   1 H    0.995 --    72 C    0.965
    90   1 H    0.996 --    74 C    0.983
    91   1 H    0.998 --    74 C    0.987
    92   1 H    0.998 --    74 C    0.981
    93   1 H    0.988 --    75 C    0.949
    94   1 H    0.995 --    75 C    0.966
    95   1 H    0.998 --    66 C    0.981
    96   1 H    0.995 --    66 C    0.974
    97   1 H    0.995 --    66 C    0.975
    98   1 H    0.996 --    63 C    0.976
    99   1 H    0.996 --    63 C    0.969
   100   1 H    0.998 --    63 C    0.979
   101   1 H    0.998 --    69 C    0.980
   102   1 H    0.996 --    69 C    0.977
   103   1 H    0.997 --    69 C    0.980
   104   1 H    0.994 --    40 C    0.963
   105   1 H    0.991 --    42 C    0.956
   106   1 H    0.989 --    46 C    0.953
   107   1 H    0.992 --    30 C    0.960
   108   1 H    0.989 --    21 C    0.957
   109   1 H    0.994 --    15 C    0.963
   110   1 H    0.991 --    17 C    0.956
   111   1 H    0.991 --     5 C    0.958
 ---------------------------------------------------------------------------

Topologies differ in total number of bonds
Writing corrected topology to xtbtopo.mol

molecular dipole:
                 x           y           z       tot (Debye)
 q only:        0.092       0.836      -0.698
   full:       -0.270       0.846      -1.290       3.981
molecular quadrupole (traceless):
                xx          xy          yy          xz          yz          zz
 q only:        4.591     -35.976       7.982      17.202      33.284     -12.573
  q+dip:       -8.918     -42.530      14.540      30.347      35.685      -5.622
   full:      -17.096     -43.456      11.197      28.950      36.202       5.899


           -------------------------------------------------
          | TOTAL ENERGY             -216.393834648198 Eh   |
          | GRADIENT NORM               0.037992797175 Eh/α |
          | HOMO-LUMO GAP               0.152549689731 eV   |
           -------------------------------------------------
########################################################################
Note: The following floating-point exceptions are signalling: IEEE_UNDERFLOW_FLAG
normal termination of xtb
[WARNING] Runtime exception occurred
-2- restart_readRestart: Multiplicity missmatch in restart file.
-1- restart_readRestart: Number of electron missmatch in restart file.
########################################################################

------------------------------------------------------------------------
 * finished run on 2024/11/07 at 16:17:39.037     
------------------------------------------------------------------------
 total:
 * wall-time:     0 d,  0 h,  0 min,  1.218 sec
 *  cpu-time:     0 d,  0 h,  0 min,  4.158 sec
 * ratio c/w:     3.414 speedup
 SCF:
 * wall-time:     0 d,  0 h,  0 min,  1.201 sec
 *  cpu-time:     0 d,  0 h,  0 min,  4.119 sec
 * ratio c/w:     3.429 speedup

