      -----------------------------------------------------------      
     |                   =====================                   |     
     |                           x T B                           |     
     |                   =====================                   |     
     |                         S. Grimme                         |     
     |          Mulliken Center for Theoretical Chemistry        |     
     |                    University of Bonn                     |     
      -----------------------------------------------------------      

   * xtb version 6.6.1 (8d0f1dd) compiled by 'runner@Mac-1690902418499.local' on 2023-08-01

   xtb is free software: you can redistribute it and/or modify it under
   the terms of the GNU Lesser General Public License as published by
   the Free Software Foundation, either version 3 of the License, or
   (at your option) any later version.
   
   xtb is distributed in the hope that it will be useful,
   but WITHOUT ANY WARRANTY; without even the implied warranty of
   MERCHANTABILITY or FITNESS FOR A PARTICULAR PURPOSE.  See the
   GNU Lesser General Public License for more details.
   
   Cite this work as:
   * C. Bannwarth, E. Caldeweyher, S. Ehlert, A. Hansen, P. Pracht,
     J. Seibert, S. Spicher, S. Grimme, WIREs Comput. Mol. Sci., 2020, 11,
     e01493. DOI: 10.1002/wcms.1493
   
   for GFN2-xTB:
   * C. Bannwarth, S. Ehlert and S. Grimme., J. Chem. Theory Comput., 2019,
     15, 1652-1671. DOI: 10.1021/acs.jctc.8b01176
   for GFN1-xTB:
   * S. Grimme, C. Bannwarth, P. Shushkov, J. Chem. Theory Comput., 2017,
     13, 1989-2009. DOI: 10.1021/acs.jctc.7b00118
   for GFN0-xTB:
   * P. Pracht, E. Caldeweyher, S. Ehlert, S. Grimme, ChemRxiv, 2019, preprint.
     DOI: 10.26434/chemrxiv.8326202.v1
   for GFN-FF:
   * S. Spicher and S. Grimme, Angew. Chem. Int. Ed., 2020, 59, 15665-15673.
     DOI: 10.1002/anie.202004239
   
   for ALPB and GBSA implicit solvation:
   * S. Ehlert, M. Stahn, S. Spicher, S. Grimme, J. Chem. Theory Comput.,
     2021, 17, 4250-4261. DOI: 10.1021/acs.jctc.1c00471
   
   for DFT-D4:
   * E. Caldeweyher, C. Bannwarth and S. Grimme, J. Chem. Phys., 2017,
     147, 034112. DOI: 10.1063/1.4993215
   * E. Caldeweyher, S. Ehlert, A. Hansen, H. Neugebauer, S. Spicher,
     C. Bannwarth and S. Grimme, J. Chem. Phys., 2019, 150, 154122.
     DOI: 10.1063/1.5090222
   * E. Caldeweyher, J.-M. Mewes, S. Ehlert and S. Grimme, Phys. Chem. Chem. Phys.
     2020, 22, 8499-8512. DOI: 10.1039/D0CP00502A
   
   for sTDA-xTB:
   * S. Grimme and C. Bannwarth, J. Chem. Phys., 2016, 145, 054103.
     DOI: 10.1063/1.4959605
   
   in the mass-spec context:
   * V. Asgeirsson, C. Bauer and S. Grimme, Chem. Sci., 2017, 8, 4879.
     DOI: 10.1039/c7sc00601b
   * J. Koopman and S. Grimme, ACS Omega 2019, 4, 12, 15120-15133.
     DOI: 10.1021/acsomega.9b02011
   
   for metadynamics refer to:
   * S. Grimme, J. Chem. Theory Comput., 2019, 155, 2847-2862
     DOI: 10.1021/acs.jctc.9b00143
   
   for SPH calculations refer to:
   * S. Spicher and S. Grimme, J. Chem. Theory Comput., 2021, 17, 1701-1714
     DOI: 10.1021/acs.jctc.0c01306
   
   with help from (in alphabetical order)
   P. Atkinson, C. Bannwarth, F. Bohle, G. Brandenburg, E. Caldeweyher
   M. Checinski, S. Dohm, S. Ehlert, S. Ehrlich, I. Gerasimov, C. Hölzer
   A. Katbashev, J. Koopman, C. Lavigne, S. Lehtola, F. März, M. Müller,
   F. Musil, H. Neugebauer, J. Pisarek, C. Plett, P. Pracht, F. Pultar,
   J. Seibert, P. Shushkov, S. Spicher, M. Stahn, M. Steiner, T. Strunk,
   J. Stückrath, T. Rose, and J. Unsleber
   
 * started run on 2024/11/07 at 16:17:30.097     

           -------------------------------------------------
          |                Calculation Setup                |
           -------------------------------------------------

          program call               : xtb opt_radical_Base2SO2Me.mol --gfn2 --sp --chrg 0 --uhf 1
          coordinate file            : opt_radical_Base2SO2Me.mol
          omp threads                :                     8

   ID    Z sym.   atoms
    1    6 C      1-9, 11, 12, 14-21, 26-34, 36, 37, 39-46, 54, 56, 60, 63,
                  66, 69, 71, 72, 74, 75
    2    7 N      10, 13, 35, 38, 70, 73
    3    8 O      22, 47, 52, 53, 55, 57-59, 61, 62, 64, 65, 67, 68
    4   16 S      23-25, 48-50
    5    5 B      51
    6    1 H      76-111

           -------------------------------------------------
          |                 G F N 2 - x T B                 |
           -------------------------------------------------

        Reference                      10.1021/acs.jctc.8b01176
      * Hamiltonian:
        H0-scaling (s, p, d)           1.850000    2.230000    2.230000
        zeta-weighting                 0.500000
      * Dispersion:
        s8                             2.700000
        a1                             0.520000
        a2                             5.000000
        s9                             5.000000
      * Repulsion:
        kExp                           1.500000    1.000000
        rExp                           1.000000
      * Coulomb:
        alpha                          2.000000
        third order                    shell-resolved
        anisotropic                    true
        a3                             3.000000
        a5                             4.000000
        cn-shift                       1.200000
        cn-exp                         4.000000
        max-rad                        5.000000

q/qsh data taken from xtbrestart
CAMM data taken from xtbrestart

          ...................................................
          :                      SETUP                      :
          :.................................................:
          :  # basis functions                 372          :
          :  # atomic orbitals                 366          :
          :  # shells                          192          :
          :  # electrons                       381          :
          :  max. iterations                   250          :
          :  Hamiltonian                  GFN2-xTB          :
          :  restarted?                       true          :
          :  GBSA solvation                  false          :
          :  PC potential                    false          :
          :  electronic temp.          300.0000000     K    :
          :  accuracy                    1.0000000          :
          :  -> integral cutoff          0.2500000E+02      :
          :  -> integral neglect         0.1000000E-07      :
          :  -> SCF convergence          0.1000000E-05 Eh   :
          :  -> wf. convergence          0.1000000E-03 e    :
          :  Broyden damping             0.4000000          :
          ...................................................

 iter      E             dE          RMSdq      gap      omega  full diag
   1   -218.8633930 -0.218863E+03  0.225E-01    0.24       0.0  T
   2   -218.7703539  0.930391E-01  0.714E-01    0.01       1.0  T
   3   -218.8699248 -0.995709E-01  0.293E-01    0.14       1.0  T
   4   -218.8674199  0.250494E-02  0.287E-01    0.12       1.0  T
   5   -218.8357974  0.316225E-01  0.454E-01    0.12       1.0  T
   6   -218.8581393 -0.223419E-01  0.295E-01    0.12       1.0  T
   7   -218.8537891  0.435018E-02  0.312E-01    0.15       1.0  T
   8   -218.8755089 -0.217197E-01  0.113E-01    0.17       1.0  T
   9   -218.8774093 -0.190041E-02  0.644E-02    0.19       1.0  T
  10   -218.8778764 -0.467087E-03  0.343E-02    0.20       1.0  T
  11   -218.8779914 -0.115033E-03  0.198E-02    0.20       1.0  T
  12   -218.8780462 -0.548190E-04  0.110E-02    0.20       1.0  T
  13   -218.8780562 -0.996776E-05  0.510E-03    0.20       1.9  T
  14   -218.8780581 -0.188594E-05  0.207E-03    0.20       4.6  T
  15   -218.8780584 -0.306243E-06  0.121E-03    0.20       7.9  T
  16   -218.8780585 -0.142819E-06  0.588E-04    0.20      16.1  T
  17   -218.8780586 -0.418157E-07  0.372E-04    0.20      25.5  T

   *** convergence criteria satisfied after 17 iterations ***

         #    Occupation            Energy/Eh            Energy/eV
      -------------------------------------------------------------
         1        2.0000           -0.7933473             -21.5881
       ...           ...                  ...                  ...
       185        2.0000           -0.3975637             -10.8183
       186        2.0000           -0.3937887             -10.7155
       187        2.0000           -0.3888220             -10.5804
       188        1.9992           -0.3843765             -10.4594
       189        1.9958           -0.3827913             -10.4163
       190        1.8931           -0.3796213             -10.3300
       191        1.0931           -0.3756314             -10.2215 (HOMO)
       192        0.0189           -0.3681069             -10.0167 (LUMO)
       193                         -0.3247814              -8.8378
       194                         -0.3133936              -8.5279
       195                         -0.2874540              -7.8220
       196                         -0.2854043              -7.7662
       ...                                ...                  ...
       366                          1.0292038              28.0061
      -------------------------------------------------------------
                  HL-Gap            0.0075245 Eh            0.2048 eV
             Fermi-level           -0.3747318 Eh          -10.1970 eV

 SCC (total)                   0 d,  0 h,  0 min,  1.326 sec
 SCC setup                      ...        0 min,  0.001 sec (  0.085%)
 Dispersion                     ...        0 min,  0.002 sec (  0.139%)
 classical contributions        ...        0 min,  0.001 sec (  0.040%)
 integral evaluation            ...        0 min,  0.009 sec (  0.687%)
 iterations                     ...        0 min,  1.208 sec ( 91.150%)
 molecular gradient             ...        0 min,  0.044 sec (  3.287%)
 printout                       ...        0 min,  0.061 sec (  4.611%)

         :::::::::::::::::::::::::::::::::::::::::::::::::::::
         ::                     SUMMARY                     ::
         :::::::::::::::::::::::::::::::::::::::::::::::::::::
         :: total energy            -216.401905655266 Eh    ::
         :: gradient norm              0.000649533856 Eh/a0 ::
         :: HOMO-LUMO gap              0.204752343802 eV    ::
         ::.................................................::
         :: SCC energy              -218.878058558682 Eh    ::
         :: -> isotropic ES            0.426234043108 Eh    ::
         :: -> anisotropic ES         -0.014472226163 Eh    ::
         :: -> anisotropic XC          0.070759015232 Eh    ::
         :: -> dispersion             -0.207604011433 Eh    ::
         :: repulsion energy           2.470684106969 Eh    ::
         :: add. restraining           0.000000000000 Eh    ::
         :: total charge               0.000014248573 e     ::
         :::::::::::::::::::::::::::::::::::::::::::::::::::::

           -------------------------------------------------
          |                Property Printout                |
           -------------------------------------------------

    * Orbital Energies and Occupations

         #    Occupation            Energy/Eh            Energy/eV
      -------------------------------------------------------------
         1        2.0000           -0.7933473             -21.5881
       ...           ...                  ...                  ...
       179        2.0000           -0.4121635             -11.2155
       180        2.0000           -0.4084267             -11.1139
       181        2.0000           -0.4059219             -11.0457
       182        2.0000           -0.4040742             -10.9954
       183        2.0000           -0.4022708             -10.9463
       184        2.0000           -0.3996998             -10.8764
       185        2.0000           -0.3975637             -10.8183
       186        2.0000           -0.3937887             -10.7155
       187        2.0000           -0.3888220             -10.5804
       188        1.9992           -0.3843765             -10.4594
       189        1.9958           -0.3827913             -10.4163
       190        1.8931           -0.3796213             -10.3300
       191        1.0931           -0.3756314             -10.2215 (HOMO)
       192        0.0189           -0.3681069             -10.0167 (LUMO)
       193                         -0.3247814              -8.8378
       194                         -0.3133936              -8.5279
       195                         -0.2874540              -7.8220
       196                         -0.2854043              -7.7662
       197                         -0.2737855              -7.4501
       198                         -0.2728054              -7.4234
       199                         -0.2619303              -7.1275
       200                         -0.2589931              -7.0476
       201                         -0.2543966              -6.9225
       202                         -0.2380824              -6.4786
       ...                                ...                  ...
       366                          1.0292038              28.0061
      -------------------------------------------------------------
                  HL-Gap            0.0075245 Eh            0.2048 eV
             Fermi-level           -0.3747318 Eh          -10.1970 eV

     #   Z          covCN         q      C6AA      α(0)
     1   6 C        2.979    -0.022    28.555     8.766
     2   6 C        2.989     0.166    24.418     8.106
     3   6 C        2.986    -0.030    28.733     8.793
     4   6 C        2.964     0.099    25.800     8.332
     5   6 C        2.949    -0.044    29.097     8.847
     6   6 C        2.968    -0.065    29.624     8.928
     7   6 C        2.966     0.046    26.975     8.519
     8   6 C        2.997    -0.017    28.413     8.744
     9   6 C        2.958     0.095    25.883     8.345
    10   7 N        1.846    -0.220    26.649     7.651
    11   6 C        2.973    -0.010    28.261     8.720
    12   6 C        2.957     0.102    25.744     8.322
    13   7 N        1.850    -0.221    26.657     7.652
    14   6 C        2.951     0.096    25.880     8.344
    15   6 C        2.948    -0.040    28.989     8.831
    16   6 C        2.954    -0.053    29.306     8.879
    17   6 C        2.945    -0.030    28.745     8.793
    18   6 C        3.078     0.107    25.566     8.290
    19   6 C        2.997    -0.010    28.246     8.718
    20   6 C        2.953    -0.071    29.769     8.949
    21   6 C        2.940    -0.030    28.740     8.792
    22   8 O        1.652    -0.385    20.562     6.121
    23  16 S        3.096     0.664   116.886    18.196
    24  16 S        3.302     0.679   116.396    18.158
    25  16 S        2.852     0.684   116.248    18.147
    26   6 C        3.007    -0.032    28.782     8.800
    27   6 C        2.987     0.168    24.367     8.097
    28   6 C        2.986    -0.031    28.761     8.797
    29   6 C        2.965     0.097    25.836     8.337
    30   6 C        2.930    -0.042    29.044     8.838
    31   6 C        2.965    -0.082    30.047     8.991
    32   6 C        2.966     0.045    26.987     8.521
    33   6 C        2.997    -0.017    28.414     8.744
    34   6 C        2.959     0.095    25.887     8.345
    35   7 N        1.847    -0.224    26.746     7.665
    36   6 C        2.971    -0.010    28.256     8.719
    37   6 C        2.957     0.102    25.735     8.321
    38   7 N        1.851    -0.218    26.585     7.642
    39   6 C        2.951     0.096    25.870     8.342
    40   6 C        2.948    -0.040    28.981     8.830
    41   6 C        2.954    -0.053    29.305     8.879
    42   6 C        2.946    -0.030    28.749     8.794
    43   6 C        3.079     0.107    25.549     8.287
    44   6 C        2.992     0.004    27.934     8.670
    45   6 C        2.957    -0.049    29.221     8.866
    46   6 C        2.953    -0.027    28.681     8.784
    47   8 O        1.652    -0.383    20.519     6.115
    48  16 S        3.324     0.689   116.061    18.132
    49  16 S        3.098     0.648   117.388    18.235
    50  16 S        2.851     0.687   116.153    18.139
    51   5 B        3.748     0.535    15.027     6.258
    52   8 O        0.860    -0.496    23.703     6.527
    53   8 O        1.706    -0.373    20.309     6.084
    54   6 C        3.740     0.047    19.865     6.359
    55   8 O        1.716    -0.390    20.628     6.132
    56   6 C        3.725     0.037    20.057     6.395
    57   8 O        0.860    -0.479    23.321     6.475
    58   8 O        0.860    -0.498    23.734     6.532
    59   8 O        1.705    -0.377    20.396     6.097
    60   6 C        3.721     0.039    20.021     6.391
    61   8 O        0.860    -0.496    23.699     6.527
    62   8 O        1.705    -0.375    20.355     6.091
    63   6 C        3.740     0.047    19.862     6.359
    64   8 O        0.860    -0.478    23.307     6.473
    65   8 O        1.706    -0.389    20.626     6.132
    66   6 C        3.765     0.031    20.092     6.389
    67   8 O        0.860    -0.490    23.569     6.509
    68   8 O        1.705    -0.378    20.418     6.101
    69   6 C        3.764     0.040    19.945     6.366
    70   7 N        2.668    -0.264    26.848     7.696
    71   6 C        3.753    -0.107    22.610     6.781
    72   6 C        3.747     0.014    20.406     6.443
    73   7 N        2.668    -0.265    26.856     7.697
    74   6 C        3.753    -0.105    22.561     6.773
    75   6 C        3.747     0.011    20.464     6.453
    76   1 H        0.925     0.065     2.140     2.288
    77   1 H        0.924     0.042     2.418     2.432
    78   1 H        0.924     0.070     2.088     2.260
    79   1 H        0.925     0.065     2.143     2.289
    80   1 H        0.924     0.078     2.003     2.213
    81   1 H        0.924     0.052     2.298     2.370
    82   1 H        0.925     0.062     2.177     2.308
    83   1 H        0.924     0.034     2.529     2.487
    84   1 H        0.924     0.062     2.171     2.304
    85   1 H        0.925     0.052     2.301     2.372
    86   1 H        0.925     0.042     2.416     2.431
    87   1 H        0.925     0.047     2.361     2.403
    88   1 H        0.924     0.030     2.583     2.513
    89   1 H        0.925     0.050     2.317     2.380
    90   1 H        0.925     0.049     2.335     2.389
    91   1 H        0.925     0.041     2.438     2.442
    92   1 H        0.925     0.043     2.408     2.427
    93   1 H        0.924     0.044     2.392     2.419
    94   1 H        0.925     0.049     2.338     2.391
    95   1 H        0.924     0.040     2.447     2.446
    96   1 H        0.924     0.064     2.154     2.295
    97   1 H        0.925     0.071     2.072     2.251
    98   1 H        0.925     0.060     2.193     2.316
    99   1 H        0.924     0.063     2.164     2.300
   100   1 H        0.924     0.033     2.550     2.497
   101   1 H        0.924     0.049     2.333     2.388
   102   1 H        0.925     0.063     2.161     2.299
   103   1 H        0.924     0.053     2.286     2.365
   104   1 H        0.926     0.071     2.070     2.250
   105   1 H        0.926     0.092     1.863     2.134
   106   1 H        0.926     0.095     1.829     2.115
   107   1 H        0.926     0.088     1.901     2.156
   108   1 H        0.926     0.088     1.901     2.156
   109   1 H        0.926     0.071     2.072     2.251
   110   1 H        0.926     0.093     1.854     2.129
   111   1 H        0.926     0.097     1.808     2.103

 Mol. C6AA /au·bohr⁶  :     213845.069484
 Mol. C8AA /au·bohr⁸  :    5834092.269955
 Mol. α(0) /au        :        725.441650


Wiberg/Mayer (AO) data.
largest (>0.10) Wiberg bond orders for each atom

 ---------------------------------------------------------------------------
     #   Z sym  total        # sym  WBO       # sym  WBO       # sym  WBO
 ---------------------------------------------------------------------------
     1   6 C    3.915 --     2 C    1.285     6 C    1.264    44 C    1.110
     2   6 C    3.927 --     3 C    1.308     1 C    1.285    22 O    1.099
     3   6 C    3.940 --     2 C    1.308     4 C    1.192     7 C    1.183
     4   6 C    3.970 --    10 N    1.391     5 C    1.202     3 C    1.192
     5   6 C    3.917 --     6 C    1.560     4 C    1.202   111 H    0.953
     6   6 C    3.955 --     5 C    1.560     1 C    1.264    23 S    0.911
     7   6 C    3.974 --     8 C    1.341    11 C    1.200     3 C    1.183
     8   6 C    3.967 --     7 C    1.341    14 C    1.183     9 C    1.180
     9   6 C    3.971 --    10 N    1.325    17 C    1.279     8 C    1.180
    10   7 N    2.940 --     4 C    1.391     9 C    1.325
    11   6 C    3.922 --    18 C    1.284     7 C    1.200    12 C    1.177
    12   6 C    3.964 --    13 N    1.399    21 C    1.194    11 C    1.177
    13   7 N    2.966 --    12 C    1.399    14 C    1.317
    14   6 C    3.969 --    13 N    1.317    15 C    1.285     8 C    1.183
    15   6 C    3.835 --    16 C    1.427    14 C    1.285   109 H    0.963
    16   6 C    3.962 --    17 C    1.435    15 C    1.427    25 S    0.899
    17   6 C    3.833 --    16 C    1.435     9 C    1.279   110 H    0.956
    18   6 C    3.936 --    11 C    1.284    19 C    1.249    70 N    1.139
    19   6 C    3.884 --    20 C    1.287    18 C    1.249    26 C    1.117
    20   6 C    3.955 --    21 C    1.544    19 C    1.287    24 S    0.898
    21   6 C    3.882 --    20 C    1.544    12 C    1.194   108 H    0.957
    22   8 O    2.170 --     2 C    1.099    51 B    0.826
    23  16 S    3.953 --    67 O    1.871    68 O    1.043     6 C    0.911
    24  16 S    3.959 --    57 O    1.853    55 O    1.043    20 C    0.898
    25  16 S    3.915 --    52 O    1.859    53 O    1.046    16 C    0.899
    26   6 C    3.915 --    27 C    1.279    31 C    1.265    19 C    1.117
    27   6 C    3.927 --    28 C    1.310    26 C    1.279    47 O    1.102
    28   6 C    3.939 --    27 C    1.310    29 C    1.191    32 C    1.181
    29   6 C    3.970 --    35 N    1.393    30 C    1.199    28 C    1.191
    30   6 C    3.917 --    31 C    1.556    29 C    1.199   107 H    0.957
    31   6 C    3.947 --    30 C    1.556    26 C    1.265    48 S    0.895
    32   6 C    3.974 --    33 C    1.340    36 C    1.202    28 C    1.181
    33   6 C    3.967 --    32 C    1.340    39 C    1.183    34 C    1.181
    34   6 C    3.971 --    35 N    1.322    42 C    1.282    33 C    1.181
    35   7 N    2.930 --    29 C    1.393    34 C    1.322
    36   6 C    3.921 --    43 C    1.282    32 C    1.202    37 C    1.176
    37   6 C    3.964 --    38 N    1.396    46 C    1.199    36 C    1.176
    38   7 N    2.969 --    37 C    1.396    39 C    1.321
    39   6 C    3.969 --    38 N    1.321    40 C    1.282    33 C    1.183
    40   6 C    3.834 --    41 C    1.430    39 C    1.282   104 H    0.963
    41   6 C    3.962 --    42 C    1.432    40 C    1.430    50 S    0.900
    42   6 C    3.832 --    41 C    1.432    34 C    1.282   105 H    0.956
    43   6 C    3.935 --    36 C    1.282    44 C    1.249    73 N    1.140
    44   6 C    3.886 --    45 C    1.294    43 C    1.249     1 C    1.110
    45   6 C    3.959 --    46 C    1.535    44 C    1.294    49 S    0.915
    46   6 C    3.880 --    45 C    1.535    37 C    1.199   106 H    0.955
    47   8 O    2.174 --    27 C    1.102    51 B    0.826
    48  16 S    3.973 --    58 O    1.852    59 O    1.041    31 C    0.895
    49  16 S    3.932 --    64 O    1.883    65 O    1.023    45 C    0.915
    50  16 S    3.911 --    61 O    1.859    62 O    1.041    41 C    0.900
    51   5 B    3.344 --    22 O    0.826    47 O    0.826    70 N    0.726
                            73 N    0.723
    52   8 O    2.043 --    25 S    1.859
    53   8 O    2.170 --    25 S    1.046    54 C    0.977
    54   6 C    3.934 --    83 H    0.979    53 O    0.977    82 H    0.974
                            84 H    0.971
    55   8 O    2.167 --    24 S    1.043    56 C    0.965
    56   6 C    3.917 --    81 H    0.977    79 H    0.975    55 O    0.965
                            80 H    0.962
    57   8 O    2.049 --    24 S    1.853
    58   8 O    2.033 --    48 S    1.852
    59   8 O    2.169 --    48 S    1.041    60 C    0.972
    60   6 C    3.926 --    77 H    0.976    76 H    0.974    59 O    0.972
                            78 H    0.969
    61   8 O    2.043 --    50 S    1.859
    62   8 O    2.166 --    50 S    1.041    63 C    0.978
    63   6 C    3.935 --   100 H    0.979    62 O    0.978    98 H    0.975
                            99 H    0.970
    64   8 O    2.062 --    49 S    1.883
    65   8 O    2.146 --    49 S    1.023    66 C    0.971
    66   6 C    3.932 --    95 H    0.980    96 H    0.976    97 H    0.974
                            65 O    0.971
    67   8 O    2.049 --    23 S    1.871
    68   8 O    2.159 --    23 S    1.043    69 C    0.970
    69   6 C    3.934 --   103 H    0.979   101 H    0.978   102 H    0.976
                            68 O    0.970
    70   7 N    3.147 --    18 C    1.139    72 C    0.991    51 B    0.726
    71   6 C    3.985 --    72 C    1.000    86 H    0.987    85 H    0.983
                            87 H    0.981
    72   6 C    3.970 --    71 C    1.000    70 N    0.991    88 H    0.962
                            89 H    0.961
    73   7 N    3.140 --    43 C    1.140    75 C    0.990    51 B    0.723
    74   6 C    3.986 --    75 C    0.999    91 H    0.987    90 H    0.983
                            92 H    0.981
    75   6 C    3.968 --    74 C    0.999    73 N    0.990    94 H    0.961
                            93 H    0.958
    76   1 H    0.995 --    60 C    0.974
    77   1 H    0.998 --    60 C    0.976
    78   1 H    0.995 --    60 C    0.969
    79   1 H    0.995 --    56 C    0.975
    80   1 H    0.994 --    56 C    0.962
    81   1 H    0.997 --    56 C    0.977
    82   1 H    0.996 --    54 C    0.974
    83   1 H    0.999 --    54 C    0.979
    84   1 H    0.996 --    54 C    0.971
    85   1 H    0.996 --    71 C    0.983
    86   1 H    0.998 --    71 C    0.987
    87   1 H    0.997 --    71 C    0.981
    88   1 H    0.998 --    72 C    0.962
    89   1 H    0.994 --    72 C    0.961
    90   1 H    0.996 --    74 C    0.983
    91   1 H    0.998 --    74 C    0.987
    92   1 H    0.998 --    74 C    0.981
    93   1 H    0.997 --    75 C    0.958
    94   1 H    0.994 --    75 C    0.961
    95   1 H    0.998 --    66 C    0.980
    96   1 H    0.996 --    66 C    0.976
    97   1 H    0.994 --    66 C    0.974
    98   1 H    0.996 --    63 C    0.975
    99   1 H    0.996 --    63 C    0.970
   100   1 H    0.999 --    63 C    0.979
   101   1 H    0.998 --    69 C    0.978
   102   1 H    0.995 --    69 C    0.976
   103   1 H    0.997 --    69 C    0.979
   104   1 H    0.994 --    40 C    0.963
   105   1 H    0.991 --    42 C    0.956
   106   1 H    0.988 --    46 C    0.955
   107   1 H    0.990 --    30 C    0.957
   108   1 H    0.989 --    21 C    0.957
   109   1 H    0.994 --    15 C    0.963
   110   1 H    0.991 --    17 C    0.956
   111   1 H    0.988 --     5 C    0.953
 ---------------------------------------------------------------------------

Topologies differ in total number of bonds
Writing corrected topology to xtbtopo.mol

molecular dipole:
                 x           y           z       tot (Debye)
 q only:        0.121       0.734      -1.570
   full:       -0.148       0.813      -2.149       5.851
molecular quadrupole (traceless):
                xx          xy          yy          xz          yz          zz
 q only:        5.841     -55.328      -8.388      16.254      12.195       2.547
  q+dip:       -9.365     -60.856      -2.127      26.865      12.950      11.492
   full:      -17.852     -62.986      -7.609      26.643      13.030      25.461


           -------------------------------------------------
          | TOTAL ENERGY             -216.401905655266 Eh   |
          | GRADIENT NORM               0.000649533856 Eh/α |
          | HOMO-LUMO GAP               0.204752343802 eV   |
           -------------------------------------------------
########################################################################
[WARNING] Runtime exception occurred
-2- restart_readRestart: Multiplicity missmatch in restart file.
-1- restart_readRestart: Number of electron missmatch in restart file.
Note: The following floating-point exceptions are signalling: IEEE_UNDERFLOW_FLAG
normal termination of xtb
########################################################################

------------------------------------------------------------------------
 * finished run on 2024/11/07 at 16:17:31.489     
------------------------------------------------------------------------
 total:
 * wall-time:     0 d,  0 h,  0 min,  1.390 sec
 *  cpu-time:     0 d,  0 h,  0 min,  4.563 sec
 * ratio c/w:     3.282 speedup
 SCF:
 * wall-time:     0 d,  0 h,  0 min,  1.327 sec
 *  cpu-time:     0 d,  0 h,  0 min,  4.522 sec
 * ratio c/w:     3.408 speedup

