Optimization of monomers started
Stacking dimer
Calculating transfer integral
Reorganization energy (electron): 0.17304296848976472 eV
Reorganization energy (hole): 0.22321021946763125 eV
Electron Transfer integral J: 0.023 eV
Hole Transfer integral J: 0.029 eV
                   |     
     |                         S. Grimme                         |     
     |          Mulliken Center for Theoretical Chemistry        |     
     |                    University of Bonn                     |     
      -----------------------------------------------------------      

   * xtb version 6.7.1 (edcfbbe) compiled by 'runner@Mac-1732539442253.local' on 2024-11-25

   xtb is free software: you can redistribute it and/or modify it under
   the terms of the GNU Lesser General Public License as published by
   the Free Software Foundation, either version 3 of the License, or
   (at your option) any later version.
   
   xtb is distributed in the hope that it will be useful,
   but WITHOUT ANY WARRANTY; without even the implied warranty of
   MERCHANTABILITY or FITNESS FOR A PARTICULAR PURPOSE.  See the
   GNU Lesser General Public License for more details.
   
   Cite this work as:
   * C. Bannwarth, E. Caldeweyher, S. Ehlert, A. Hansen, P. Pracht,
     J. Seibert, S. Spicher, S. Grimme, WIREs Comput. Mol. Sci., 2020, 11,
     e01493. DOI: 10.1002/wcms.1493
   
   for GFN2-xTB:
   * C. Bannwarth, S. Ehlert and S. Grimme., J. Chem. Theory Comput., 2019,
     15, 1652-1671. DOI: 10.1021/acs.jctc.8b01176
   for GFN1-xTB:
   * S. Grimme, C. Bannwarth, P. Shushkov, J. Chem. Theory Comput., 2017,
     13, 1989-2009. DOI: 10.1021/acs.jctc.7b00118
   for GFN0-xTB:
   * P. Pracht, E. Caldeweyher, S. Ehlert, S. Grimme, ChemRxiv, 2019, preprint.
     DOI: 10.26434/chemrxiv.8326202.v1
   for GFN-FF:
   * S. Spicher and S. Grimme, Angew. Chem. Int. Ed., 2020, 59, 15665-15673.
     DOI: 10.1002/anie.202004239
   
   for ALPB and GBSA implicit solvation:
   * S. Ehlert, M. Stahn, S. Spicher, S. Grimme, J. Chem. Theory Comput.,
     2021, 17, 4250-4261. DOI: 10.1021/acs.jctc.1c00471
   
   for ddCOSMO and CPCM-X implicit solvation:
   * M. Stahn, S. Ehlert, S. Grimme, J. Phys. Chem. A,
     2023, XX, XXXX-XXXX. DOI: 10.1021/acs.jpca.3c04382
   
   for DFT-D4:
   * E. Caldeweyher, C. Bannwarth and S. Grimme, J. Chem. Phys., 2017,
     147, 034112. DOI: 10.1063/1.4993215
   * E. Caldeweyher, S. Ehlert, A. Hansen, H. Neugebauer, S. Spicher,
     C. Bannwarth and S. Grimme, J. Chem. Phys., 2019, 150, 154122.
     DOI: 10.1063/1.5090222
   * E. Caldeweyher, J.-M. Mewes, S. Ehlert and S. Grimme, Phys. Chem. Chem. Phys.
     2020, 22, 8499-8512. DOI: 10.1039/D0CP00502A
   
   for sTDA-xTB:
   * S. Grimme and C. Bannwarth, J. Chem. Phys., 2016, 145, 054103.
     DOI: 10.1063/1.4959605
   
   in the mass-spec context:
   * V. Asgeirsson, C. Bauer and S. Grimme, Chem. Sci., 2017, 8, 4879.
     DOI: 10.1039/c7sc00601b
   * J. Koopman and S. Grimme, ACS Omega 2019, 4, 12, 15120-15133.
     DOI: 10.1021/acsomega.9b02011
   
   for metadynamics refer to:
   * S. Grimme, J. Chem. Theory Comput., 2019, 155, 2847-2862
     DOI: 10.1021/acs.jctc.9b00143
   
   for SPH calculations refer to:
   * S. Spicher and S. Grimme, J. Chem. Theory Comput., 2021, 17, 1701-1714
     DOI: 10.1021/acs.jctc.0c01306
   
   for ONIOM refer to:
   * C. Plett, A. Katbashev, S. Ehlert, S. Grimme, M. Bursch,
     Phys. Chem. Chem. Phys., 2023, 25, 17860-17868. DOI: 10.1039/D3CP02178E
   
   for DIPRO refer to:
   * J. Kohn, N. Gildemeister, S. Grimme, D. Fazzi, A. Hansen,
     J. Chem. Phys., 2023, just accepted.
   
   for PTB refer to:
   * S. Grimme, M. Mueller, A. Hansen, J. Chem. Phys., 2023, 158, 124111.
     DOI: 10.1063/5.0137838
   
   with help from (in alphabetical order)
   P. Atkinson, C. Bannwarth, F. Bohle, G. Brandenburg, E. Caldeweyher
   M. Checinski, S. Dohm, S. Ehlert, S. Ehrlich, I. Gerasimov, C. Hölzer
   A. Katbashev, J. Kohn, J. Koopman, C. Lavigne, S. Lehtola, F. März, M. Müller,
   F. Musil, H. Neugebauer, J. Pisarek, C. Plett, P. Pracht, F. Pultar,
   J. Seibert, P. Shushkov, S. Spicher, M. Stahn, M. Steiner, T. Strunk,
   J. Stückrath, T. Rose, and J. Unsleber
   
 * started run on 2024/12/10 at 16:00:01.797     
   ID    Z sym.   atoms
    1    6 C      1-9, 11, 12, 14-21, 26-34, 36, 37, 39-46, 54, 56, 60, 63,
                  66, 69, 71, 72, 74, 75
    2    7 N      10, 13, 35, 38, 70, 73
    3    8 O      22, 47, 52, 53, 55, 57-59, 61, 62, 64, 65, 67, 68
    4   16 S      23-25, 48-50
    5    5 B      51
    6    1 H      76-111

           -------------------------------------------------
          |                Calculation Setup                |
           -------------------------------------------------

          program call               : xtb Base2SO2Me.mol --opt --gfn 2 --chrg 0 --uhf 1 --tight
          coordinate file            : Base2SO2Me.mol
          omp threads                :                     8


molecular fragmentation (1/2 indicates fragments):
111111111111111111111111111111111111111111111111111111111111111111111111
111111112111111111111111211111111111111
# atoms in fragment 1/2:   109     2
 fragment masses (1/2) :     1122.02        2.02
CMA distance (Bohr)    :   3.654
constraining FC (au)   :  0.0500
########################################################################
[WARNING] Please study the warnings concerning your input carefully
-2- prog_main: Charge in sdf/mol input was overwritten
-1- prog_main_parseArguments: Unknown option '--tight' provided
########################################################################

           -------------------------------------------------
          |                 G F N 2 - x T B                 |
           -------------------------------------------------

        Reference                      10.1021/acs.jctc.8b01176
      * Hamiltonian:
        H0-scaling (s, p, d)           1.850000    2.230000    2.230000
        zeta-weighting                 0.500000
      * Dispersion:
        s8                             2.700000
        a1                             0.520000
        a2                             5.000000
        s9                             5.000000
      * Repulsion:
        kExp                           1.500000    1.000000
        rExp                           1.000000
      * Coulomb:
        alpha                          2.000000
        third order                    shell-resolved
        anisotropic                    true
        a3                             3.000000
        a5                             4.000000
        cn-shift                       1.200000
        cn-exp                         4.000000
        max-rad                        5.000000


          ...................................................
          :                      SETUP                      :
          :.................................................:
          :  # basis functions                 372          :
          :  # atomic orbitals                 366          :
          :  # shells                          192          :
          :  # electrons                       381          :
          :  max. iterations                   250          :
          :  Hamiltonian                  GFN2-xTB          :
          :  restarted?                      false          :
          :  GBSA solvation                  false          :
          :  PC potential                    false          :
          :  electronic temp.          300.0000000     K    :
          :  accuracy                    1.0000000          :
          :  -> integral cutoff          0.2500000E+02      :
          :  -> integral neglect         0.1000000E-07      :
          :  -> SCF convergence          0.1000000E-05 Eh   :
          :  -> wf. convergence          0.1000000E-03 e    :
          :  Broyden damping             0.4000000          :
          :  net charge                          0          :
          :  unpaired electrons                  1          :
          ...................................................

 iter      E             dE          RMSdq      gap      omega  full diag
   1   -215.2503229 -0.215250E+03  0.652E+00    0.01       0.0  T
   2   -202.8260955  0.124242E+02  0.113E+01    0.05       1.0  T
   3   -216.6438834 -0.138178E+02  0.431E+00    0.02       1.0  T
   4   -210.2726040  0.637128E+01  0.611E+00    0.17       1.0  T
   5   -214.5997910 -0.432719E+01  0.541E+00    0.22       1.0  T
   6   -215.7518322 -0.115204E+01  0.289E+00    0.15       1.0  T
   7   -215.2735871  0.478245E+00  0.310E+00    0.04       1.0  T
   8   -215.2802108 -0.662370E-02  0.302E+00    0.14       1.0  T
   9   -215.6796605 -0.399450E+00  0.269E+00    0.06       1.0  T
  10   -216.0481638 -0.368503E+00  0.226E+00    0.08       1.0  T
  11   -217.4998439 -0.145168E+01  0.138E+00    0.05       1.0  T
  12   -217.5461258 -0.462819E-01  0.112E+00    0.06       1.0  T
  13   -217.5544240 -0.829816E-02  0.106E+00    0.04       1.0  T
  14   -217.6157907 -0.613667E-01  0.861E-01    0.04       1.0  T
  15   -217.6050559  0.107348E-01  0.682E-01    0.05       1.0  T
  16   -217.6533677 -0.483118E-01  0.533E-01    0.02       1.0  T
  17   -217.6605577 -0.718996E-02  0.481E-01    0.01       1.0  T
  18   -217.6143554  0.462023E-01  0.605E-01    0.05       1.0  T
  19   -217.6098439  0.451153E-02  0.580E-01    0.08       1.0  T
  20   -217.6393651 -0.295212E-01  0.477E-01    0.04       1.0  T
  21   -217.6347771  0.458798E-02  0.448E-01    0.05       1.0  T
  22   -217.6631658 -0.283887E-01  0.274E-01    0.04       1.0  T
  23   -217.6707337 -0.756786E-02  0.169E-01    0.03       1.0  T
  24   -217.6721791 -0.144545E-02  0.147E-01    0.02       1.0  T
  25   -217.6728435 -0.664363E-03  0.125E-01    0.03       1.0  T
  26   -217.6740563 -0.121283E-02  0.844E-02    0.02       1.0  T
  27   -217.6748308 -0.774462E-03  0.504E-02    0.03       1.0  T
  28   -217.6744927  0.338106E-03  0.623E-02    0.02       1.0  T
  29   -217.6750378 -0.545109E-03  0.290E-02    0.03       1.0  T
  30   -217.6750356  0.221367E-05  0.268E-02    0.03       1.0  T
  31   -217.6750691 -0.334966E-04  0.210E-02    0.03       1.0  T
  32   -217.6751096 -0.405400E-04  0.132E-02    0.03       1.0  T
  33   -217.6751315 -0.218785E-04  0.409E-03    0.03       2.3  T
  34   -217.6751316 -0.116462E-06  0.378E-03    0.03       2.5  T
  35   -217.6751331 -0.148852E-05  0.173E-03    0.03       5.5  T
  36   -217.6751330  0.540386E-07  0.180E-03    0.03       5.3  T
  37   -217.6751331 -0.877890E-07  0.138E-03    0.03       6.9  T
  38   -217.6751335 -0.331152E-06  0.360E-04    0.03      26.3  T
  39   -217.6751335 -0.815589E-08  0.298E-04    0.03      31.8  T

   *** convergence criteria satisfied after 39 iterations ***

         #    Occupation            Energy/Eh            Energy/eV
      -------------------------------------------------------------
         1        2.0000           -0.8461788             -23.0257
       ...           ...                  ...                  ...
       185        2.0000           -0.2736666              -7.4468
       186        1.9999           -0.2728185              -7.4238
       187        1.9998           -0.2721339              -7.4051
       188        1.9933           -0.2689333              -7.3180
       189        1.8499           -0.2658843              -7.2351
       190        1.5581           -0.2646289              -7.2009
       191        1.0006           -0.2632823              -7.1643 (HOMO)
       192        0.5591           -0.2622609              -7.1365 (LUMO)
       193        0.0228           -0.2587963              -7.0422
       194        0.0167           -0.2584976              -7.0341
       195                         -0.2222039              -6.0465
       196                         -0.2170084              -5.9051
       ...                                ...                  ...
       366                          4.8624673             132.3145
      -------------------------------------------------------------
                  HL-Gap            0.0010214 Eh            0.0278 eV
             Fermi-level           -0.2632811 Eh           -7.1642 eV

 SCC (total)                   0 d,  0 h,  0 min,  2.328 sec
 SCC setup                      ...        0 min,  0.001 sec (  0.057%)
 Dispersion                     ...        0 min,  0.002 sec (  0.070%)
 classical contributions        ...        0 min,  0.000 sec (  0.017%)
 integral evaluation            ...        0 min,  0.009 sec (  0.387%)
 iterations                     ...        0 min,  2.265 sec ( 97.301%)
 molecular gradient             ...        0 min,  0.044 sec (  1.877%)
 printout                       ...        0 min,  0.007 sec (  0.291%)

         :::::::::::::::::::::::::::::::::::::::::::::::::::::
         ::                     SUMMARY                     ::
         :::::::::::::::::::::::::::::::::::::::::::::::::::::
         :: total energy            -211.679222889456 Eh    ::
         :: gradient norm              5.570953240970 Eh/a0 ::
         :: HOMO-LUMO gap              0.027794794521 eV    ::
         ::.................................................::
         :: SCC energy              -217.671341765679 Eh    ::
         :: -> isotropic ES            0.418387552632 Eh    ::
         :: -> anisotropic ES          0.067809032397 Eh    ::
         :: -> anisotropic XC          0.036452783421 Eh    ::
         :: -> dispersion             -0.190901858160 Eh    ::
         :: repulsion energy           5.992118876223 Eh    ::
         :: add. restraining           0.000000000000 Eh    ::
         :: total charge              -0.000000000001 e     ::
         :::::::::::::::::::::::::::::::::::::::::::::::::::::

      ----------------------------------------------------------- 
     |                   =====================                   |
     |                        A N C O P T                        |
     |                   =====================                   |
     |               Approximate Normal Coordinate               |
     |                Rational Function Optimizer                |
      ----------------------------------------------------------- 
      ----------------------------------------------------------- 
     |                   =====================                   |
     |                        A N C O P T                        |
     |                   =====================                   |
     |               Approximate Normal Coordinate               |
     |                Rational Function Optimizer                |
      ----------------------------------------------------------- 

          ...................................................
          :                      SETUP                      :
          :.................................................:
          :   optimization level            normal          :
          :   max. optcycles                   333          :
          :   ANC micro-cycles                  20          :
          :   degrees of freedom               327          :
          :.................................................:
          :   RF solver                   davidson          :
          :   write xtbopt.log                true          :
          :   linear?                        false          :
          :   energy convergence         0.5000000E-05 Eh   :
          :   grad. convergence          0.1000000E-02 Eh/α :
          :   maxmium RF displ.          1.0000000          :
          :   Hlow (freq-cutoff)         0.1000000E-01      :
          :   Hmax (freq-cutoff)         5.0000000          :
          :   S6 in model hess.         20.0000000          :
          ...................................................

generating ANC from exact Hessian ...
Using Lindh-Hessian (1995)
 Shifting diagonal of input Hessian by    9.9537758360814313E-003
 Lowest  eigenvalues of input Hessian
    0.000000    0.000000    0.000000    0.000000    0.000000    0.000000
    0.010000    0.010009    0.010107    0.010192    0.010218    0.010411
    0.010595    0.010635    0.010781    0.010866    0.011009    0.011288
 Highest eigenvalues
    6.207728    6.253664    6.276231    6.328756    6.416264    7.669385


........................................................................
.............................. CYCLE    1 ..............................
........................................................................

 iter      E             dE          RMSdq      gap      omega  full diag
   1   -217.6751335 -0.217675E+03  0.235E-04    0.03       0.0  T
   2   -217.6751313  0.212960E-05  0.336E-03    0.03       2.8  T
   3   -217.6751334 -0.210661E-05  0.401E-04    0.03      23.7  T
   4   -217.6751334 -0.544767E-08  0.342E-04    0.03      27.7  T
   5   -217.6751335 -0.172349E-07  0.229E-04    0.03      41.5  T
     SCC iter.                  ...        0 min,  0.283 sec
     gradient                   ...        0 min,  0.038 sec
 * total energy  :  -211.6792229 Eh     change       -0.4476988E-08 Eh
   gradient norm :     5.5709562 Eh/α   predicted     0.0000000E+00 (-100.00%)
   displ. norm   :     0.7895351 α      lambda       -0.4313908E+01
   maximum displ.:     0.4470547 α      in ANC's #281, #256, #315, ...

........................................................................
.............................. CYCLE    2 ..............................
........................................................................

 iter      E             dE          RMSdq      gap      omega  full diag
   1   -217.3831811 -0.217383E+03  0.172E+00    0.09       0.0  T
   2   -215.5275244  0.185566E+01  0.342E+00    0.08       1.0  T
   3   -216.9425172 -0.141499E+01  0.214E+00    0.09       1.0  T
   4   -216.2512952  0.691222E+00  0.236E+00    0.26       1.0  T
   5   -217.5304929 -0.127920E+01  0.120E+00    0.12       1.0  T
   6   -217.6144385 -0.839456E-01  0.958E-01    0.05       1.0  T
   7   -217.6320359 -0.175974E-01  0.776E-01    0.02       1.0  T
   8   -217.6323581 -0.322202E-03  0.707E-01    0.03       1.0  T
   9   -217.4812130  0.151145E+00  0.950E-01    0.05       1.0  T
  10   -217.5355401 -0.543271E-01  0.930E-01    0.05       1.0  T
  11   -217.6455350 -0.109995E+00  0.670E-01    0.02       1.0  T
  12   -217.7035157 -0.579808E-01  0.321E-01    0.07       1.0  T
  13   -217.7019274  0.158832E-02  0.294E-01    0.05       1.0  T
  14   -217.6985792  0.334821E-02  0.275E-01    0.06       1.0  T
  15   -217.7144265 -0.158472E-01  0.162E-01    0.04       1.0  T
  16   -217.7148106 -0.384138E-03  0.134E-01    0.02       1.0  T
  17   -217.7169795 -0.216888E-02  0.805E-02    0.03       1.0  T
  18   -217.7173964 -0.416973E-03  0.761E-02    0.04       1.0  T
  19   -217.7179498 -0.553349E-03  0.474E-02    0.04       1.0  T
  20   -217.7181105 -0.160667E-03  0.334E-02    0.04       1.0  T
  21   -217.7181970 -0.865448E-04  0.210E-02    0.04       1.0  T
  22   -217.7182171 -0.201086E-04  0.167E-02    0.04       1.0  T
  23   -217.7182480 -0.308876E-04  0.881E-03    0.04       1.1  T
  24   -217.7182388  0.921067E-05  0.114E-02    0.04       1.0  T
  25   -217.7182569 -0.181375E-04  0.664E-03    0.04       1.4  T
  26   -217.7182665 -0.961293E-05  0.181E-03    0.04       5.2  T
  27   -217.7182661  0.401083E-06  0.235E-03    0.04       4.0  T
  28   -217.7182671 -0.921027E-06  0.815E-04    0.04      11.6  T
  29   -217.7182669  0.198298E-06  0.119E-03    0.04       8.0  T
  30   -217.7182670 -0.143105E-06  0.806E-04    0.04      11.8  T
     SCC iter.                  ...        0 min,  1.986 sec
     gradient                   ...        0 min,  0.038 sec
 * total energy  :  -213.8434204 Eh     change       -0.2164198E+01 Eh
   gradient norm :     1.6657331 Eh/α   predicted    -0.3501526E+01 (  61.79%)
   displ. norm   :     0.6249287 α      lambda       -0.9539834E+00
   maximum displ.:     0.1635737 α      in ANC's #212, #256, #234, ...

........................................................................
.............................. CYCLE    3 ..............................
........................................................................

 iter      E             dE          RMSdq      gap      omega  full diag
   1   -217.5014499 -0.217501E+03  0.219E+00    0.06       0.0  T
   2   -216.0676646  0.143379E+01  0.357E+00    0.07       1.0  T
   3   -217.0340410 -0.966376E+00  0.201E+00    0.07       1.0  T
   4   -217.5241001 -0.490059E+00  0.151E+00    0.14       1.0  T
   5   -217.7002053 -0.176105E+00  0.888E-01    0.02       1.0  T
   6   -217.4783718  0.221834E+00  0.117E+00    0.20       1.0  T
   7   -217.0586006  0.419771E+00  0.172E+00    0.09       1.0  T
   8   -217.2049844 -0.146384E+00  0.166E+00    0.03       1.0  T
   9   -217.6582217 -0.453237E+00  0.108E+00    0.03       1.0  T
  10   -217.7277713 -0.695496E-01  0.668E-01    0.13       1.0  T
  11   -217.7195865  0.818477E-02  0.695E-01    0.05       1.0  T
  12   -217.7866293 -0.670427E-01  0.456E-01    0.07       1.0  T
  13   -217.7779264  0.870286E-02  0.438E-01    0.03       1.0  T
  14   -217.7982452 -0.203188E-01  0.334E-01    0.06       1.0  T
  15   -217.7917910  0.645415E-02  0.361E-01    0.05       1.0  T
  16   -217.7959708 -0.417975E-02  0.347E-01    0.04       1.0  T
  17   -217.8106908 -0.147200E-01  0.188E-01    0.06       1.0  T
  18   -217.8162637 -0.557294E-02  0.113E-01    0.04       1.0  T
  19   -217.8165747 -0.311029E-03  0.994E-02    0.04       1.0  T
  20   -217.8174045 -0.829772E-03  0.691E-02    0.04       1.0  T
  21   -217.8177790 -0.374520E-03  0.535E-02    0.04       1.0  T
  22   -217.8182930 -0.513979E-03  0.130E-02    0.04       1.0  T
  23   -217.8182519  0.410839E-04  0.182E-02    0.05       1.0  T
  24   -217.8183035 -0.515675E-04  0.851E-03    0.04       1.1  T
  25   -217.8183009  0.258963E-05  0.819E-03    0.04       1.2  T
  26   -217.8182977  0.314248E-05  0.851E-03    0.04       1.1  T
  27   -217.8183116 -0.138532E-04  0.255E-03    0.04       3.7  T
  28   -217.8183115  0.866568E-07  0.258E-03    0.04       3.7  T
  29   -217.8183120 -0.480372E-06  0.152E-03    0.04       6.2  T
  30   -217.8183124 -0.373948E-06  0.634E-04    0.04      15.0  T
  31   -217.8183124 -0.342371E-07  0.414E-04    0.04      22.9  T
     SCC iter.                  ...        0 min,  1.917 sec
     gradient                   ...        0 min,  0.040 sec
 * total energy  :  -214.5883903 Eh     change       -0.7449699E+00 Eh
   gradient norm :     0.9865402 Eh/α   predicted    -0.6632772E+00 ( -10.97%)
   displ. norm   :     0.7000060 α      lambda       -0.6444913E+00
   maximum displ.:     0.1737465 α      in ANC's #212, #295, #296, ...

........................................................................
.............................. CYCLE    4 ..............................
........................................................................

 iter      E             dE          RMSdq      gap      omega  full diag
   1   -217.7048328 -0.217705E+03  0.204E+00    0.04       0.0  T
   2   -216.2071504  0.149768E+01  0.358E+00    0.04       1.0  T
   3   -217.0237425 -0.816592E+00  0.220E+00    0.11       1.0  T
   4   -217.0307067 -0.696421E-02  0.207E+00    0.05       1.0  T
   5   -217.6255009 -0.594794E+00  0.136E+00    0.13       1.0  T
   6   -217.8063851 -0.180884E+00  0.107E+00    0.25       1.0  T
   7   -217.8604613 -0.540762E-01  0.906E-01    0.06       1.0  T
   8   -217.7970336  0.634277E-01  0.954E-01    0.17       1.0  T
   9   -217.8758033 -0.787697E-01  0.797E-01    0.06       1.0  T
  10   -217.9661233 -0.903200E-01  0.417E-01    0.05       1.0  T
  11   -217.7644440  0.201679E+00  0.126E+00    0.06       1.0  T
  12   -217.9030547 -0.138611E+00  0.744E-01    0.03       1.0  T
  13   -217.9731070 -0.700523E-01  0.276E-01    0.07       1.0  T
  14   -217.8621308  0.110976E+00  0.706E-01    0.06       1.0  T
  15   -217.9110734 -0.489425E-01  0.602E-01    0.04       1.0  T
  16   -217.9583180 -0.472446E-01  0.439E-01    0.02       1.0  T
  17   -217.9785479 -0.202299E-01  0.214E-01    0.02       1.0  T
  18   -217.9850738 -0.652593E-02  0.736E-02    0.04       1.0  T
  19   -217.9847557  0.318143E-03  0.742E-02    0.03       1.0  T
  20   -217.9855683 -0.812628E-03  0.316E-02    0.04       1.0  T
  21   -217.9856022 -0.338736E-04  0.246E-02    0.04       1.0  T
  22   -217.9856565 -0.543704E-04  0.134E-02    0.04       1.0  T
  23   -217.9856632 -0.670534E-05  0.958E-03    0.03       1.0  T
  24   -217.9856788 -0.156224E-04  0.553E-03    0.04       1.7  T
  25   -217.9856803 -0.141482E-05  0.482E-03    0.04       2.0  T
  26   -217.9856808 -0.552486E-06  0.344E-03    0.04       2.8  T
  27   -217.9856818 -0.101747E-05  0.231E-03    0.04       4.1  T
  28   -217.9856829 -0.103711E-05  0.110E-03    0.04       8.6  T
  29   -217.9856830 -0.111546E-06  0.813E-04    0.04      11.7  T
  30   -217.9856831 -0.124863E-06  0.269E-04    0.04      35.3  T
     SCC iter.                  ...        0 min,  2.186 sec
     gradient                   ...        0 min,  0.043 sec
 * total energy  :  -215.1237127 Eh     change       -0.5353224E+00 Eh
   gradient norm :     0.6484493 Eh/α   predicted    -0.4801486E+00 ( -10.31%)
   displ. norm   :     0.7750182 α      lambda       -0.4803265E+00
   maximum displ.:     0.1991367 α      in ANC's #223, #219, #212, ...

........................................................................
.............................. CYCLE    5 ..............................
........................................................................

 iter      E             dE          RMSdq      gap      omega  full diag
   1   -218.0073792 -0.218007E+03  0.128E+00    0.03       0.0  T
   2   -217.2101505  0.797229E+00  0.253E+00    0.07       1.0  T
   3   -217.8618213 -0.651671E+00  0.131E+00    0.29       1.0  T
   4   -217.6459655  0.215856E+00  0.139E+00    0.08       1.0  T
   5   -217.5407527  0.105213E+00  0.147E+00    0.15       1.0  T
   6   -218.0466656 -0.505913E+00  0.813E-01    0.16       1.0  T
   7   -217.9748819  0.717838E-01  0.869E-01    0.09       1.0  T
   8   -217.9094766  0.654052E-01  0.112E+00    0.13       1.0  T
   9   -218.0810230 -0.171546E+00  0.741E-01    0.12       1.0  T
  10   -218.0762413  0.478176E-02  0.708E-01    0.07       1.0  T
  11   -218.0937610 -0.175198E-01  0.599E-01    0.10       1.0  T
  12   -218.1426801 -0.489191E-01  0.314E-01    0.04       1.0  T
  13   -218.1578249 -0.151448E-01  0.185E-01    0.04       1.0  T
  14   -218.1545313  0.329359E-02  0.207E-01    0.03       1.0  T
  15   -218.1618380 -0.730668E-02  0.123E-01    0.04       1.0  T
  16   -218.1624455 -0.607558E-03  0.110E-01    0.05       1.0  T
  17   -218.1633410 -0.895457E-03  0.826E-02    0.05       1.0  T
  18   -218.1641838 -0.842825E-03  0.371E-02    0.04       1.0  T
  19   -218.1645261 -0.342296E-03  0.159E-02    0.04       1.0  T
  20   -218.1645484 -0.223151E-04  0.114E-02    0.04       1.0  T
  21   -218.1645655 -0.171046E-04  0.716E-03    0.04       1.3  T
  22   -218.1645752 -0.971423E-05  0.273E-03    0.04       3.5  T
  23   -218.1645743  0.975976E-06  0.316E-03    0.04       3.0  T
  24   -218.1645765 -0.225808E-05  0.732E-04    0.04      13.0  T
  25   -218.1645765  0.677019E-08  0.621E-04    0.04      15.3  T
  26   -218.1645765  0.530636E-07  0.813E-04    0.04      11.7  T
     SCC iter.                  ...        0 min,  1.892 sec
     gradient                   ...        0 min,  0.041 sec
 * total energy  :  -215.5099569 Eh     change       -0.3862442E+00 Eh
   gradient norm :     0.4418779 Eh/α   predicted    -0.3844180E+00 (  -0.47%)
   displ. norm   :     0.7189723 α      lambda       -0.2791951E+00
   maximum displ.:     0.1849372 α      in ANC's #223, #219, #212, ...

........................................................................
.............................. CYCLE    6 ..............................
........................................................................

 iter      E             dE          RMSdq      gap      omega  full diag
   1   -218.2318209 -0.218232E+03  0.717E-01    0.05       0.0  T
   2   -218.0850324  0.146789E+00  0.113E+00    0.15       1.0  T
   3   -217.6458310  0.439201E+00  0.153E+00    0.14       1.0  T
   4   -218.1430325 -0.497201E+00  0.750E-01    0.11       1.0  T
   5   -218.0675890  0.754435E-01  0.933E-01    0.05       1.0  T
   6   -218.1807990 -0.113210E+00  0.662E-01    0.06       1.0  T
   7   -218.1767781  0.402092E-02  0.745E-01    0.02       1.0  T
   8   -218.2503076 -0.735295E-01  0.364E-01    0.06       1.0  T
   9   -218.2404080  0.989959E-02  0.367E-01    0.04       1.0  T
  10   -218.2454980 -0.508999E-02  0.362E-01    0.04       1.0  T
  11   -218.2630402 -0.175422E-01  0.203E-01    0.07       1.0  T
  12   -218.2698784 -0.683824E-02  0.133E-01    0.04       1.0  T
  13   -218.2714887 -0.161031E-02  0.847E-02    0.05       1.0  T
  14   -218.2721669 -0.678219E-03  0.536E-02    0.05       1.0  T
  15   -218.2718853  0.281619E-03  0.588E-02    0.04       1.0  T
  16   -218.2725786 -0.693323E-03  0.292E-02    0.06       1.0  T
  17   -218.2727343 -0.155653E-03  0.162E-02    0.05       1.0  T
  18   -218.2727956 -0.613551E-04  0.695E-03    0.05       1.4  T
  19   -218.2728028 -0.713119E-05  0.445E-03    0.05       2.1  T
  20   -218.2728055 -0.275689E-05  0.289E-03    0.05       3.3  T
  21   -218.2728075 -0.195738E-05  0.658E-04    0.05      14.4  T
  22   -218.2728075  0.401133E-07  0.773E-04    0.05      12.3  T
  23   -218.2728076 -0.132365E-06  0.250E-04    0.05      38.0  T
     SCC iter.                  ...        0 min,  1.615 sec
     gradient                   ...        0 min,  0.040 sec
 * total energy  :  -215.7221383 Eh     change       -0.2121813E+00 Eh
   gradient norm :     0.3334690 Eh/α   predicted    -0.2117585E+00 (  -0.20%)
   displ. norm   :     0.6363994 α      lambda       -0.1411463E+00
   maximum displ.:     0.1287574 α      in ANC's #146, #223, #212, ...

........................................................................
.............................. CYCLE    7 ..............................
........................................................................

 iter      E             dE          RMSdq      gap      omega  full diag
   1   -218.3208005 -0.218321E+03  0.527E-01    0.04       0.0  T
   2   -218.1044840  0.216317E+00  0.105E+00    0.17       1.0  T
   3   -218.0241701  0.803138E-01  0.114E+00    0.20       1.0  T
   4   -218.1049929 -0.808228E-01  0.108E+00    0.05       1.0  T
   5   -218.2847549 -0.179762E+00  0.497E-01    0.07       1.0  T
   6   -218.2971717 -0.124167E-01  0.406E-01    0.04       1.0  T
   7   -218.2662756  0.308961E-01  0.552E-01    0.02       1.0  T
   8   -218.2890351 -0.227595E-01  0.418E-01    0.12       1.0  T
   9   -218.3149923 -0.259572E-01  0.241E-01    0.08       1.0  T
  10   -218.3286336 -0.136414E-01  0.101E-01    0.05       1.0  T
  11   -218.3295542 -0.920589E-03  0.722E-02    0.05       1.0  T
  12   -218.3303360 -0.781816E-03  0.436E-02    0.05       1.0  T
  13   -218.3303901 -0.540474E-04  0.397E-02    0.06       1.0  T
  14   -218.3306022 -0.212088E-03  0.190E-02    0.05       1.0  T
  15   -218.3306295 -0.272992E-04  0.151E-02    0.05       1.0  T
  16   -218.3306691 -0.395870E-04  0.679E-03    0.05       1.4  T
  17   -218.3306710 -0.195919E-05  0.570E-03    0.05       1.7  T
  18   -218.3306777 -0.667164E-05  0.184E-03    0.05       5.2  T
  19   -218.3306781 -0.379581E-06  0.815E-04    0.05      11.7  T
  20   -218.3306780  0.456928E-07  0.770E-04    0.05      12.3  T
     SCC iter.                  ...        0 min,  1.481 sec
     gradient                   ...        0 min,  0.039 sec
 * total energy  :  -215.8299705 Eh     change       -0.1078322E+00 Eh
   gradient norm :     0.2740832 Eh/α   predicted    -0.9915561E-01 (  -8.05%)
   displ. norm   :     0.6060051 α      lambda       -0.8551536E-01
   maximum displ.:     0.1363274 α      in ANC's #55, #85, #146, ...

........................................................................
.............................. CYCLE    8 ..............................
........................................................................

 iter      E             dE          RMSdq      gap      omega  full diag
   1   -218.3669651 -0.218367E+03  0.503E-01    0.03       0.0  T
   2   -217.9163504  0.450615E+00  0.141E+00    0.13       1.0  T
   3   -218.1269656 -0.210615E+00  0.104E+00    0.19       1.0  T
   4   -218.2398321 -0.112867E+00  0.843E-01    0.05       1.0  T
   5   -218.3258978 -0.860657E-01  0.544E-01    0.05       1.0  T
   6   -218.2869822  0.389156E-01  0.656E-01    0.15       1.0  T
   7   -218.2879829 -0.100073E-02  0.662E-01    0.03       1.0  T
   8   -218.3579128 -0.699298E-01  0.343E-01    0.09       1.0  T
   9   -218.3774974 -0.195846E-01  0.155E-01    0.07       1.0  T
  10   -218.3742512  0.324615E-02  0.190E-01    0.08       1.0  T
  11   -218.3792042 -0.495302E-02  0.107E-01    0.06       1.0  T
  12   -218.3806854 -0.148112E-02  0.728E-02    0.04       1.0  T
  13   -218.3812086 -0.523235E-03  0.474E-02    0.05       1.0  T
  14   -218.3816591 -0.450515E-03  0.146E-02    0.04       1.0  T
  15   -218.3816893 -0.301919E-04  0.654E-03    0.04       1.5  T
  16   -218.3816962 -0.689155E-05  0.299E-03    0.05       3.2  T
  17   -218.3816971 -0.894897E-06  0.217E-03    0.05       4.4  T
  18   -218.3816978 -0.668523E-06  0.846E-04    0.05      11.2  T
  19   -218.3816977  0.573044E-07  0.836E-04    0.05      11.4  T
     SCC iter.                  ...        0 min,  1.234 sec
     gradient                   ...        0 min,  0.040 sec
 * total energy  :  -215.8968771 Eh     change       -0.6690657E-01 Eh
   gradient norm :     0.2108500 Eh/α   predicted    -0.5846012E-01 ( -12.62%)
   displ. norm   :     0.5737266 α      lambda       -0.5826199E-01
   maximum displ.:     0.1379332 α      in ANC's #55, #52, #83, ...

........................................................................
.............................. CYCLE    9 ..............................
........................................................................

 iter      E             dE          RMSdq      gap      omega  full diag
   1   -218.4033544 -0.218403E+03  0.519E-01    0.03       0.0  T
   2   -217.7032407  0.700114E+00  0.170E+00    0.04       1.0  T
   3   -218.0329908 -0.329750E+00  0.129E+00    0.16       1.0  T
   4   -218.3220678 -0.289077E+00  0.726E-01    0.08       1.0  T
   5   -218.3057992  0.162687E-01  0.775E-01    0.07       1.0  T
   6   -218.3389389 -0.331397E-01  0.616E-01    0.18       1.0  T
   7   -218.3924484 -0.535095E-01  0.426E-01    0.07       1.0  T
   8   -218.4058482 -0.133999E-01  0.308E-01    0.08       1.0  T
   9   -218.4079513 -0.210308E-02  0.310E-01    0.04       1.0  T
  10   -218.4222926 -0.143412E-01  0.170E-01    0.06       1.0  T
  11   -218.4238545 -0.156195E-02  0.137E-01    0.06       1.0  T
  12   -218.4272857 -0.343119E-02  0.558E-02    0.04       1.0  T
  13   -218.4277568 -0.471102E-03  0.224E-02    0.04       1.0  T
  14   -218.4278253 -0.684664E-04  0.664E-03    0.04       1.4  T
  15   -218.4278041  0.211230E-04  0.108E-02    0.04       1.0  T
  16   -218.4278267 -0.225103E-04  0.282E-03    0.04       3.4  T
  17   -218.4278254  0.123912E-05  0.408E-03    0.04       2.3  T
  18   -218.4278267 -0.127306E-05  0.305E-03    0.04       3.1  T
  19   -218.4278287 -0.199096E-05  0.545E-04    0.04      17.4  T
  20   -218.4278287  0.267298E-08  0.542E-04    0.04      17.5  T
  21   -218.4278287 -0.642946E-07  0.120E-04    0.04      79.0  T
     SCC iter.                  ...        0 min,  1.479 sec
     gradient                   ...        0 min,  0.039 sec
 * total energy  :  -215.9407512 Eh     change       -0.4387411E-01 Eh
   gradient norm :     0.1296455 Eh/α   predicted    -0.3871981E-01 ( -11.75%)
   displ. norm   :     0.5352774 α      lambda       -0.3226532E-01
   maximum displ.:     0.1250932 α      in ANC's #52, #17, #55, ...

........................................................................
.............................. CYCLE   10 ..............................
........................................................................

 iter      E             dE          RMSdq      gap      omega  full diag
   1   -218.4332197 -0.218433E+03  0.454E-01    0.04       0.0  T
   2   -217.6612725  0.771947E+00  0.178E+00    0.04       1.0  T
   3   -218.1952462 -0.533974E+00  0.105E+00    0.14       1.0  T
   4   -218.3796549 -0.184409E+00  0.625E-01    0.08       1.0  T
   5   -218.3512777  0.283772E-01  0.702E-01    0.05       1.0  T
   6   -218.3703172 -0.190395E-01  0.598E-01    0.15       1.0  T
   7   -218.4292762 -0.589590E-01  0.373E-01    0.07       1.0  T
   8   -218.4419910 -0.127148E-01  0.254E-01    0.05       1.0  T
   9   -218.4472652 -0.527421E-02  0.215E-01    0.05       1.0  T
  10   -218.4531688 -0.590363E-02  0.131E-01    0.04       1.0  T
  11   -218.4542704 -0.110153E-02  0.104E-01    0.04       1.0  T
  12   -218.4564226 -0.215227E-02  0.235E-02    0.03       1.0  T
  13   -218.4564585 -0.358508E-04  0.154E-02    0.03       1.0  T
  14   -218.4564916 -0.331646E-04  0.575E-03    0.03       1.7  T
  15   -218.4564963 -0.465381E-05  0.206E-03    0.03       4.6  T
  16   -218.4564949  0.144533E-05  0.297E-03    0.03       3.2  T
  17   -218.4564962 -0.137147E-05  0.188E-03    0.03       5.1  T
  18   -218.4564963 -0.731814E-07  0.164E-03    0.03       5.8  T
  19   -218.4564968 -0.495495E-06  0.519E-04    0.03      18.3  T
  20   -218.4564968 -0.534075E-07  0.155E-04    0.03      61.2  T
     SCC iter.                  ...        0 min,  1.101 sec
     gradient                   ...        0 min,  0.039 sec
 * total energy  :  -215.9641859 Eh     change       -0.2343471E-01 Eh
   gradient norm :     0.0722924 Eh/α   predicted    -0.2075503E-01 ( -11.43%)
   displ. norm   :     0.5594056 α      lambda       -0.1731853E-01
   maximum displ.:     0.1633260 α      in ANC's #17, #18, #27, ...

........................................................................
.............................. CYCLE   11 ..............................
........................................................................

 iter      E             dE          RMSdq      gap      omega  full diag
   1   -218.4543720 -0.218454E+03  0.327E-01    0.03       0.0  T
   2   -217.8412711  0.613101E+00  0.160E+00    0.08       1.0  T
   3   -218.3942749 -0.553004E+00  0.555E-01    0.10       1.0  T
   4   -218.3993308 -0.505587E-02  0.576E-01    0.03       1.0  T
   5   -218.4410399 -0.417091E-01  0.311E-01    0.06       1.0  T
   6   -218.4480829 -0.704296E-02  0.305E-01    0.02       1.0  T
   7   -218.4532642 -0.518135E-02  0.247E-01    0.05       1.0  T
   8   -218.4615053 -0.824103E-02  0.150E-01    0.03       1.0  T
   9   -218.4613336  0.171620E-03  0.170E-01    0.03       1.0  T
  10   -218.4661874 -0.485380E-02  0.431E-02    0.02       1.0  T
  11   -218.4658928  0.294683E-03  0.558E-02    0.03       1.0  T
  12   -218.4665078 -0.615015E-03  0.837E-03    0.02       1.1  T
  13   -218.4665083 -0.537724E-06  0.675E-03    0.02       1.4  T
  14   -218.4665120 -0.366180E-05  0.677E-03    0.02       1.4  T
  15   -218.4665170 -0.503852E-05  0.407E-03    0.02       2.3  T
  16   -218.4665201 -0.310221E-05  0.125E-03    0.02       7.6  T
  17   -218.4665203 -0.228485E-06  0.576E-04    0.02      16.5  T
  18   -218.4665204 -0.564281E-07  0.234E-04    0.02      40.6  T
     SCC iter.                  ...        0 min,  1.234 sec
     gradient                   ...        0 min,  0.037 sec
 * total energy  :  -215.9776732 Eh     change       -0.1348734E-01 Eh
   gradient norm :     0.0561230 Eh/α   predicted    -0.1136906E-01 ( -15.71%)
   displ. norm   :     0.6239979 α      lambda       -0.1306158E-01
   maximum displ.:     0.2157978 α      in ANC's #17, #18, #13, ...

........................................................................
.............................. CYCLE   12 ..............................
........................................................................

 iter      E             dE          RMSdq      gap      omega  full diag
   1   -218.4740253 -0.218474E+03  0.234E-01    0.03       0.0  T
   2   -217.9852255  0.488800E+00  0.146E+00    0.15       1.0  T
   3   -218.4392829 -0.454057E+00  0.416E-01    0.07       1.0  T
   4   -218.3927561  0.465268E-01  0.646E-01    0.05       1.0  T
   5   -218.4594258 -0.666697E-01  0.321E-01    0.03       1.0  T
   6   -218.4741695 -0.147437E-01  0.143E-01    0.03       1.0  T
   7   -218.4749698 -0.800328E-03  0.141E-01    0.03       1.0  T
   8   -218.4764176 -0.144782E-02  0.101E-01    0.03       1.0  T
   9   -218.4766255 -0.207900E-03  0.107E-01    0.02       1.0  T
  10   -218.4785513 -0.192584E-02  0.281E-02    0.02       1.0  T
  11   -218.4785518 -0.453309E-06  0.281E-02    0.02       1.0  T
  12   -218.4787011 -0.149275E-03  0.811E-03    0.02       1.2  T
  13   -218.4787102 -0.910806E-05  0.432E-03    0.02       2.2  T
  14   -218.4787135 -0.332612E-05  0.154E-03    0.02       6.1  T
  15   -218.4787139 -0.355348E-06  0.847E-04    0.02      11.2  T
  16   -218.4787140 -0.996406E-07  0.384E-04    0.02      24.7  T
     SCC iter.                  ...        0 min,  0.937 sec
     gradient                   ...        0 min,  0.039 sec
 * total energy  :  -215.9882603 Eh     change       -0.1058707E-01 Eh
   gradient norm :     0.0498812 Eh/α   predicted    -0.9073708E-02 ( -14.29%)
   displ. norm   :     0.6792293 α      lambda       -0.1077940E-01
   maximum displ.:     0.2542386 α      in ANC's #17, #18, #33, ...

........................................................................
.............................. CYCLE   13 ..............................
........................................................................

 iter      E             dE          RMSdq      gap      omega  full diag
   1   -218.4930538 -0.218493E+03  0.181E-01    0.02       0.0  T
   2   -218.2544504  0.238603E+00  0.106E+00    0.24       1.0  T
   3   -218.4460201 -0.191570E+00  0.472E-01    0.09       1.0  T
   4   -218.4321589  0.138613E-01  0.559E-01    0.05       1.0  T
   5   -218.4607056 -0.285468E-01  0.431E-01    0.02       1.0  T
   6   -218.4900777 -0.293720E-01  0.145E-01    0.02       1.0  T
   7   -218.4899473  0.130371E-03  0.141E-01    0.03       1.0  T
   8   -218.4937812 -0.383390E-02  0.720E-02    0.02       1.0  T
   9   -218.4940889 -0.307689E-03  0.533E-02    0.02       1.0  T
  10   -218.4939683  0.120577E-03  0.551E-02    0.02       1.0  T
  11   -218.4946208 -0.652459E-03  0.112E-02    0.02       1.0  T
  12   -218.4946339 -0.131632E-04  0.601E-03    0.02       1.6  T
  13   -218.4946386 -0.464921E-05  0.398E-03    0.02       2.4  T
  14   -218.4946412 -0.258974E-05  0.203E-03    0.02       4.7  T
  15   -218.4946418 -0.676910E-06  0.937E-04    0.02      10.1  T
  16   -218.4946420 -0.160643E-06  0.275E-04    0.02      34.5  T
     SCC iter.                  ...        0 min,  1.025 sec
     gradient                   ...        0 min,  0.038 sec
 * total energy  :  -215.9972641 Eh     change       -0.9003846E-02 Eh
   gradient norm :     0.0468913 Eh/α   predicted    -0.7876252E-02 ( -12.52%)
   displ. norm   :     0.7205500 α      lambda       -0.9318261E-02
   maximum displ.:     0.2793365 α      in ANC's #17, #18, #33, ...

........................................................................
.............................. CYCLE   14 ..............................
........................................................................

 iter      E             dE          RMSdq      gap      omega  full diag
   1   -218.5100732 -0.218510E+03  0.171E-01    0.02       0.0  T
   2   -218.4826210  0.274522E-01  0.381E-01    0.03       1.0  T
   3   -218.4649496  0.176715E-01  0.458E-01    0.08       1.0  T
   4   -218.4530248  0.119247E-01  0.536E-01    0.08       1.0  T
   5   -218.4811461 -0.281213E-01  0.386E-01    0.04       1.0  T
   6   -218.5054435 -0.242975E-01  0.164E-01    0.03       1.0  T
   7   -218.5082935 -0.284994E-02  0.102E-01    0.02       1.0  T
   8   -218.5111153 -0.282186E-02  0.350E-02    0.02       1.0  T
   9   -218.5112023 -0.869852E-04  0.289E-02    0.02       1.0  T
  10   -218.5112775 -0.752027E-04  0.178E-02    0.02       1.0  T
  11   -218.5113332 -0.557127E-04  0.804E-03    0.02       1.2  T
  12   -218.5113374 -0.416309E-05  0.599E-03    0.02       1.6  T
  13   -218.5113449 -0.751250E-05  0.142E-03    0.02       6.7  T
  14   -218.5113448  0.906570E-07  0.142E-03    0.02       6.7  T
  15   -218.5113450 -0.156452E-06  0.105E-03    0.02       9.0  T
  16   -218.5113452 -0.229702E-06  0.182E-04    0.02      52.1  T
  17   -218.5113452 -0.174123E-08  0.129E-04    0.02      73.6  T
     SCC iter.                  ...        0 min,  1.026 sec
     gradient                   ...        0 min,  0.038 sec
 * total energy  :  -216.0052049 Eh     change       -0.7940803E-02 Eh
   gradient norm :     0.0444444 Eh/α   predicted    -0.7078123E-02 ( -10.86%)
   displ. norm   :     0.7454207 α      lambda       -0.8140646E-02
   maximum displ.:     0.2898646 α      in ANC's #17, #18, #9, ...

........................................................................
.............................. CYCLE   15 ..............................
........................................................................

 iter      E             dE          RMSdq      gap      omega  full diag
   1   -218.5213800 -0.218521E+03  0.195E-01    0.02       0.0  T
   2   -218.3387947  0.182585E+00  0.928E-01    0.28       1.0  T
   3   -218.4521554 -0.113361E+00  0.595E-01    0.12       1.0  T
   4   -218.5117944 -0.596390E-01  0.272E-01    0.02       1.0  T
   5   -218.4853898  0.264046E-01  0.469E-01    0.01       1.0  T
   6   -218.5229149 -0.375252E-01  0.859E-02    0.03       1.0  T
   7   -218.5220452  0.869784E-03  0.915E-02    0.02       1.0  T
   8   -218.5242878 -0.224267E-02  0.346E-02    0.02       1.0  T
   9   -218.5240152  0.272663E-03  0.479E-02    0.02       1.0  T
  10   -218.5245060 -0.490797E-03  0.169E-02    0.02       1.0  T
  11   -218.5245457 -0.397796E-04  0.961E-03    0.02       1.0  T
  12   -218.5245525 -0.672015E-05  0.648E-03    0.02       1.5  T
  13   -218.5245578 -0.532000E-05  0.334E-03    0.02       2.8  T
  14   -218.5245598 -0.203000E-05  0.126E-03    0.02       7.5  T
  15   -218.5245600 -0.204062E-06  0.672E-04    0.02      14.1  T
  16   -218.5245601 -0.840570E-07  0.221E-04    0.02      42.9  T
     SCC iter.                  ...        0 min,  1.220 sec
     gradient                   ...        0 min,  0.037 sec
 * total energy  :  -216.0121770 Eh     change       -0.6972017E-02 Eh
   gradient norm :     0.0402639 Eh/α   predicted    -0.6332011E-02 (  -9.18%)
   displ. norm   :     0.7541860 α      lambda       -0.6926165E-02
   maximum displ.:     0.2938971 α      in ANC's #17, #18, #9, ...

........................................................................
.............................. CYCLE   16 ..............................
........................................................................

 iter      E             dE          RMSdq      gap      omega  full diag
   1   -218.5275262 -0.218528E+03  0.235E-01    0.03       0.0  T
   2   -218.0617982  0.465728E+00  0.145E+00    0.32       1.0  T
   3   -218.4916393 -0.429841E+00  0.454E-01    0.06       1.0  T
   4   -218.5139533 -0.223140E-01  0.307E-01    0.03       1.0  T
   5   -218.4917848  0.221685E-01  0.414E-01    0.02       1.0  T
   6   -218.5244747 -0.326900E-01  0.232E-01    0.02       1.0  T
   7   -218.5321985 -0.772373E-02  0.107E-01    0.02       1.0  T
   8   -218.5334194 -0.122093E-02  0.645E-02    0.02       1.0  T
   9   -218.5326130  0.806385E-03  0.842E-02    0.03       1.0  T
  10   -218.5339896 -0.137660E-02  0.305E-02    0.02       1.0  T
  11   -218.5340912 -0.101609E-03  0.171E-02    0.02       1.0  T
  12   -218.5341282 -0.369728E-04  0.971E-03    0.02       1.0  T
  13   -218.5341314 -0.325168E-05  0.781E-03    0.02       1.2  T
  14   -218.5341420 -0.105183E-04  0.203E-03    0.02       4.7  T
  15   -218.5341417  0.288907E-06  0.205E-03    0.02       4.6  T
  16   -218.5341424 -0.748856E-06  0.931E-04    0.02      10.2  T
  17   -218.5341424 -0.299589E-07  0.838E-04    0.02      11.3  T
     SCC iter.                  ...        0 min,  1.014 sec
     gradient                   ...        0 min,  0.043 sec
 * total energy  :  -216.0180979 Eh     change       -0.5920943E-02 Eh
   gradient norm :     0.0360419 Eh/α   predicted    -0.5432876E-02 (  -8.24%)
   displ. norm   :     0.7525589 α      lambda       -0.5810374E-02
   maximum displ.:     0.2893431 α      in ANC's #17, #18, #9, ...

........................................................................
.............................. CYCLE   17 ..............................
........................................................................

 iter      E             dE          RMSdq      gap      omega  full diag
   1   -218.5294782 -0.218529E+03  0.278E-01    0.05       0.0  T
   2   -217.9457433  0.583735E+00  0.160E+00    0.28       1.0  T
   3   -218.5022133 -0.556470E+00  0.419E-01    0.06       1.0  T
   4   -218.5068779 -0.466467E-02  0.398E-01    0.04       1.0  T
   5   -218.4925729  0.143050E-01  0.405E-01    0.02       1.0  T
   6   -218.5334308 -0.408579E-01  0.199E-01    0.03       1.0  T
   7   -218.5367112 -0.328040E-02  0.138E-01    0.02       1.0  T
   8   -218.5393064 -0.259523E-02  0.661E-02    0.03       1.0  T
   9   -218.5383286  0.977767E-03  0.904E-02    0.02       1.0  T
  10   -218.5394969 -0.116824E-02  0.480E-02    0.03       1.0  T
  11   -218.5398378 -0.340881E-03  0.276E-02    0.03       1.0  T
  12   -218.5399159 -0.781329E-04  0.190E-02    0.02       1.0  T
  13   -218.5399531 -0.371760E-04  0.107E-02    0.02       1.0  T
  14   -218.5399682 -0.151632E-04  0.549E-03    0.02       1.7  T
  15   -218.5399709 -0.265007E-05  0.350E-03    0.02       2.7  T
  16   -218.5399732 -0.231095E-05  0.149E-03    0.02       6.4  T
  17   -218.5399735 -0.348907E-06  0.530E-04    0.02      17.9  T
  18   -218.5399736 -0.241632E-07  0.389E-04    0.02      24.4  T
     SCC iter.                  ...        0 min,  1.120 sec
     gradient                   ...        0 min,  0.039 sec
 * total energy  :  -216.0230979 Eh     change       -0.4999968E-02 Eh
   gradient norm :     0.0317661 Eh/α   predicted    -0.4550542E-02 (  -8.99%)
   displ. norm   :     0.7618058 α      lambda       -0.5168449E-02
   maximum displ.:     0.2910602 α      in ANC's #17, #9, #18, ...

........................................................................
.............................. CYCLE   18 ..............................
........................................................................

 iter      E             dE          RMSdq      gap      omega  full diag
   1   -218.5309814 -0.218531E+03  0.319E-01    0.06       0.0  T
   2   -217.8749643  0.656017E+00  0.167E+00    0.22       1.0  T
   3   -218.5070028 -0.632039E+00  0.413E-01    0.06       1.0  T
   4   -218.5051369  0.186584E-02  0.453E-01    0.04       1.0  T
   5   -218.4606997  0.444372E-01  0.517E-01    0.04       1.0  T
   6   -218.5402790 -0.795793E-01  0.169E-01    0.04       1.0  T
   7   -218.5386125  0.166652E-02  0.193E-01    0.02       1.0  T
   8   -218.5439242 -0.531171E-02  0.883E-02    0.03       1.0  T
   9   -218.5441480 -0.223844E-03  0.805E-02    0.02       1.0  T
  10   -218.5443397 -0.191666E-03  0.661E-02    0.04       1.0  T
  11   -218.5449388 -0.599162E-03  0.403E-02    0.03       1.0  T
  12   -218.5451295 -0.190667E-03  0.261E-02    0.03       1.0  T
  13   -218.5452106 -0.811283E-04  0.132E-02    0.03       1.0  T
  14   -218.5452225 -0.118661E-04  0.100E-02    0.03       1.0  T
  15   -218.5452351 -0.125750E-04  0.528E-03    0.03       1.8  T
  16   -218.5452406 -0.555616E-05  0.120E-03    0.03       7.9  T
  17   -218.5452408 -0.181987E-06  0.563E-04    0.03      16.9  T
  18   -218.5452409 -0.385457E-07  0.356E-04    0.03      26.7  T
     SCC iter.                  ...        0 min,  1.083 sec
     gradient                   ...        0 min,  0.040 sec
 * total energy  :  -216.0276738 Eh     change       -0.4575954E-02 Eh
   gradient norm :     0.0327576 Eh/α   predicted    -0.4083978E-02 ( -10.75%)
   displ. norm   :     0.7964380 α      lambda       -0.5272484E-02
   maximum displ.:     0.2890929 α      in ANC's #17, #9, #8, ...

........................................................................
.............................. CYCLE   19 ..............................
........................................................................

 iter      E             dE          RMSdq      gap      omega  full diag
   1   -218.5278291 -0.218528E+03  0.389E-01    0.07       0.0  T
   2   -217.7797420  0.748087E+00  0.175E+00    0.19       1.0  T
   3   -218.4840992 -0.704357E+00  0.539E-01    0.11       1.0  T
   4   -218.4687962  0.153030E-01  0.630E-01    0.05       1.0  T
   5   -218.4140728  0.547234E-01  0.639E-01    0.06       1.0  T
   6   -218.5364215 -0.122349E+00  0.221E-01    0.06       1.0  T
   7   -218.5395504 -0.312891E-02  0.226E-01    0.04       1.0  T
   8   -218.5462267 -0.667638E-02  0.108E-01    0.04       1.0  T
   9   -218.5467772 -0.550448E-03  0.873E-02    0.04       1.0  T
  10   -218.5457157  0.106144E-02  0.909E-02    0.05       1.0  T
  11   -218.5465774 -0.861632E-03  0.836E-02    0.03       1.0  T
  12   -218.5473753 -0.797912E-03  0.533E-02    0.04       1.0  T
  13   -218.5477049 -0.329636E-03  0.264E-02    0.04       1.0  T
  14   -218.5477954 -0.905150E-04  0.173E-02    0.04       1.0  T
  15   -218.5478448 -0.493835E-04  0.626E-03    0.04       1.5  T
  16   -218.5478517 -0.686168E-05  0.148E-03    0.04       6.4  T
  17   -218.5478519 -0.197044E-06  0.938E-04    0.04      10.1  T
  18   -218.5478521 -0.178956E-06  0.355E-04    0.04      26.7  T
     SCC iter.                  ...        0 min,  1.171 sec
     gradient                   ...        0 min,  0.040 sec
 * total energy  :  -216.0325580 Eh     change       -0.4884228E-02 Eh
   gradient norm :     0.0324492 Eh/α   predicted    -0.4308451E-02 ( -11.79%)
   displ. norm   :     0.8626195 α      lambda       -0.6274516E-02
   maximum displ.:     0.3025779 α      in ANC's #17, #9, #8, ...

........................................................................
.............................. CYCLE   20 ..............................
........................................................................

 iter      E             dE          RMSdq      gap      omega  full diag
   1   -218.5274767 -0.218527E+03  0.437E-01    0.06       0.0  T
   2   -217.7497841  0.777693E+00  0.177E+00    0.19       1.0  T
   3   -218.4357347 -0.685951E+00  0.714E-01    0.19       1.0  T
   4   -218.4179430  0.177916E-01  0.758E-01    0.06       1.0  T
   5   -218.4410885 -0.231454E-01  0.586E-01    0.02       1.0  T
   6   -218.5226808 -0.815923E-01  0.357E-01    0.11       1.0  T
   7   -218.5451908 -0.225100E-01  0.163E-01    0.06       1.0  T
   8   -218.5428876  0.230320E-02  0.164E-01    0.07       1.0  T
   9   -218.5457493 -0.286175E-02  0.144E-01    0.06       1.0  T
  10   -218.5466327 -0.883342E-03  0.113E-01    0.06       1.0  T
  11   -218.5470556 -0.422948E-03  0.104E-01    0.05       1.0  T
  12   -218.5483440 -0.128837E-02  0.540E-02    0.05       1.0  T
  13   -218.5486659 -0.321873E-03  0.208E-02    0.05       1.0  T
  14   -218.5486993 -0.334556E-04  0.128E-02    0.05       1.0  T
  15   -218.5487256 -0.263172E-04  0.604E-03    0.05       1.6  T
  16   -218.5487321 -0.640786E-05  0.298E-03    0.05       3.2  T
  17   -218.5487332 -0.119317E-05  0.126E-03    0.05       7.5  T
  18   -218.5487337 -0.428385E-06  0.513E-04    0.05      18.5  T
  19   -218.5487337 -0.350590E-07  0.160E-04    0.05      59.5  T
     SCC iter.                  ...        0 min,  1.272 sec
     gradient                   ...        0 min,  0.038 sec
 * total energy  :  -216.0387938 Eh     change       -0.6235728E-02 Eh
   gradient norm :     0.0396451 Eh/α   predicted    -0.5471735E-02 ( -12.25%)
   displ. norm   :     0.8621345 α      lambda       -0.6794277E-02
   maximum displ.:     0.2998220 α      in ANC's #17, #9, #8, ...
 * RMSD in coord.:     0.8623749 α      energy gain  -0.4359571E+01 Eh

generating ANC from exact Hessian ...
Using Lindh-Hessian (1995)
 Shifting diagonal of input Hessian by    9.9405099776695652E-003
 Lowest  eigenvalues of input Hessian
    0.000000    0.000000    0.000000    0.000000    0.000000    0.000000
    0.010000    0.010036    0.010122    0.010137    0.010236    0.010313
    0.010391    0.010458    0.010577    0.010605    0.010771    0.010812
 Highest eigenvalues
    2.657411    2.661974    2.690596    2.700252    2.703580    2.704809


........................................................................
.............................. CYCLE   21 ..............................
........................................................................

 iter      E             dE          RMSdq      gap      omega  full diag
   1   -218.5260394 -0.218526E+03  0.420E-01    0.04       0.0  T
   2   -218.2222633  0.303776E+00  0.110E+00    0.28       1.0  T
   3   -218.4512674 -0.229004E+00  0.640E-01    0.13       1.0  T
   4   -218.3321450  0.119122E+00  0.960E-01    0.08       1.0  T
   5   -218.3450294 -0.128844E-01  0.816E-01    0.13       1.0  T
   6   -218.4800999 -0.135071E+00  0.494E-01    0.12       1.0  T
   7   -218.4994819 -0.193820E-01  0.390E-01    0.06       1.0  T
   8   -218.5356738 -0.361919E-01  0.174E-01    0.07       1.0  T
   9   -218.5379616 -0.228782E-02  0.134E-01    0.07       1.0  T
  10   -218.5391312 -0.116963E-02  0.111E-01    0.06       1.0  T
  11   -218.5405166 -0.138537E-02  0.701E-02    0.06       1.0  T
  12   -218.5408998 -0.383187E-03  0.443E-02    0.05       1.0  T
  13   -218.5411973 -0.297530E-03  0.184E-02    0.05       1.0  T
  14   -218.5412608 -0.634300E-04  0.945E-03    0.05       1.0  T
  15   -218.5412773 -0.164911E-04  0.554E-03    0.05       1.7  T
  16   -218.5412815 -0.419811E-05  0.280E-03    0.05       3.4  T
  17   -218.5412828 -0.138317E-05  0.138E-03    0.05       6.9  T
  18   -218.5412834 -0.514178E-06  0.411E-04    0.05      23.1  T
  19   -218.5412834 -0.700010E-08  0.299E-04    0.05      31.8  T
     SCC iter.                  ...        0 min,  1.382 sec
     gradient                   ...        0 min,  0.039 sec
 * total energy  :  -216.0463929 Eh     change       -0.7599097E-02 Eh
   gradient norm :     0.0490956 Eh/α   predicted     0.0000000E+00 (-100.00%)
   displ. norm   :     0.5253616 α      lambda       -0.1122572E-01
   maximum displ.:     0.2397020 α      in ANC's #23, #34, #28, ...

........................................................................
.............................. CYCLE   22 ..............................
........................................................................

 iter      E             dE          RMSdq      gap      omega  full diag
   1   -218.5460800 -0.218546E+03  0.262E-01    0.03       0.0  T
   2   -218.3760559  0.170024E+00  0.879E-01    0.18       1.0  T
   3   -218.5087399 -0.132684E+00  0.481E-01    0.02       1.0  T
   4   -218.5167381 -0.799815E-02  0.393E-01    0.05       1.0  T
   5   -218.4661543  0.505838E-01  0.504E-01    0.09       1.0  T
   6   -218.5380527 -0.718984E-01  0.221E-01    0.05       1.0  T
   7   -218.5495532 -0.115005E-01  0.108E-01    0.05       1.0  T
   8   -218.5484587  0.109451E-02  0.114E-01    0.06       1.0  T
   9   -218.5507697 -0.231099E-02  0.616E-02    0.05       1.0  T
  10   -218.5512001 -0.430409E-03  0.422E-02    0.05       1.0  T
  11   -218.5513438 -0.143724E-03  0.229E-02    0.05       1.0  T
  12   -218.5514785 -0.134621E-03  0.857E-03    0.05       1.1  T
  13   -218.5514847 -0.626739E-05  0.587E-03    0.05       1.6  T
  14   -218.5514914 -0.672547E-05  0.344E-03    0.05       2.8  T
  15   -218.5514934 -0.196802E-05  0.129E-03    0.05       7.4  T
  16   -218.5514937 -0.312686E-06  0.600E-04    0.05      15.8  T
  17   -218.5514938 -0.744971E-07  0.288E-04    0.05      32.9  T
     SCC iter.                  ...        0 min,  1.079 sec
     gradient                   ...        0 min,  0.039 sec
 * total energy  :  -216.0569900 Eh     change       -0.1059715E-01 Eh
   gradient norm :     0.0404120 Eh/α   predicted    -0.7162785E-02 ( -32.41%)
   displ. norm   :     0.9119844 α      lambda       -0.1949492E-01
   maximum displ.:     0.4037368 α      in ANC's #23, #34, #24, ...

........................................................................
.............................. CYCLE   23 ..............................
........................................................................

 iter      E             dE          RMSdq      gap      omega  full diag
   1   -218.5256748 -0.218526E+03  0.542E-01    0.02       0.0  T
   2   -218.0471071  0.478568E+00  0.140E+00    0.49       1.0  T
   3   -218.4634666 -0.416359E+00  0.623E-01    0.08       1.0  T
   4   -218.3159275  0.147539E+00  0.831E-01    0.26       1.0  T
   5   -218.4420868 -0.126159E+00  0.614E-01    0.06       1.0  T
   6   -218.5296416 -0.875549E-01  0.276E-01    0.05       1.0  T
   7   -218.5469578 -0.173162E-01  0.133E-01    0.05       1.0  T
   8   -218.5489559 -0.199804E-02  0.996E-02    0.05       1.0  T
   9   -218.5495815 -0.625602E-03  0.613E-02    0.05       1.0  T
  10   -218.5492786  0.302879E-03  0.835E-02    0.05       1.0  T
  11   -218.5499505 -0.671929E-03  0.446E-02    0.05       1.0  T
  12   -218.5503693 -0.418804E-03  0.167E-02    0.05       1.0  T
  13   -218.5504031 -0.337872E-04  0.660E-03    0.05       1.4  T
  14   -218.5504100 -0.684530E-05  0.343E-03    0.05       2.8  T
  15   -218.5504121 -0.207859E-05  0.165E-03    0.05       5.7  T
  16   -218.5504123 -0.214348E-06  0.870E-04    0.05      10.9  T
  17   -218.5504122  0.676062E-07  0.102E-03    0.05       9.3  T
  18   -218.5504124 -0.216478E-06  0.267E-04    0.05      35.6  T
     SCC iter.                  ...        0 min,  1.147 sec
     gradient                   ...        0 min,  0.040 sec
 * total energy  :  -216.0766502 Eh     change       -0.1966021E-01 Eh
   gradient norm :     0.0547400 Eh/α   predicted    -0.1785459E-01 (  -9.18%)
   displ. norm   :     0.9034682 α      lambda       -0.2102304E-01
   maximum displ.:     0.4119709 α      in ANC's #23, #34, #24, ...

........................................................................
.............................. CYCLE   24 ..............................
........................................................................

 iter      E             dE          RMSdq      gap      omega  full diag
   1   -218.5325838 -0.218533E+03  0.438E-01    0.04       0.0  T
   2   -218.0374848  0.495099E+00  0.138E+00    0.42       1.0  T
   3   -218.4971922 -0.459707E+00  0.498E-01    0.04       1.0  T
   4   -218.4806748  0.165173E-01  0.503E-01    0.11       1.0  T
   5   -218.4337094  0.469654E-01  0.608E-01    0.17       1.0  T
   6   -218.5162672 -0.825578E-01  0.355E-01    0.03       1.0  T
   7   -218.5468290 -0.305617E-01  0.112E-01    0.06       1.0  T
   8   -218.5482649 -0.143594E-02  0.652E-02    0.06       1.0  T
   9   -218.5486364 -0.371517E-03  0.436E-02    0.06       1.0  T
  10   -218.5487532 -0.116791E-03  0.295E-02    0.06       1.0  T
  11   -218.5485446  0.208596E-03  0.426E-02    0.06       1.0  T
  12   -218.5488828 -0.338178E-03  0.101E-02    0.06       1.0  T
  13   -218.5488963 -0.135146E-04  0.614E-03    0.06       1.5  T
  14   -218.5489036 -0.725732E-05  0.310E-03    0.06       3.1  T
  15   -218.5489032  0.325316E-06  0.287E-03    0.06       3.3  T
  16   -218.5489049 -0.168158E-05  0.103E-03    0.06       9.3  T
  17   -218.5489050 -0.506294E-07  0.753E-04    0.06      12.6  T
  18   -218.5489051 -0.117396E-06  0.281E-04    0.06      33.7  T
     SCC iter.                  ...        0 min,  1.186 sec
     gradient                   ...        0 min,  0.039 sec
 * total energy  :  -216.0991863 Eh     change       -0.2253609E-01 Eh
   gradient norm :     0.0804539 Eh/α   predicted    -0.1909160E-01 ( -15.28%)
   displ. norm   :     0.8476279 α      lambda       -0.2435756E-01
   maximum displ.:     0.3901522 α      in ANC's #23, #34, #24, ...

........................................................................
.............................. CYCLE   25 ..............................
........................................................................

 iter      E             dE          RMSdq      gap      omega  full diag
   1   -218.5434742 -0.218543E+03  0.341E-01    0.06       0.0  T
   2   -218.1634669  0.380007E+00  0.120E+00    0.34       1.0  T
   3   -218.5192323 -0.355765E+00  0.410E-01    0.04       1.0  T
   4   -218.4589330  0.602993E-01  0.574E-01    0.17       1.0  T
   5   -218.4875150 -0.285820E-01  0.459E-01    0.12       1.0  T
   6   -218.5266126 -0.390976E-01  0.335E-01    0.08       1.0  T
   7   -218.5475931 -0.209805E-01  0.169E-01    0.07       1.0  T
   8   -218.5522046 -0.461150E-02  0.821E-02    0.07       1.0  T
   9   -218.5533456 -0.114092E-02  0.389E-02    0.07       1.0  T
  10   -218.5532695  0.760802E-04  0.380E-02    0.07       1.0  T
  11   -218.5532292  0.403188E-04  0.307E-02    0.07       1.0  T
  12   -218.5534458 -0.216689E-03  0.129E-02    0.07       1.0  T
  13   -218.5534818 -0.359768E-04  0.495E-03    0.07       1.9  T
  14   -218.5534803  0.156803E-05  0.476E-03    0.07       2.0  T
  15   -218.5534823 -0.205511E-05  0.309E-03    0.07       3.1  T
  16   -218.5534839 -0.155621E-05  0.145E-03    0.07       6.5  T
  17   -218.5534841 -0.269178E-06  0.706E-04    0.07      13.5  T
  18   -218.5534842 -0.963926E-07  0.267E-04    0.07      35.5  T
     SCC iter.                  ...        0 min,  1.228 sec
     gradient                   ...        0 min,  0.039 sec
 * total energy  :  -216.1248803 Eh     change       -0.2569399E-01 Eh
   gradient norm :     0.0967321 Eh/α   predicted    -0.2092895E-01 ( -18.55%)
   displ. norm   :     0.8085612 α      lambda       -0.2666372E-01
   maximum displ.:     0.3772931 α      in ANC's #23, #34, #24, ...

........................................................................
.............................. CYCLE   26 ..............................
........................................................................

 iter      E             dE          RMSdq      gap      omega  full diag
   1   -218.5550678 -0.218555E+03  0.286E-01    0.09       0.0  T
   2   -218.2595240  0.295544E+00  0.105E+00    0.28       1.0  T
   3   -218.5432624 -0.283738E+00  0.321E-01    0.08       1.0  T
   4   -218.4999476  0.433148E-01  0.448E-01    0.13       1.0  T
   5   -218.5056414 -0.569388E-02  0.428E-01    0.14       1.0  T
   6   -218.5543920 -0.487505E-01  0.208E-01    0.10       1.0  T
   7   -218.5572525 -0.286049E-02  0.152E-01    0.08       1.0  T
   8   -218.5611246 -0.387219E-02  0.775E-02    0.10       1.0  T
   9   -218.5622129 -0.108828E-02  0.354E-02    0.09       1.0  T
  10   -218.5623251 -0.112168E-03  0.299E-02    0.09       1.0  T
  11   -218.5622805  0.445785E-04  0.249E-02    0.09       1.0  T
  12   -218.5623739 -0.933716E-04  0.143E-02    0.09       1.0  T
  13   -218.5624197 -0.458125E-04  0.390E-03    0.09       2.4  T
  14   -218.5624200 -0.269789E-06  0.299E-03    0.09       3.2  T
  15   -218.5624212 -0.125486E-05  0.150E-03    0.09       6.3  T
  16   -218.5624215 -0.266596E-06  0.767E-04    0.09      12.4  T
  17   -218.5624216 -0.976174E-07  0.328E-04    0.09      28.9  T
     SCC iter.                  ...        0 min,  1.105 sec
     gradient                   ...        0 min,  0.039 sec
 * total energy  :  -216.1489959 Eh     change       -0.2411560E-01 Eh
   gradient norm :     0.0959568 Eh/α   predicted    -0.2204785E-01 (  -8.57%)
   displ. norm   :     0.7698246 α      lambda       -0.4163802E-01
   maximum displ.:     0.2241830 α      in ANC's #23, #34, #54, ...

........................................................................
.............................. CYCLE   27 ..............................
........................................................................

 iter      E             dE          RMSdq      gap      omega  full diag
   1   -218.5887143 -0.218589E+03  0.437E-01    0.11       0.0  T
   2   -218.3400138  0.248701E+00  0.102E+00    0.16       1.0  T
   3   -218.5518547 -0.211841E+00  0.511E-01    0.12       1.0  T
   4   -218.3367497  0.215105E+00  0.113E+00    0.09       1.0  T
   5   -218.5672713 -0.230522E+00  0.378E-01    0.17       1.0  T
   6   -218.4863228  0.809485E-01  0.583E-01    0.20       1.0  T
   7   -218.5688960 -0.825732E-01  0.337E-01    0.16       1.0  T
   8   -218.5928002 -0.239042E-01  0.182E-01    0.13       1.0  T
   9   -218.5967650 -0.396473E-02  0.126E-01    0.12       1.0  T
  10   -218.5982987 -0.153374E-02  0.953E-02    0.12       1.0  T
  11   -218.5992054 -0.906729E-03  0.606E-02    0.12       1.0  T
  12   -218.5997770 -0.571587E-03  0.270E-02    0.12       1.0  T
  13   -218.5998788 -0.101731E-03  0.129E-02    0.12       1.0  T
  14   -218.5999054 -0.266736E-04  0.484E-03    0.12       2.0  T
  15   -218.5999054  0.592294E-07  0.476E-03    0.12       2.0  T
  16   -218.5999098 -0.441996E-05  0.145E-03    0.12       6.6  T
  17   -218.5999097  0.127683E-06  0.140E-03    0.12       6.8  T
  18   -218.5999101 -0.468172E-06  0.453E-04    0.12      20.9  T
  19   -218.5999101 -0.149543E-07  0.395E-04    0.12      24.0  T
     SCC iter.                  ...        0 min,  1.466 sec
     gradient                   ...        0 min,  0.040 sec
 * total energy  :  -216.1685447 Eh     change       -0.1954882E-01 Eh
   gradient norm :     0.0816210 Eh/α   predicted    -0.3315698E-01 (  69.61%)
   displ. norm   :     0.6885303 α      lambda       -0.2504803E-01
   maximum displ.:     0.3247251 α      in ANC's #23, #34, #25, ...

........................................................................
.............................. CYCLE   28 ..............................
........................................................................

 iter      E             dE          RMSdq      gap      omega  full diag
   1   -218.6055852 -0.218606E+03  0.282E-01    0.13       0.0  T
   2   -218.4474601  0.158125E+00  0.869E-01    0.03       1.0  T
   3   -218.5916218 -0.144162E+00  0.305E-01    0.13       1.0  T
   4   -218.5899476  0.167421E-02  0.277E-01    0.16       1.0  T
   5   -218.5567516  0.331960E-01  0.389E-01    0.16       1.0  T
   6   -218.5959961 -0.392445E-01  0.209E-01    0.15       1.0  T
   7   -218.6011911 -0.519499E-02  0.174E-01    0.12       1.0  T
   8   -218.6064844 -0.529331E-02  0.810E-02    0.13       1.0  T
   9   -218.6073022 -0.817885E-03  0.506E-02    0.13       1.0  T
  10   -218.6075911 -0.288861E-03  0.325E-02    0.13       1.0  T
  11   -218.6077529 -0.161831E-03  0.123E-02    0.13       1.0  T
  12   -218.6077828 -0.298343E-04  0.349E-03    0.13       2.7  T
  13   -218.6077843 -0.156416E-05  0.211E-03    0.13       4.5  T
  14   -218.6077849 -0.580564E-06  0.143E-03    0.13       6.7  T
  15   -218.6077853 -0.346201E-06  0.746E-04    0.13      12.7  T
  16   -218.6077854 -0.987305E-07  0.401E-04    0.13      23.7  T
     SCC iter.                  ...        0 min,  1.103 sec
     gradient                   ...        0 min,  0.039 sec
 * total energy  :  -216.1904825 Eh     change       -0.2193778E-01 Eh
   gradient norm :     0.0672214 Eh/α   predicted    -0.1846132E-01 ( -15.85%)
   displ. norm   :     0.8191670 α      lambda       -0.3426682E-01
   maximum displ.:     0.2384973 α      in ANC's #23, #34, #25, ...

........................................................................
.............................. CYCLE   29 ..............................
........................................................................

 iter      E             dE          RMSdq      gap      omega  full diag
   1   -218.6120954 -0.218612E+03  0.403E-01    0.10       0.0  T
   2   -218.4228294  0.189266E+00  0.990E-01    0.03       1.0  T
   3   -218.5929403 -0.170111E+00  0.374E-01    0.12       1.0  T
   4   -218.2922525  0.300688E+00  0.127E+00    0.15       1.0  T
   5   -218.5672874 -0.275035E+00  0.436E-01    0.15       1.0  T
   6   -218.4662953  0.100992E+00  0.670E-01    0.23       1.0  T
   7   -218.6067046 -0.140409E+00  0.218E-01    0.12       1.0  T
   8   -218.6079967 -0.129210E-02  0.190E-01    0.11       1.0  T
   9   -218.6121251 -0.412834E-02  0.137E-01    0.11       1.0  T
  10   -218.6138338 -0.170872E-02  0.985E-02    0.11       1.0  T
  11   -218.6154850 -0.165123E-02  0.322E-02    0.11       1.0  T
  12   -218.6156305 -0.145413E-03  0.199E-02    0.11       1.0  T
  13   -218.6156982 -0.677400E-04  0.487E-03    0.11       2.0  T
  14   -218.6157024 -0.419556E-05  0.245E-03    0.11       3.9  T
  15   -218.6157033 -0.883334E-06  0.158E-03    0.11       6.0  T
  16   -218.6157036 -0.317333E-06  0.996E-04    0.11       9.5  T
  17   -218.6157037 -0.140079E-06  0.496E-04    0.11      19.1  T
     SCC iter.                  ...        0 min,  0.915 sec
     gradient                   ...        0 min,  0.041 sec
 * total energy  :  -216.2161406 Eh     change       -0.2565807E-01 Eh
   gradient norm :     0.0804643 Eh/α   predicted    -0.2863049E-01 (  11.58%)
   displ. norm   :     0.8785212 α      lambda       -0.3099382E-01
   maximum displ.:     0.3283975 α      in ANC's #23, #34, #25, ...

........................................................................
.............................. CYCLE   30 ..............................
........................................................................

 iter      E             dE          RMSdq      gap      omega  full diag
   1   -218.6207122 -0.218621E+03  0.272E-01    0.13       0.0  T
   2   -218.5997685  0.209437E-01  0.340E-01    0.15       1.0  T
   3   -218.5032839  0.964846E-01  0.724E-01    0.06       1.0  T
   4   -218.5709200 -0.676361E-01  0.427E-01    0.17       1.0  T
   5   -218.5565658  0.143542E-01  0.465E-01    0.25       1.0  T
   6   -218.6091758 -0.526100E-01  0.230E-01    0.15       1.0  T
   7   -218.6097253 -0.549523E-03  0.243E-01    0.15       1.0  T
   8   -218.6191860 -0.946063E-02  0.139E-01    0.14       1.0  T
   9   -218.6204371 -0.125113E-02  0.107E-01    0.14       1.0  T
  10   -218.6217530 -0.131590E-02  0.720E-02    0.14       1.0  T
  11   -218.6226594 -0.906410E-03  0.255E-02    0.14       1.0  T
  12   -218.6227951 -0.135713E-03  0.526E-03    0.14       1.8  T
  13   -218.6227976 -0.244108E-05  0.307E-03    0.14       3.1  T
  14   -218.6227985 -0.911975E-06  0.154E-03    0.14       6.1  T
  15   -218.6227990 -0.530816E-06  0.531E-04    0.14      17.9  T
  16   -218.6227988  0.248321E-06  0.104E-03    0.14       9.2  T
  17   -218.6227990 -0.251829E-06  0.414E-04    0.14      22.9  T
     SCC iter.                  ...        0 min,  0.941 sec
     gradient                   ...        0 min,  0.040 sec
 * total energy  :  -216.2456676 Eh     change       -0.2952707E-01 Eh
   gradient norm :     0.0871788 Eh/α   predicted    -0.2745740E-01 (  -7.01%)
   displ. norm   :     0.7808957 α      lambda       -0.3747110E-01
   maximum displ.:     0.2401841 α      in ANC's #34, #31, #23, ...

........................................................................
.............................. CYCLE   31 ..............................
........................................................................

 iter      E             dE          RMSdq      gap      omega  full diag
   1   -218.6393440 -0.218639E+03  0.294E-01    0.15       0.0  T
   2   -218.6007871  0.385569E-01  0.432E-01    0.20       1.0  T
   3   -218.5893602  0.114270E-01  0.529E-01    0.08       1.0  T
   4   -218.6289479 -0.395877E-01  0.279E-01    0.19       1.0  T
   5   -218.5580290  0.709189E-01  0.564E-01    0.12       1.0  T
   6   -218.6313099 -0.732808E-01  0.213E-01    0.16       1.0  T
   7   -218.6214435  0.986632E-02  0.272E-01    0.20       1.0  T
   8   -218.6425708 -0.211273E-01  0.758E-02    0.18       1.0  T
   9   -218.6437182 -0.114744E-02  0.330E-02    0.17       1.0  T
  10   -218.6438891 -0.170894E-03  0.122E-02    0.17       1.0  T
  11   -218.6438370  0.520987E-04  0.173E-02    0.17       1.0  T
  12   -218.6439197 -0.826817E-04  0.500E-03    0.17       1.9  T
  13   -218.6439238 -0.405822E-05  0.304E-03    0.17       3.1  T
  14   -218.6439253 -0.148593E-05  0.148E-03    0.17       6.4  T
  15   -218.6439257 -0.470209E-06  0.781E-04    0.17      12.2  T
  16   -218.6439258 -0.354179E-07  0.475E-04    0.17      20.0  T
     SCC iter.                  ...        0 min,  1.148 sec
     gradient                   ...        0 min,  0.039 sec
 * total energy  :  -216.2637967 Eh     change       -0.1812910E-01 Eh
   gradient norm :     0.0825044 Eh/α   predicted    -0.3016043E-01 (  66.36%)
   displ. norm   :     0.5218792 α      lambda       -0.2084739E-01
   maximum displ.:     0.1661973 α      in ANC's #23, #20, #31, ...

........................................................................
.............................. CYCLE   32 ..............................
........................................................................

 iter      E             dE          RMSdq      gap      omega  full diag
   1   -218.6732474 -0.218673E+03  0.209E-01    0.18       0.0  T
   2   -218.4373850  0.235862E+00  0.106E+00    0.06       1.0  T
   3   -218.6688254 -0.231440E+00  0.187E-01    0.17       1.0  T
   4   -218.5595979  0.109227E+00  0.572E-01    0.24       1.0  T
   5   -218.6643234 -0.104726E+00  0.199E-01    0.19       1.0  T
   6   -218.6712540 -0.693056E-02  0.160E-01    0.14       1.0  T
   7   -218.6715186 -0.264636E-03  0.136E-01    0.17       1.0  T
   8   -218.6756020 -0.408336E-02  0.346E-02    0.18       1.0  T
   9   -218.6757906 -0.188638E-03  0.245E-02    0.17       1.0  T
  10   -218.6758868 -0.961871E-04  0.118E-02    0.17       1.0  T
  11   -218.6758899 -0.303960E-05  0.882E-03    0.17       1.1  T
  12   -218.6758953 -0.545251E-05  0.678E-03    0.17       1.4  T
  13   -218.6759020 -0.668633E-05  0.335E-03    0.17       2.8  T
  14   -218.6759037 -0.167846E-05  0.139E-03    0.17       6.8  T
  15   -218.6759039 -0.212943E-06  0.767E-04    0.17      12.4  T
  16   -218.6759040 -0.966763E-07  0.297E-04    0.17      31.9  T
     SCC iter.                  ...        0 min,  0.940 sec
     gradient                   ...        0 min,  0.041 sec
 * total energy  :  -216.2788864 Eh     change       -0.1508964E-01 Eh
   gradient norm :     0.0448074 Eh/α   predicted    -0.1326268E-01 ( -12.11%)
   displ. norm   :     0.7827955 α      lambda       -0.1664905E-01
   maximum displ.:     0.2784631 α      in ANC's #18, #20, #31, ...

........................................................................
.............................. CYCLE   33 ..............................
........................................................................

 iter      E             dE          RMSdq      gap      omega  full diag
   1   -218.7111248 -0.218711E+03  0.209E-01    0.19       0.0  T
   2   -218.6354973  0.756275E-01  0.608E-01    0.05       1.0  T
   3   -218.7039429 -0.684456E-01  0.228E-01    0.19       1.0  T
[...]
     DOI: 10.1063/1.4959605
   
   in the mass-spec context:
   * V. Asgeirsson, C. Bauer and S. Grimme, Chem. Sci., 2017, 8, 4879.
     DOI: 10.1039/c7sc00601b
   * J. Koopman and S. Grimme, ACS Omega 2019, 4, 12, 15120-15133.
     DOI: 10.1021/acsomega.9b02011
   
   for metadynamics refer to:
   * S. Grimme, J. Chem. Theory Comput., 2019, 155, 2847-2862
     DOI: 10.1021/acs.jctc.9b00143
   
   for SPH calculations refer to:
   * S. Spicher and S. Grimme, J. Chem. Theory Comput., 2021, 17, 1701-1714
     DOI: 10.1021/acs.jctc.0c01306
   
   for ONIOM refer to:
   * C. Plett, A. Katbashev, S. Ehlert, S. Grimme, M. Bursch,
     Phys. Chem. Chem. Phys., 2023, 25, 17860-17868. DOI: 10.1039/D3CP02178E
   
   for DIPRO refer to:
   * J. Kohn, N. Gildemeister, S. Grimme, D. Fazzi, A. Hansen,
     J. Chem. Phys., 2023, just accepted.
   
   for PTB refer to:
   * S. Grimme, M. Mueller, A. Hansen, J. Chem. Phys., 2023, 158, 124111.
     DOI: 10.1063/5.0137838
   
   with help from (in alphabetical order)
   P. Atkinson, C. Bannwarth, F. Bohle, G. Brandenburg, E. Caldeweyher
   M. Checinski, S. Dohm, S. Ehlert, S. Ehrlich, I. Gerasimov, C. Hölzer
   A. Katbashev, J. Kohn, J. Koopman, C. Lavigne, S. Lehtola, F. März, M. Müller,
   F. Musil, H. Neugebauer, J. Pisarek, C. Plett, P. Pracht, F. Pultar,
   J. Seibert, P. Shushkov, S. Spicher, M. Stahn, M. Steiner, T. Strunk,
   J. Stückrath, T. Rose, and J. Unsleber
   
 * started run on 2024/12/10 at 16:16:32.078     
   ID    Z sym.   atoms
    1    6 C      1-9, 11, 12, 14-21, 26-34, 36, 37, 39-46, 54, 56, 60, 63,
                  66, 69, 71, 72, 74, 75, 112-120, 122, 123, 125-132,
                  137-145, 147, 148, 150-157, 165, 167, 171, 174, 177, 180,
                  182, 183, 185, 186
    2    7 N      10, 13, 35, 38, 70, 73, 121, 124, 146, 149, 181, 184
    3    8 O      22, 47, 52, 53, 55, 57-59, 61, 62, 64, 65, 67, 68, 133,
                  158, 163, 164, 166, 168-170, 172, 173, 175, 176, 178, 179
    4   16 S      23-25, 48-50, 134-136, 159-161
    5    5 B      51, 162
    6    1 H      76-111, 187-222

           -------------------------------------------------
          |                Calculation Setup                |
           -------------------------------------------------

          program call               : xtb opt_dimer.mol --dipro 0.3 --gfn 2 --chrg 0 --uhf 2 --input .xcontrol
          coordinate file            : opt_dimer.mol
          omp threads                :                     8


molecular fragmentation (1/2 indicates fragments):
111111111111111111111111111111111111111111111111111111111111111111111111
111111111111111111111111111111111111111222222222222222222222222222222222
222222222222222222222222222222222222222222222222222222222222222222222222
222222
# atoms in fragment 1/2:   111   111
 fragment masses (1/2) :     1124.03     1124.03
CMA distance (Bohr)    :  13.025
constraining FC (au)   :  0.0500

           -------------------------------------------------
          |                 G F N 2 - x T B                 |
           -------------------------------------------------

        Reference                      10.1021/acs.jctc.8b01176
      * Hamiltonian:
        H0-scaling (s, p, d)           1.850000    2.230000    2.230000
        zeta-weighting                 0.500000
      * Dispersion:
        s8                             2.700000
        a1                             0.520000
        a2                             5.000000
        s9                             5.000000
      * Repulsion:
        kExp                           1.500000    1.000000
        rExp                           1.000000
      * Coulomb:
        alpha                          2.000000
        third order                    shell-resolved
        anisotropic                    true
        a3                             3.000000
        a5                             4.000000
        cn-shift                       1.200000
        cn-exp                         4.000000
        max-rad                        5.000000

q/qsh data taken from xtbrestart
CAMM data taken from xtbrestart
           -------------------------------------------------
          |                    D I P R O                    |
           -------------------------------------------------
Calculation for dimer 
--------------------- 
  
charge of dimer :   0.
unpaired e- of dimer :  2
repulsion energy          4.9261900226464E+00 Eh
dispersion energy         3.6277960028310E-02 Eh
number of electrons       7.6200000000000E+02 e
integral cutoff           1.9311100799991E+01 bohr

------------------------------------------------------------
  cycle        total energy    energy error   density error
------------------------------------------------------------
      1     -430.6611628267  -4.3562363E+02   2.3414397E-01
      2     -431.9953925302  -1.3342297E+00   1.2227541E-01
      3     -424.6595142545   7.3358783E+00   1.0817627E-01
      4     -422.2042474908   2.4552668E+00   9.7501815E-02
      5     -417.1514852408   5.0527623E+00   1.1634704E-01
      6     -432.0092319588  -1.4857747E+01   4.8480060E-02
      7     -432.2575514097  -2.4831945E-01   3.6925351E-02
      8     -432.6982160236  -4.4066461E-01   2.5376943E-02
      9     -432.6286142124   6.9601811E-02   2.3155439E-02
     10     -432.6598782921  -3.1264080E-02   2.0018526E-02
     11     -432.5734498135   8.6428479E-02   1.8940052E-02
     12     -432.8272337181  -2.5378390E-01   9.9600985E-03
     13     -432.8331152375  -5.8815194E-03   8.4041223E-03
     14     -432.8650227068  -3.1907469E-02   5.9154166E-03
     15     -432.8635973742   1.4253326E-03   5.8864530E-03
     16     -432.8634060641   1.9131005E-04   6.1270808E-03
     17     -432.8783041898  -1.4898126E-02   2.6931238E-03
     18     -432.8782095765   9.4613317E-05   2.1998316E-03
     19     -432.8800895201  -1.8799437E-03   1.2235437E-03
     20     -432.8808244281  -7.3490799E-04   5.8342908E-04
     21     -432.8809245327  -1.0010453E-04   2.5757170E-04
     22     -432.8809477337  -2.3201048E-05   1.6404385E-04
     23     -432.8809447650   2.9687496E-06   1.1899305E-04
     24     -432.8809553670  -1.0602092E-05   4.5636917E-05
     25     -432.8809556391  -2.7205760E-07   3.0339010E-05
     26     -432.8809558985  -2.5937879E-07   1.3744345E-05
------------------------------------------------------------

electronic energy        -4.3784342388115E+02 Eh
total energy             -4.3288095589848E+02 Eh

 total:                                   7.022 sec
 - repulsion                              0.000 sec (  0%)
 - dispersion                             0.015 sec (  0%)
 - coulomb                                0.005 sec (  0%)
 - hamiltonian                            0.019 sec (  0%)
 - scc                                    6.983 sec ( 99%)

Found 2 fragments!
Fragment 1:  1-111
Fragment 2:  112-222

[Info] Fragment spin read from .UHFfrag
Calculation for fragment 1
 ------------------------------
   
charge of fragment :   0.
unpaired e- of fragment :  1
------------------------------------------------------------
  cycle        total energy    energy error   density error
------------------------------------------------------------
      1     -215.2010473298  -2.1767146E+02   2.3616832E-01
      2     -215.9021828372  -7.0113551E-01   1.2512376E-01
      3     -214.1782362488   1.7239466E+00   9.4763681E-02
      4     -215.5614631008  -1.3832269E+00   6.6275102E-02
      5     -216.2656738735  -7.0421077E-01   3.2566606E-02
      6     -215.9991176925   2.6655618E-01   3.5504298E-02
      7     -216.1472656533  -1.4814796E-01   2.9152540E-02
      8     -216.3654546960  -2.1818904E-01   1.5105853E-02
      9     -216.3904614108  -2.5006715E-02   9.0413449E-03
     10     -216.3654389514   2.5022459E-02   1.0768926E-02
     11     -216.3905730466  -2.5134095E-02   6.0803022E-03
     12     -216.3964128822  -5.8398356E-03   2.5158550E-03
     13     -216.3965542881  -1.4140586E-04   1.6179920E-03
     14     -216.3969611073  -4.0681923E-04   8.2788125E-04
     15     -216.3970053199  -4.4212619E-05   5.6063094E-04
     16     -216.3970687603  -6.3440399E-05   2.0033370E-04
     17     -216.3970630194   5.7409300E-06   2.4306843E-04
     18     -216.3970731717  -1.0152316E-05   1.2206665E-04
     19     -216.3970767712  -3.5995022E-06   5.2138614E-05
     20     -216.3970767719  -6.7902306E-10   3.9879960E-05
     21     -216.3970770184  -2.4647693E-07   1.8282717E-05
------------------------------------------------------------

 total:                                   1.487 sec
Calculation for fragment 2
 ------------------------------
   
charge of fragment :   0.
unpaired e- of fragment :  1
------------------------------------------------------------
  cycle        total energy    energy error   density error
------------------------------------------------------------
      1     -215.2410410583  -2.1770836E+02   2.3148015E-01
      2     -216.0235711314  -7.8253007E-01   1.1968027E-01
      3     -214.3558023846   1.6677687E+00   9.1687512E-02
      4     -215.6016149382  -1.2458126E+00   6.3579858E-02
      5     -216.2475372358  -6.4592230E-01   3.3629583E-02
      6     -215.9371345393   3.1040270E-01   3.6503126E-02
      7     -216.0283506341  -9.1216095E-02   3.2759720E-02
      8     -216.3254352347  -2.9708460E-01   1.7448062E-02
      9     -216.3650189328  -3.9583698E-02   1.1652690E-02
     10     -216.3345680267   3.0450906E-02   1.4390537E-02
     11     -216.3721383905  -3.7570364E-02   9.0918977E-03
     12     -216.3813309805  -9.1925901E-03   5.5598472E-03
     13     -216.3819868907  -6.5591022E-04   4.2114868E-03
     14     -216.3841321373  -2.1452465E-03   1.9859483E-03
     15     -216.3847706087  -6.3847144E-04   8.0682711E-04
     16     -216.3846913839   7.9224845E-05   7.5646236E-04
     17     -216.3847893120  -9.7928067E-05   4.1039345E-04
     18     -216.3848138325  -2.4520559E-05   2.4541436E-04
     19     -216.3848246093  -1.0776746E-05   8.9125579E-05
     20     -216.3848257520  -1.1427644E-06   6.1209416E-05
     21     -216.3848255707   1.8137112E-07   5.2319221E-05
     22     -216.3848260722  -5.0159460E-07   1.8710384E-05
------------------------------------------------------------

 total:                                   1.727 sec
   
   ::::::::::::::::::::::::::::::::::::::::::::::
   ::     D I P R O      C O U P L I N G S     ::
   ::::::::::::::::::::::::::::::::::::::::::::::
   
energy threshhold for near-degenerate orbitals near HOMO and LUMO considered for DIPRO:  0.300 eV
no. of orbitals within energy window of frag 1         6
no. of orbitals within energy window of frag 2         6
   
  Fragment 1 SOMO-3  Fragment 2 SOMO-3
--------------------------------------
E_mon(orb) frag1 frag2             -10.547   -10.520 eV
J(AB):                0.006 eV
S(AB):            -0.00027410 Eh
|J(AB,eff)|:            0.003 eV
   
  Fragment 1 SOMO-3  Fragment 2 SOMO-2
--------------------------------------
E_mon(orb) frag1 frag2             -10.547   -10.376 eV
J(AB):                0.003 eV
S(AB):            -0.00015851 Eh
|J(AB,eff)|:            0.002 eV
   
  Fragment 1 SOMO-3  Fragment 2 SOMO-1
--------------------------------------
E_mon(orb) frag1 frag2             -10.547   -10.312 eV
J(AB):               -0.005 eV
S(AB):             0.00023106 Eh
|J(AB,eff)|:            0.003 eV
   
  Fragment 1 SOMO-3  Fragment 2 SOMO 
--------------------------------------
E_mon(orb) frag1 frag2             -10.547   -10.251 eV
J(AB):               -0.002 eV
S(AB):             0.00011262 Eh
|J(AB,eff)|:            0.001 eV
   
  Fragment 1 SOMO-3  Fragment 2 LUMO 
--------------------------------------
E_mon(orb) frag1 frag2             -10.547   -10.190 eV
J(AB):                0.003 eV
S(AB):            -0.00013192 Eh
|J(AB,eff)|:            0.001 eV
   
  Fragment 1 SOMO-3  Fragment 2 LUMO+1
--------------------------------------
E_mon(orb) frag1 frag2             -10.547    -9.991 eV
J(AB):               -0.000 eV
S(AB):             0.00000108 Eh
|J(AB,eff)|:            0.000 eV
   
  Fragment 1 SOMO-2  Fragment 2 SOMO-3
--------------------------------------
E_mon(orb) frag1 frag2             -10.438   -10.520 eV
J(AB):               -0.009 eV
S(AB):             0.00039003 Eh
|J(AB,eff)|:            0.005 eV
   
  Fragment 1 SOMO-2  Fragment 2 SOMO-2
--------------------------------------
E_mon(orb) frag1 frag2             -10.438   -10.376 eV
J(AB):               -0.013 eV
S(AB):             0.00051238 Eh
|J(AB,eff)|:            0.007 eV
   
  Fragment 1 SOMO-2  Fragment 2 SOMO-1
--------------------------------------
E_mon(orb) frag1 frag2             -10.438   -10.312 eV
J(AB):               -0.000 eV
S(AB):             0.00003095 Eh
|J(AB,eff)|:            0.000 eV
   
  Fragment 1 SOMO-2  Fragment 2 SOMO 
--------------------------------------
E_mon(orb) frag1 frag2             -10.438   -10.251 eV
J(AB):                0.011 eV
S(AB):            -0.00042876 Eh
|J(AB,eff)|:            0.006 eV
   
  Fragment 1 SOMO-2  Fragment 2 LUMO 
--------------------------------------
E_mon(orb) frag1 frag2             -10.438   -10.190 eV
J(AB):               -0.015 eV
S(AB):             0.00065659 Eh
|J(AB,eff)|:            0.009 eV
   
  Fragment 1 SOMO-2  Fragment 2 LUMO+1
--------------------------------------
E_mon(orb) frag1 frag2             -10.438    -9.991 eV
J(AB):               -0.010 eV
S(AB):             0.00040740 Eh
|J(AB,eff)|:            0.005 eV
   
  Fragment 1 SOMO-1  Fragment 2 SOMO-3
--------------------------------------
E_mon(orb) frag1 frag2             -10.394   -10.520 eV
J(AB):               -0.003 eV
S(AB):             0.00013493 Eh
|J(AB,eff)|:            0.002 eV
   
  Fragment 1 SOMO-1  Fragment 2 SOMO-2
--------------------------------------
E_mon(orb) frag1 frag2             -10.394   -10.376 eV
J(AB):               -0.016 eV
S(AB):             0.00068257 Eh
|J(AB,eff)|:            0.009 eV
   
  Fragment 1 SOMO-1  Fragment 2 SOMO-1
--------------------------------------
E_mon(orb) frag1 frag2             -10.394   -10.312 eV
J(AB):                0.004 eV
S(AB):            -0.00013087 Eh
|J(AB,eff)|:            0.002 eV
   
  Fragment 1 SOMO-1  Fragment 2 SOMO 
--------------------------------------
E_mon(orb) frag1 frag2             -10.394   -10.251 eV
J(AB):               -0.002 eV
S(AB):             0.00009279 Eh
|J(AB,eff)|:            0.001 eV
   
  Fragment 1 SOMO-1  Fragment 2 LUMO 
--------------------------------------
E_mon(orb) frag1 frag2             -10.394   -10.190 eV
J(AB):               -0.006 eV
S(AB):             0.00029297 Eh
|J(AB,eff)|:            0.003 eV
   
  Fragment 1 SOMO-1  Fragment 2 LUMO+1
--------------------------------------
E_mon(orb) frag1 frag2             -10.394    -9.991 eV
J(AB):                0.004 eV
S(AB):            -0.00018500 Eh
|J(AB,eff)|:            0.002 eV
   
  Fragment 1 SOMO   Fragment 2 SOMO-3
--------------------------------------
E_mon(orb) frag1 frag2             -10.278   -10.520 eV
J(AB):               -0.005 eV
S(AB):             0.00015984 Eh
|J(AB,eff)|:            0.003 eV
   
  Fragment 1 SOMO   Fragment 2 SOMO-2
--------------------------------------
E_mon(orb) frag1 frag2             -10.278   -10.376 eV
J(AB):               -0.021 eV
S(AB):             0.00086571 Eh
|J(AB,eff)|:            0.012 eV
   
  Fragment 1 SOMO   Fragment 2 SOMO-1
--------------------------------------
E_mon(orb) frag1 frag2             -10.278   -10.312 eV
J(AB):                0.024 eV
S(AB):            -0.00102843 Eh
|J(AB,eff)|:            0.013 eV
   
  Fragment 1 SOMO   Fragment 2 SOMO 
--------------------------------------
E_mon(orb) frag1 frag2             -10.278   -10.251 eV
J(AB):               -0.031 eV
S(AB):             0.00140774 Eh
|J(AB,eff)|:            0.017 eV
   
  Fragment 1 SOMO   Fragment 2 LUMO 
--------------------------------------
E_mon(orb) frag1 frag2             -10.278   -10.190 eV
J(AB):               -0.022 eV
S(AB):             0.00091829 Eh
|J(AB,eff)|:            0.012 eV
   
  Fragment 1 SOMO   Fragment 2 LUMO+1
--------------------------------------
E_mon(orb) frag1 frag2             -10.278    -9.991 eV
J(AB):                0.037 eV
S(AB):            -0.00162359 Eh
|J(AB,eff)|:            0.021 eV
   
  Fragment 1 LUMO   Fragment 2 SOMO-3
--------------------------------------
E_mon(orb) frag1 frag2             -10.152   -10.520 eV
J(AB):                0.009 eV
S(AB):            -0.00036687 Eh
|J(AB,eff)|:            0.005 eV
   
  Fragment 1 LUMO   Fragment 2 SOMO-2
--------------------------------------
E_mon(orb) frag1 frag2             -10.152   -10.376 eV
J(AB):               -0.002 eV
S(AB):             0.00004137 Eh
|J(AB,eff)|:            0.001 eV
   
  Fragment 1 LUMO   Fragment 2 SOMO-1
--------------------------------------
E_mon(orb) frag1 frag2             -10.152   -10.312 eV
J(AB):                0.001 eV
S(AB):            -0.00004825 Eh
|J(AB,eff)|:            0.001 eV
   
  Fragment 1 LUMO   Fragment 2 SOMO 
--------------------------------------
E_mon(orb) frag1 frag2             -10.152   -10.251 eV
J(AB):               -0.020 eV
S(AB):             0.00083885 Eh
|J(AB,eff)|:            0.011 eV
   
  Fragment 1 LUMO   Fragment 2 LUMO 
--------------------------------------
E_mon(orb) frag1 frag2             -10.152   -10.190 eV
J(AB):               -0.004 eV
S(AB):             0.00016236 Eh
|J(AB,eff)|:            0.002 eV
   
  Fragment 1 LUMO   Fragment 2 LUMO+1
--------------------------------------
E_mon(orb) frag1 frag2             -10.152    -9.991 eV
J(AB):                0.017 eV
S(AB):            -0.00073925 Eh
|J(AB,eff)|:            0.010 eV
   
  Fragment 1 LUMO+1  Fragment 2 SOMO-3
--------------------------------------
E_mon(orb) frag1 frag2              -9.951   -10.520 eV
J(AB):               -0.001 eV
S(AB):             0.00001999 Eh
|J(AB,eff)|:            0.001 eV
   
  Fragment 1 LUMO+1  Fragment 2 SOMO-2
--------------------------------------
E_mon(orb) frag1 frag2              -9.951   -10.376 eV
J(AB):               -0.013 eV
S(AB):             0.00051567 Eh
|J(AB,eff)|:            0.007 eV
   
  Fragment 1 LUMO+1  Fragment 2 SOMO-1
--------------------------------------
E_mon(orb) frag1 frag2              -9.951   -10.312 eV
J(AB):                0.004 eV
S(AB):            -0.00016099 Eh
|J(AB,eff)|:            0.002 eV
   
  Fragment 1 LUMO+1  Fragment 2 SOMO 
--------------------------------------
E_mon(orb) frag1 frag2              -9.951   -10.251 eV
J(AB):               -0.035 eV
S(AB):             0.00153997 Eh
|J(AB,eff)|:            0.019 eV
   
  Fragment 1 LUMO+1  Fragment 2 LUMO 
--------------------------------------
E_mon(orb) frag1 frag2              -9.951   -10.190 eV
J(AB):               -0.014 eV
S(AB):             0.00060689 Eh
|J(AB,eff)|:            0.008 eV
   
  Fragment 1 LUMO+1  Fragment 2 LUMO+1
--------------------------------------
E_mon(orb) frag1 frag2              -9.951    -9.991 eV
J(AB):                0.034 eV
S(AB):            -0.00151621 Eh
|J(AB,eff)|:            0.019 eV
   
..............................................................................
:  total |J(AB,eff)| for hole transport (occ. MOs) :               0.029 eV  :
:  total |J(AB,eff)| for charge transport (unocc. MOs) :           0.023 eV  :
:  total |J(AB,eff)| for charge transfer (CT) :                    0.036 eV  :
..............................................................................
  
 Please remember, DIPRO is not available for restart!
   
normal termination of dipro
----------------------------------------------------------
 * finished run on 2024/12/10 at 16:16:42.383     
----------------------------------------------------------
 dipro:
 * wall-time:     0 d,  0 h,  0 min, 10.289 sec
 *  cpu-time:     0 d,  0 h,  0 min, 37.227 sec
 * ratio c/w:     3.618 speedup
