      -----------------------------------------------------------      
     |                   =====================                   |     
     |                           x T B                           |     
     |                   =====================                   |     
     |                         S. Grimme                         |     
     |          Mulliken Center for Theoretical Chemistry        |     
     |                    University of Bonn                     |     
      -----------------------------------------------------------      

   * xtb version 6.6.1 (8d0f1dd) compiled by 'runner@Mac-1690902418499.local' on 2023-08-01

   xtb is free software: you can redistribute it and/or modify it under
   the terms of the GNU Lesser General Public License as published by
   the Free Software Foundation, either version 3 of the License, or
   (at your option) any later version.
   
   xtb is distributed in the hope that it will be useful,
   but WITHOUT ANY WARRANTY; without even the implied warranty of
   MERCHANTABILITY or FITNESS FOR A PARTICULAR PURPOSE.  See the
   GNU Lesser General Public License for more details.
   
   Cite this work as:
   * C. Bannwarth, E. Caldeweyher, S. Ehlert, A. Hansen, P. Pracht,
     J. Seibert, S. Spicher, S. Grimme, WIREs Comput. Mol. Sci., 2020, 11,
     e01493. DOI: 10.1002/wcms.1493
   
   for GFN2-xTB:
   * C. Bannwarth, S. Ehlert and S. Grimme., J. Chem. Theory Comput., 2019,
     15, 1652-1671. DOI: 10.1021/acs.jctc.8b01176
   for GFN1-xTB:
   * S. Grimme, C. Bannwarth, P. Shushkov, J. Chem. Theory Comput., 2017,
     13, 1989-2009. DOI: 10.1021/acs.jctc.7b00118
   for GFN0-xTB:
   * P. Pracht, E. Caldeweyher, S. Ehlert, S. Grimme, ChemRxiv, 2019, preprint.
     DOI: 10.26434/chemrxiv.8326202.v1
   for GFN-FF:
   * S. Spicher and S. Grimme, Angew. Chem. Int. Ed., 2020, 59, 15665-15673.
     DOI: 10.1002/anie.202004239
   
   for ALPB and GBSA implicit solvation:
   * S. Ehlert, M. Stahn, S. Spicher, S. Grimme, J. Chem. Theory Comput.,
     2021, 17, 4250-4261. DOI: 10.1021/acs.jctc.1c00471
   
   for DFT-D4:
   * E. Caldeweyher, C. Bannwarth and S. Grimme, J. Chem. Phys., 2017,
     147, 034112. DOI: 10.1063/1.4993215
   * E. Caldeweyher, S. Ehlert, A. Hansen, H. Neugebauer, S. Spicher,
     C. Bannwarth and S. Grimme, J. Chem. Phys., 2019, 150, 154122.
     DOI: 10.1063/1.5090222
   * E. Caldeweyher, J.-M. Mewes, S. Ehlert and S. Grimme, Phys. Chem. Chem. Phys.
     2020, 22, 8499-8512. DOI: 10.1039/D0CP00502A
   
   for sTDA-xTB:
   * S. Grimme and C. Bannwarth, J. Chem. Phys., 2016, 145, 054103.
     DOI: 10.1063/1.4959605
   
   in the mass-spec context:
   * V. Asgeirsson, C. Bauer and S. Grimme, Chem. Sci., 2017, 8, 4879.
     DOI: 10.1039/c7sc00601b
   * J. Koopman and S. Grimme, ACS Omega 2019, 4, 12, 15120-15133.
     DOI: 10.1021/acsomega.9b02011
   
   for metadynamics refer to:
   * S. Grimme, J. Chem. Theory Comput., 2019, 155, 2847-2862
     DOI: 10.1021/acs.jctc.9b00143
   
   for SPH calculations refer to:
   * S. Spicher and S. Grimme, J. Chem. Theory Comput., 2021, 17, 1701-1714
     DOI: 10.1021/acs.jctc.0c01306
   
   with help from (in alphabetical order)
   P. Atkinson, C. Bannwarth, F. Bohle, G. Brandenburg, E. Caldeweyher
   M. Checinski, S. Dohm, S. Ehlert, S. Ehrlich, I. Gerasimov, C. Hölzer
   A. Katbashev, J. Koopman, C. Lavigne, S. Lehtola, F. März, M. Müller,
   F. Musil, H. Neugebauer, J. Pisarek, C. Plett, P. Pracht, F. Pultar,
   J. Seibert, P. Shushkov, S. Spicher, M. Stahn, M. Steiner, T. Strunk,
   J. Stückrath, T. Rose, and J. Unsleber
   
 * started run on 2024/11/01 at 12:45:52.625     

           -------------------------------------------------
          |                Calculation Setup                |
           -------------------------------------------------

          program call               : xtb stacked_dimer_Base2SO2Me.mol --opt --gfn2 --chrg 0 --uhf 1 --tight
          coordinate file            : stacked_dimer_Base2SO2Me.mol
          omp threads                :                     8

   ID    Z sym.   atoms
    1    6 C      1-9, 11, 12, 14-21, 26-34, 36, 37, 39-46, 54, 56, 60, 63,
                  66, 69, 71, 72, 74, 75, 112-120, 122, 123, 125-132,
                  137-145, 147, 148, 150-157, 165, 167, 171, 174, 177, 180,
                  182, 183, 185, 186
    2    7 N      10, 13, 35, 38, 70, 73, 121, 124, 146, 149, 181, 184
    3    8 O      22, 47, 52, 53, 55, 57-59, 61, 62, 64, 65, 67, 68, 133,
                  158, 163, 164, 166, 168-170, 172, 173, 175, 176, 178, 179
    4   16 S      23-25, 48-50, 134-136, 159-161
    5    5 B      51, 162
    6    1 H      76-111, 187-222

molecular fragmentation (1/2 indicates fragments):
111111111111111111111111111111111111111111111111111111111111111111111111
111111111111111111111111111111111111111222222222222222222222222222222222
222222222222222222222222222222222222222222222222222222222222222222222222
222222
# atoms in fragment 1/2:   111   111
 fragment masses (1/2) :     1124.03     1124.03
CMA distance (Bohr)    :  15.118
constraining FC (au)   :  0.0500
########################################################################
[WARNING] Please study the warnings concerning your input carefully
-1- prog_main_parseArguments: Unknown option '--tight' provided
########################################################################

           -------------------------------------------------
          |                 G F N 2 - x T B                 |
           -------------------------------------------------

        Reference                      10.1021/acs.jctc.8b01176
      * Hamiltonian:
        H0-scaling (s, p, d)           1.850000    2.230000    2.230000
        zeta-weighting                 0.500000
      * Dispersion:
        s8                             2.700000
        a1                             0.520000
        a2                             5.000000
        s9                             5.000000
      * Repulsion:
        kExp                           1.500000    1.000000
        rExp                           1.000000
      * Coulomb:
        alpha                          2.000000
        third order                    shell-resolved
        anisotropic                    true
        a3                             3.000000
        a5                             4.000000
        cn-shift                       1.200000
        cn-exp                         4.000000
        max-rad                        5.000000


          ...................................................
          :                      SETUP                      :
          :.................................................:
          :  # basis functions                 744          :
          :  # atomic orbitals                 732          :
          :  # shells                          384          :
          :  # electrons                       762          :
          :  max. iterations                   250          :
          :  Hamiltonian                  GFN2-xTB          :
          :  restarted?                      false          :
          :  GBSA solvation                  false          :
          :  PC potential                    false          :
          :  electronic temp.          300.0000000     K    :
          :  accuracy                    1.0000000          :
          :  -> integral cutoff          0.2500000E+02      :
          :  -> integral neglect         0.1000000E-07      :
          :  -> SCF convergence          0.1000000E-05 Eh   :
          :  -> wf. convergence          0.1000000E-03 e    :
          :  Broyden damping             0.4000000          :
          ...................................................

 iter      E             dE          RMSdq      gap      omega  full diag
   1   -437.1003313 -0.437100E+03  0.607E+00    0.03       0.0  T
   2   -437.4171949 -0.316864E+00  0.352E+00    0.04       1.0  T
   3   -413.1044397  0.243128E+02  0.410E+00    0.13       1.0  T
   4   -394.4706352  0.186338E+02  0.497E+00    0.05       1.0  T
   5   -434.3638938 -0.398933E+02  0.231E+00    0.06       1.0  T
   6   -436.2754041 -0.191151E+01  0.184E+00    0.18       1.0  T
   7   -437.2709805 -0.995576E+00  0.123E+00    0.05       1.0  T
   8   -437.3441733 -0.731928E-01  0.101E+00    0.03       1.0  T
   9   -436.9907469  0.353426E+00  0.112E+00    0.22       1.0  T
  10   -437.3864688 -0.395722E+00  0.854E-01    0.06       1.0  T
  11   -437.6011360 -0.214667E+00  0.680E-01    0.05       1.0  T
  12   -437.6624760 -0.613400E-01  0.545E-01    0.04       1.0  T
  13   -437.7184256 -0.559496E-01  0.422E-01    0.04       1.0  T
  14   -437.6933962  0.250293E-01  0.397E-01    0.03       1.0  T
  15   -437.7468494 -0.534532E-01  0.268E-01    0.04       1.0  T
  16   -437.7622121 -0.153626E-01  0.175E-01    0.03       1.0  T
  17   -437.7723615 -0.101494E-01  0.120E-01    0.01       1.0  T
  18   -437.7536296  0.187319E-01  0.174E-01    0.03       1.0  T
  19   -437.7740854 -0.204558E-01  0.828E-02    0.01       1.0  T
  20   -437.7749383 -0.852896E-03  0.670E-02    0.02       1.0  T
  21   -437.7757279 -0.789556E-03  0.471E-02    0.01       1.0  T
  22   -437.7760890 -0.361093E-03  0.321E-02    0.01       1.0  T
  23   -437.7759844  0.104509E-03  0.282E-02    0.01       1.0  T
  24   -437.7762532 -0.268794E-03  0.184E-02    0.01       1.0  T
  25   -437.7762728 -0.195959E-04  0.151E-02    0.01       1.0  T
  26   -437.7763061 -0.333109E-04  0.116E-02    0.01       1.0  T
  27   -437.7763363 -0.301434E-04  0.732E-03    0.01       1.0  T
  28   -437.7763443 -0.800022E-05  0.429E-03    0.01       1.6  T
  29   -437.7763454 -0.108359E-05  0.250E-03    0.01       2.7  T
  30   -437.7763433  0.210241E-05  0.251E-03    0.01       2.7  T
  31   -437.7763470 -0.372422E-05  0.650E-04    0.01      10.3  T
  32   -437.7763471 -0.104229E-06  0.272E-04    0.01      24.6  T
  33   -437.7763471 -0.151839E-07  0.210E-04    0.01      32.0  T

   *** convergence criteria satisfied after 33 iterations ***

         #    Occupation            Energy/Eh            Energy/eV
      -------------------------------------------------------------
         1        2.0000           -0.8016237             -21.8133
       ...           ...                  ...                  ...
       375        1.9998           -0.3863594             -10.5134
       376        1.9997           -0.3858331             -10.4991
       377        1.9989           -0.3846619             -10.4672
       378        1.9982           -0.3841535             -10.4534
       379        1.9766           -0.3817024             -10.3867
       380        1.9379           -0.3807564             -10.3609
       381        1.1547           -0.3777848             -10.2800 (HOMO)
       382        0.9328           -0.3773606             -10.2685 (LUMO)
       383        0.0010           -0.3702215             -10.0742
       384        0.0004           -0.3694505             -10.0533
       385                         -0.3270889              -8.9005
       386                         -0.3263194              -8.8796
       ...                                ...                  ...
       732                          1.0316180              28.0718
      -------------------------------------------------------------
                  HL-Gap            0.0004242 Eh            0.0115 eV
             Fermi-level           -0.3774884 Eh          -10.2720 eV

 SCC (total)                   0 d,  0 h,  0 min,  6.445 sec
 SCC setup                      ...        0 min,  0.003 sec (  0.041%)
 Dispersion                     ...        0 min,  0.009 sec (  0.138%)
 classical contributions        ...        0 min,  0.002 sec (  0.027%)
 integral evaluation            ...        0 min,  0.048 sec (  0.738%)
 iterations                     ...        0 min,  6.133 sec ( 95.170%)
 molecular gradient             ...        0 min,  0.218 sec (  3.388%)
 printout                       ...        0 min,  0.032 sec (  0.498%)

         :::::::::::::::::::::::::::::::::::::::::::::::::::::
         ::                     SUMMARY                     ::
         :::::::::::::::::::::::::::::::::::::::::::::::::::::
         :: total energy            -432.810092190129 Eh    ::
         :: gradient norm              0.023968856411 Eh/a0 ::
         :: HOMO-LUMO gap              0.011542949692 eV    ::
         ::.................................................::
         :: SCC energy              -437.776347113609 Eh    ::
         :: -> isotropic ES            0.849526482947 Eh    ::
         :: -> anisotropic ES         -0.030041268611 Eh    ::
         :: -> anisotropic XC          0.141315940182 Eh    ::
         :: -> dispersion             -0.423909260959 Eh    ::
         :: repulsion energy           4.941370116152 Eh    ::
         :: add. restraining           0.000000000000 Eh    ::
         :: total charge               0.000000000004 e     ::
         :::::::::::::::::::::::::::::::::::::::::::::::::::::

      ----------------------------------------------------------- 
     |                   =====================                   |
     |                        A N C O P T                        |
     |                   =====================                   |
     |               Approximate Normal Coordinate               |
     |                Rational Function Optimizer                |
      ----------------------------------------------------------- 

          ...................................................
          :                      SETUP                      :
          :.................................................:
          :   optimization level            normal          :
          :   max. optcycles                   666          :
          :   ANC micro-cycles                  20          :
          :   degrees of freedom               660          :
          :.................................................:
          :   RF solver                   davidson          :
          :   write xtbopt.log                true          :
          :   linear?                        false          :
          :   energy convergence         0.5000000E-05 Eh   :
          :   grad. convergence          0.1000000E-02 Eh/α :
          :   maxmium RF displ.          1.0000000          :
          :   Hlow (freq-cutoff)         0.1000000E-01      :
          :   Hmax (freq-cutoff)         5.0000000          :
          :   S6 in model hess.         20.0000000          :
          ...................................................

generating ANC from model Hessian ...
Using Lindh-Hessian (1995)
 Shifting diagonal of input Hessian by    1.0114821946473127E-002
 Lowest  eigenvalues of input Hessian
    0.010000    0.000000    0.000000    0.000000    0.000000    0.000000
    0.000000    0.010125    0.010133    0.010145    0.010192    0.010201
    0.010236    0.010269    0.010316    0.010328    0.010360    0.010418
 Highest eigenvalues
    2.668530    2.668532    2.670303    2.670305    2.692560    2.692577


........................................................................
.............................. CYCLE    1 ..............................
........................................................................

 iter      E             dE          RMSdq      gap      omega  full diag
   1   -437.7763471 -0.437776E+03  0.132E-04    0.01       0.0  T
   2   -437.7763449  0.220988E-05  0.150E-03    0.01       4.5  T
   3   -437.7763469 -0.198520E-05  0.509E-04    0.01      13.2  T
   4   -437.7763471 -0.221750E-06  0.132E-04    0.01      51.0  T
   5   -437.7763471  0.483902E-08  0.153E-04    0.01      43.8  T
     SCC iter.                  ...        0 min,  0.864 sec
     gradient                   ...        0 min,  0.219 sec
 * total energy  :  -432.8100922 Eh     change        0.3966534E-09 Eh
   gradient norm :     0.0239686 Eh/α   predicted     0.0000000E+00 (-100.00%)
   displ. norm   :     0.3751357 α      lambda       -0.4702281E-02
   maximum displ.:     0.1087899 α      in ANC's #1, #40, #39, ...

........................................................................
.............................. CYCLE    2 ..............................
........................................................................

 iter      E             dE          RMSdq      gap      omega  full diag
   1   -437.7819592 -0.437782E+03  0.586E-02    0.02       0.0  T
   2   -437.7112076  0.707517E-01  0.260E-01    0.08       1.0  T
   3   -437.7675894 -0.563819E-01  0.121E-01    0.05       1.0  T
   4   -437.7682286 -0.639190E-03  0.144E-01    0.00       1.0  T
   5   -437.7808593 -0.126307E-01  0.495E-02    0.02       1.0  T
   6   -437.7813273 -0.467985E-03  0.402E-02    0.02       1.0  T
   7   -437.7817202 -0.392896E-03  0.328E-02    0.01       1.0  T
   8   -437.7819646 -0.244452E-03  0.249E-02    0.01       1.0  T
   9   -437.7822565 -0.291884E-03  0.639E-03    0.01       1.1  T
  10   -437.7822673 -0.107427E-04  0.409E-03    0.01       1.6  T
  11   -437.7822638  0.346222E-05  0.332E-03    0.01       2.0  T
  12   -437.7822736 -0.979216E-05  0.897E-04    0.01       7.5  T
  13   -437.7822738 -0.145342E-06  0.642E-04    0.01      10.5  T
  14   -437.7822738 -0.564812E-07  0.535E-04    0.01      12.6  T
     SCC iter.                  ...        0 min,  2.558 sec
     gradient                   ...        0 min,  0.219 sec
 * total energy  :  -432.8133705 Eh     change       -0.3278278E-02 Eh
   gradient norm :     0.0132328 Eh/α   predicted    -0.2682043E-02 ( -18.19%)
   displ. norm   :     0.3511508 α      lambda       -0.1810577E-02
   maximum displ.:     0.1180038 α      in ANC's #1, #39, #40, ...

........................................................................
.............................. CYCLE    3 ..............................
........................................................................

 iter      E             dE          RMSdq      gap      omega  full diag
   1   -437.7820440 -0.437782E+03  0.470E-02    0.02       0.0  T
   2   -437.6752527  0.106791E+00  0.319E-01    0.12       1.0  T
   3   -437.7812229 -0.105970E+00  0.436E-02    0.02       1.0  T
   4   -437.7773919  0.383106E-02  0.889E-02    0.02       1.0  T
   5   -437.7811836 -0.379168E-02  0.440E-02    0.02       1.0  T
   6   -437.7822654 -0.108181E-02  0.237E-02    0.01       1.0  T
   7   -437.7822955 -0.301571E-04  0.205E-02    0.01       1.0  T
   8   -437.7823961 -0.100540E-03  0.174E-02    0.01       1.0  T
   9   -437.7825327 -0.136638E-03  0.493E-03    0.01       1.4  T
  10   -437.7825438 -0.111272E-04  0.309E-03    0.01       2.2  T
  11   -437.7825398  0.405899E-05  0.321E-03    0.01       2.1  T
  12   -437.7825484 -0.859230E-05  0.814E-04    0.01       8.2  T
  13   -437.7825485 -0.134391E-06  0.627E-04    0.01      10.7  T
  14   -437.7825485  0.240320E-07  0.457E-04    0.01      14.7  T
     SCC iter.                  ...        0 min,  2.544 sec
     gradient                   ...        0 min,  0.218 sec
 * total energy  :  -432.8146455 Eh     change       -0.1275074E-02 Eh
   gradient norm :     0.0063677 Eh/α   predicted    -0.1017096E-02 ( -20.23%)
   displ. norm   :     0.3351035 α      lambda       -0.7890033E-03
   maximum displ.:     0.1238151 α      in ANC's #1, #39, #40, ...

........................................................................
.............................. CYCLE    4 ..............................
........................................................................

 iter      E             dE          RMSdq      gap      omega  full diag
   1   -437.7811348 -0.437781E+03  0.376E-02    0.02       0.0  T
   2   -437.6895631  0.915717E-01  0.294E-01    0.11       1.0  T
   3   -437.7810767 -0.915136E-01  0.278E-02    0.02       1.0  T
   4   -437.7800721  0.100466E-02  0.460E-02    0.02       1.0  T
   5   -437.7796149  0.457211E-03  0.513E-02    0.02       1.0  T
   6   -437.7812622 -0.164730E-02  0.198E-02    0.02       1.0  T
   7   -437.7813618 -0.996066E-04  0.146E-02    0.01       1.0  T
   8   -437.7814185 -0.566965E-04  0.121E-02    0.01       1.0  T
   9   -437.7814929 -0.744072E-04  0.274E-03    0.01       2.4  T
  10   -437.7814953 -0.243504E-05  0.190E-03    0.01       3.5  T
  11   -437.7814972 -0.186940E-05  0.119E-03    0.01       5.6  T
  12   -437.7814977 -0.574218E-06  0.471E-04    0.01      14.2  T
  13   -437.7814977  0.475609E-09  0.425E-04    0.01      15.8  T
     SCC iter.                  ...        0 min,  2.408 sec
     gradient                   ...        0 min,  0.224 sec
 * total energy  :  -432.8152124 Eh     change       -0.5668866E-03 Eh
   gradient norm :     0.0046074 Eh/α   predicted    -0.4388925E-03 ( -22.58%)
   displ. norm   :     0.3355611 α      lambda       -0.4546462E-03
   maximum displ.:     0.1296870 α      in ANC's #1, #39, #40, ...

........................................................................
.............................. CYCLE    5 ..............................
........................................................................

 iter      E             dE          RMSdq      gap      omega  full diag
   1   -437.7802133 -0.437780E+03  0.327E-02    0.02       0.0  T
   2   -437.7174119  0.628014E-01  0.243E-01    0.08       1.0  T
   3   -437.7797170 -0.623051E-01  0.310E-02    0.02       1.0  T
   4   -437.7790647  0.652375E-03  0.472E-02    0.02       1.0  T
   5   -437.7789286  0.136086E-03  0.463E-02    0.02       1.0  T
   6   -437.7802473 -0.131876E-02  0.155E-02    0.02       1.0  T
   7   -437.7803021 -0.547051E-04  0.148E-02    0.01       1.0  T
   8   -437.7803963 -0.942032E-04  0.632E-03    0.01       1.1  T
   9   -437.7804168 -0.205944E-04  0.219E-03    0.01       3.1  T
  10   -437.7804172 -0.337824E-06  0.187E-03    0.01       3.6  T
  11   -437.7804185 -0.135899E-05  0.908E-04    0.01       7.4  T
  12   -437.7804190 -0.417822E-06  0.354E-04    0.01      19.0  T
  13   -437.7804190 -0.394196E-07  0.197E-04    0.01      34.1  T
     SCC iter.                  ...        0 min,  2.485 sec
     gradient                   ...        0 min,  0.218 sec
 * total energy  :  -432.8155546 Eh     change       -0.3421455E-03 Eh
   gradient norm :     0.0049004 Eh/α   predicted    -0.2529201E-03 ( -26.08%)
   displ. norm   :     0.3735645 α      lambda       -0.3737017E-03
   maximum displ.:     0.1456309 α      in ANC's #1, #13, #39, ...

........................................................................
.............................. CYCLE    6 ..............................
........................................................................

 iter      E             dE          RMSdq      gap      omega  full diag
   1   -437.7793839 -0.437779E+03  0.334E-02    0.02       0.0  T
   2   -437.7491604  0.302235E-01  0.168E-01    0.04       1.0  T
   3   -437.7764196 -0.272592E-01  0.565E-02    0.03       1.0  T
   4   -437.7772593 -0.839685E-03  0.606E-02    0.02       1.0  T
   5   -437.7780411 -0.781845E-03  0.459E-02    0.02       1.0  T
   6   -437.7793232 -0.128210E-02  0.153E-02    0.02       1.0  T
   7   -437.7792941  0.291519E-04  0.185E-02    0.01       1.0  T
   8   -437.7794607 -0.166636E-03  0.561E-03    0.01       1.2  T
   9   -437.7794728 -0.120923E-04  0.266E-03    0.01       2.5  T
  10   -437.7794739 -0.107496E-05  0.221E-03    0.01       3.0  T
  11   -437.7794759 -0.204315E-05  0.926E-04    0.01       7.2  T
  12   -437.7794764 -0.478131E-06  0.361E-04    0.01      18.6  T
  13   -437.7794765 -0.450445E-07  0.218E-04    0.01      30.8  T
     SCC iter.                  ...        0 min,  2.458 sec
     gradient                   ...        0 min,  0.219 sec
 * total energy  :  -432.8158427 Eh     change       -0.2881437E-03 Eh
   gradient norm :     0.0048073 Eh/α   predicted    -0.2129264E-03 ( -26.10%)
   displ. norm   :     0.4086337 α      lambda       -0.3409075E-03
   maximum displ.:     0.1574308 α      in ANC's #1, #13, #16, ...

........................................................................
.............................. CYCLE    7 ..............................
........................................................................

 iter      E             dE          RMSdq      gap      omega  full diag
   1   -437.7788546 -0.437779E+03  0.360E-02    0.01       0.0  T
   2   -437.7771989  0.165565E-02  0.440E-02    0.00       1.0  T
   3   -437.7383510  0.388479E-01  0.195E-01    0.10       1.0  T
   4   -437.7776846 -0.393336E-01  0.467E-02    0.01       1.0  T
   5   -437.7776043  0.802777E-04  0.426E-02    0.02       1.0  T
   6   -437.7786023 -0.998012E-03  0.209E-02    0.02       1.0  T
   7   -437.7786048 -0.246885E-05  0.217E-02    0.01       1.0  T
   8   -437.7788493 -0.244452E-03  0.696E-03    0.01       1.0  T
   9   -437.7788701 -0.208061E-04  0.282E-03    0.01       2.4  T
  10   -437.7788707 -0.624734E-06  0.250E-03    0.01       2.7  T
  11   -437.7788724 -0.175227E-05  0.127E-03    0.01       5.3  T
  12   -437.7788734 -0.911238E-06  0.765E-04    0.01       8.8  T
  13   -437.7788738 -0.394854E-06  0.401E-04    0.01      16.7  T
     SCC iter.                  ...        0 min,  2.933 sec
     gradient                   ...        0 min,  0.219 sec
 * total energy  :  -432.8161085 Eh     change       -0.2657993E-03 Eh
   gradient norm :     0.0050023 Eh/α   predicted    -0.1989184E-03 ( -25.16%)
   displ. norm   :     0.4312628 α      lambda       -0.3177631E-03
   maximum displ.:     0.1602099 α      in ANC's #1, #13, #16, ...

........................................................................
.............................. CYCLE    8 ..............................
........................................................................

 iter      E             dE          RMSdq      gap      omega  full diag
   1   -437.7787404 -0.437779E+03  0.397E-02    0.01       0.0  T
   2   -437.7733184  0.542208E-02  0.740E-02    0.04       1.0  T
   3   -437.7398189  0.334994E-01  0.191E-01    0.05       1.0  T
   4   -437.7777657 -0.379468E-01  0.444E-02    0.01       1.0  T
   5   -437.7783060 -0.540321E-03  0.302E-02    0.01       1.0  T
   6   -437.7785412 -0.235124E-03  0.204E-02    0.01       1.0  T
   7   -437.7784936  0.475678E-04  0.207E-02    0.02       1.0  T
   8   -437.7786660 -0.172424E-03  0.119E-02    0.02       1.0  T
   9   -437.7787641 -0.980445E-04  0.352E-03    0.01       1.9  T
  10   -437.7787641 -0.174267E-07  0.332E-03    0.01       2.0  T
  11   -437.7787653 -0.121561E-05  0.254E-03    0.01       2.6  T
  12   -437.7787722 -0.691075E-05  0.399E-04    0.01      16.8  T
  13   -437.7787721  0.110662E-06  0.444E-04    0.01      15.1  T
  14   -437.7787722 -0.141297E-06  0.203E-04    0.01      33.1  T
     SCC iter.                  ...        0 min,  2.526 sec
     gradient                   ...        0 min,  0.220 sec
 * total energy  :  -432.8163580 Eh     change       -0.2494393E-03 Eh
   gradient norm :     0.0055823 Eh/α   predicted    -0.1884515E-03 ( -24.45%)
   displ. norm   :     0.4412518 α      lambda       -0.2946656E-03
   maximum displ.:     0.1576185 α      in ANC's #13, #1, #11, ...

........................................................................
.............................. CYCLE    9 ..............................
........................................................................

 iter      E             dE          RMSdq      gap      omega  full diag
   1   -437.7790719 -0.437779E+03  0.424E-02    0.01       0.0  T
   2   -437.7601292  0.189427E-01  0.134E-01    0.06       1.0  T
   3   -437.7622831 -0.215391E-02  0.127E-01    0.03       1.0  T
   4   -437.7777528 -0.154697E-01  0.516E-02    0.01       1.0  T
   5   -437.7787300 -0.977255E-03  0.288E-02    0.01       1.0  T
   6   -437.7789493 -0.219267E-03  0.184E-02    0.01       1.0  T
   7   -437.7788216  0.127692E-03  0.215E-02    0.02       1.0  T
   8   -437.7790223 -0.200675E-03  0.130E-02    0.02       1.0  T
   9   -437.7791342 -0.111944E-03  0.395E-03    0.01       1.7  T
  10   -437.7791259  0.834410E-05  0.475E-03    0.01       1.4  T
  11   -437.7791385 -0.126398E-04  0.306E-03    0.01       2.2  T
  12   -437.7791485 -0.999573E-05  0.499E-04    0.01      13.5  T
  13   -437.7791484  0.123413E-06  0.512E-04    0.01      13.1  T
  14   -437.7791485 -0.176036E-06  0.292E-04    0.01      23.0  T
     SCC iter.                  ...        0 min,  2.803 sec
     gradient                   ...        0 min,  0.222 sec
 * total energy  :  -432.8165884 Eh     change       -0.2304347E-03 Eh
   gradient norm :     0.0054800 Eh/α   predicted    -0.1760192E-03 ( -23.61%)
   displ. norm   :     0.4395709 α      lambda       -0.2580617E-03
   maximum displ.:     0.1525220 α      in ANC's #13, #11, #1, ...

........................................................................
.............................. CYCLE   10 ..............................
........................................................................

 iter      E             dE          RMSdq      gap      omega  full diag
   1   -437.7796021 -0.437780E+03  0.417E-02    0.01       0.0  T
   2   -437.7655733  0.140289E-01  0.116E-01    0.05       1.0  T
   3   -437.7583036  0.726967E-02  0.143E-01    0.03       1.0  T
   4   -437.7780126 -0.197090E-01  0.551E-02    0.01       1.0  T
   5   -437.7791384 -0.112581E-02  0.310E-02    0.01       1.0  T
   6   -437.7795266 -0.388141E-03  0.151E-02    0.01       1.0  T
   7   -437.7794373  0.893126E-04  0.172E-02    0.02       1.0  T
   8   -437.7794858 -0.485271E-04  0.152E-02    0.02       1.0  T
   9   -437.7796361 -0.150292E-03  0.493E-03    0.01       1.4  T
  10   -437.7796443 -0.824264E-05  0.391E-03    0.01       1.7  T
  11   -437.7796453 -0.997388E-06  0.342E-03    0.01       2.0  T
  12   -437.7796582 -0.129074E-04  0.458E-04    0.01      14.6  T
  13   -437.7796583 -0.546345E-07  0.327E-04    0.01      20.5  T
  14   -437.7796583  0.285024E-08  0.296E-04    0.01      22.7  T
     SCC iter.                  ...        0 min,  2.681 sec
     gradient                   ...        0 min,  0.220 sec
 * total energy  :  -432.8167873 Eh     change       -0.1989552E-03 Eh
   gradient norm :     0.0046293 Eh/α   predicted    -0.1539633E-03 ( -22.61%)
   displ. norm   :     0.4157260 α      lambda       -0.2077027E-03
   maximum displ.:     0.1537632 α      in ANC's #11, #13, #1, ...

........................................................................
.............................. CYCLE   11 ..............................
........................................................................

 iter      E             dE          RMSdq      gap      omega  full diag
   1   -437.7800464 -0.437780E+03  0.363E-02    0.01       0.0  T
   2   -437.7772662  0.278016E-02  0.543E-02    0.03       1.0  T
   3   -437.7341524  0.431138E-01  0.208E-01    0.06       1.0  T
   4   -437.7789353 -0.447829E-01  0.451E-02    0.01       1.0  T
   5   -437.7793414 -0.406128E-03  0.330E-02    0.01       1.0  T
   6   -437.7798392 -0.497803E-03  0.182E-02    0.01       1.0  T
   7   -437.7798471 -0.790839E-05  0.189E-02    0.01       1.0  T
   8   -437.7799720 -0.124896E-03  0.108E-02    0.02       1.0  T
   9   -437.7800464 -0.744124E-04  0.453E-03    0.01       1.5  T
  10   -437.7800576 -0.111089E-04  0.281E-03    0.01       2.4  T
  11   -437.7800566  0.921097E-06  0.261E-03    0.01       2.6  T
  12   -437.7800641 -0.746770E-05  0.365E-04    0.01      18.4  T
  13   -437.7800641 -0.365142E-07  0.263E-04    0.01      25.5  T
  14   -437.7800642 -0.119850E-07  0.194E-04    0.01      34.6  T
     SCC iter.                  ...        0 min,  2.621 sec
     gradient                   ...        0 min,  0.222 sec
 * total energy  :  -432.8169478 Eh     change       -0.1604282E-03 Eh
   gradient norm :     0.0041315 Eh/α   predicted    -0.1218023E-03 ( -24.08%)
   displ. norm   :     0.3900453 α      lambda       -0.1753430E-03
   maximum displ.:     0.1529922 α      in ANC's #11, #13, #5, ...

........................................................................
.............................. CYCLE   12 ..............................
........................................................................

 iter      E             dE          RMSdq      gap      omega  full diag
   1   -437.7804907 -0.437780E+03  0.306E-02    0.01       0.0  T
   2   -437.7804411  0.496288E-04  0.189E-02    0.01       1.0  T
   3   -437.7715930  0.884810E-02  0.990E-02    0.04       1.0  T
   4   -437.7703783  0.121474E-02  0.989E-02    0.02       1.0  T
   5   -437.7787922 -0.841392E-02  0.472E-02    0.02       1.0  T
   6   -437.7803858 -0.159365E-02  0.120E-02    0.01       1.0  T
   7   -437.7804660 -0.802148E-04  0.801E-03    0.01       1.0  T
   8   -437.7804618  0.422637E-05  0.760E-03    0.01       1.0  T
   9   -437.7804810 -0.192122E-04  0.490E-03    0.01       1.4  T
  10   -437.7804977 -0.166392E-04  0.141E-03    0.01       4.7  T
  11   -437.7804948  0.289052E-05  0.187E-03    0.01       3.6  T
  12   -437.7804986 -0.383391E-05  0.261E-04    0.01      25.7  T
  13   -437.7804986  0.398495E-08  0.245E-04    0.01      27.3  T
  14   -437.7804986 -0.122079E-07  0.184E-04    0.01      36.5  T
     SCC iter.                  ...        0 min,  2.609 sec
     gradient                   ...        0 min,  0.223 sec
 * total energy  :  -432.8170854 Eh     change       -0.1376138E-03 Eh
   gradient norm :     0.0043042 Eh/α   predicted    -0.1010098E-03 ( -26.60%)
   displ. norm   :     0.3854149 α      lambda       -0.1632985E-03
   maximum displ.:     0.1569189 α      in ANC's #11, #5, #3, ...

........................................................................
.............................. CYCLE   13 ..............................
........................................................................

 iter      E             dE          RMSdq      gap      omega  full diag
   1   -437.7809459 -0.437781E+03  0.284E-02    0.01       0.0  T
   2   -437.7796394  0.130651E-02  0.388E-02    0.00       1.0  T
   3   -437.7570823  0.225571E-01  0.150E-01    0.07       1.0  T
   4   -437.7784689 -0.213866E-01  0.619E-02    0.01       1.0  T
   5   -437.7799898 -0.152085E-02  0.380E-02    0.02       1.0  T
   6   -437.7808709 -0.881166E-03  0.130E-02    0.01       1.0  T
   7   -437.7808324  0.385942E-04  0.157E-02    0.01       1.0  T
   8   -437.7809404 -0.108022E-03  0.495E-03    0.01       1.4  T
   9   -437.7809471 -0.670091E-05  0.356E-03    0.01       1.9  T
  10   -437.7809556 -0.848675E-05  0.118E-03    0.01       5.7  T
  11   -437.7809532  0.231985E-05  0.163E-03    0.01       4.1  T
  12   -437.7809561 -0.290496E-05  0.262E-04    0.01      25.6  T
  13   -437.7809561  0.149560E-07  0.256E-04    0.01      26.2  T
  14   -437.7809562 -0.475869E-07  0.821E-05    0.01      81.8  T
     SCC iter.                  ...        0 min,  2.562 sec
     gradient                   ...        0 min,  0.219 sec
 * total energy  :  -432.8172154 Eh     change       -0.1299858E-03 Eh
   gradient norm :     0.0045714 Eh/α   predicted    -0.9377998E-04 ( -27.85%)
   displ. norm   :     0.4016734 α      lambda       -0.1607084E-03
   maximum displ.:     0.1657492 α      in ANC's #11, #5, #3, ...

........................................................................
.............................. CYCLE   14 ..............................
........................................................................

 iter      E             dE          RMSdq      gap      omega  full diag
   1   -437.7812761 -0.437781E+03  0.292E-02    0.01       0.0  T
   2   -437.7807275  0.548544E-03  0.289E-02    0.01       1.0  T
   3   -437.7505319  0.301956E-01  0.171E-01    0.08       1.0  T
   4   -437.7761846 -0.256526E-01  0.824E-02    0.00       1.0  T
   5   -437.7803922 -0.420764E-02  0.343E-02    0.02       1.0  T
   6   -437.7810323 -0.640073E-03  0.209E-02    0.01       1.0  T
   7   -437.7812253 -0.193053E-03  0.107E-02    0.01       1.0  T
   8   -437.7812802 -0.548439E-04  0.298E-03    0.01       2.3  T
   9   -437.7812829 -0.273432E-05  0.157E-03    0.01       4.3  T
  10   -437.7812814  0.148692E-05  0.187E-03    0.01       3.6  T
  11   -437.7812842 -0.273208E-05  0.820E-04    0.01       8.2  T
  12   -437.7812847 -0.516704E-06  0.363E-04    0.01      18.5  T
  13   -437.7812847 -0.205991E-07  0.317E-04    0.01      21.2  T
     SCC iter.                  ...        0 min,  2.484 sec
     gradient                   ...        0 min,  0.220 sec
 * total energy  :  -432.8173456 Eh     change       -0.1302679E-03 Eh
   gradient norm :     0.0045610 Eh/α   predicted    -0.9332643E-04 ( -28.36%)
   displ. norm   :     0.4290375 α      lambda       -0.1673190E-03
   maximum displ.:     0.1759417 α      in ANC's #11, #5, #3, ...

........................................................................
.............................. CYCLE   15 ..............................
........................................................................

 iter      E             dE          RMSdq      gap      omega  full diag
   1   -437.7815036 -0.437782E+03  0.309E-02    0.01       0.0  T
   2   -437.7813651  0.138533E-03  0.227E-02    0.01       1.0  T
   3   -437.7740060  0.735914E-02  0.105E-01    0.03       1.0  T
   4   -437.7632110  0.107950E-01  0.133E-01    0.03       1.0  T
   5   -437.7804768 -0.172658E-01  0.338E-02    0.02       1.0  T
   6   -437.7812039 -0.727160E-03  0.218E-02    0.01       1.0  T
   7   -437.7814212 -0.217291E-03  0.127E-02    0.01       1.0  T
   8   -437.7815013 -0.800957E-04  0.458E-03    0.01       1.5  T
   9   -437.7815068 -0.550166E-05  0.305E-03    0.01       2.2  T
  10   -437.7815105 -0.363451E-05  0.150E-03    0.01       4.5  T
  11   -437.7815118 -0.136709E-05  0.762E-04    0.01       8.8  T
  12   -437.7815120 -0.202580E-06  0.380E-04    0.01      17.6  T
  13   -437.7815121 -0.723341E-07  0.175E-04    0.01      38.3  T
     SCC iter.                  ...        0 min,  2.388 sec
     gradient                   ...        0 min,  0.218 sec
 * total energy  :  -432.8174841 Eh     change       -0.1384164E-03 Eh
   gradient norm :     0.0043184 Eh/α   predicted    -0.9905932E-04 ( -28.43%)
   displ. norm   :     0.4690474 α      lambda       -0.1815095E-03
   maximum displ.:     0.1996032 α      in ANC's #5, #3, #11, ...

........................................................................
.............................. CYCLE   16 ..............................
........................................................................

 iter      E             dE          RMSdq      gap      omega  full diag
   1   -437.7816187 -0.437782E+03  0.330E-02    0.01       0.0  T
   2   -437.7801752  0.144351E-02  0.431E-02    0.02       1.0  T
   3   -437.7422780  0.378972E-01  0.195E-01    0.05       1.0  T
   4   -437.7739574 -0.316794E-01  0.104E-01    0.03       1.0  T
   5   -437.7813202 -0.736281E-02  0.243E-02    0.01       1.0  T
   6   -437.7813452 -0.250017E-04  0.210E-02    0.01       1.0  T
   7   -437.7814694 -0.124149E-03  0.162E-02    0.01       1.0  T
   8   -437.7816186 -0.149194E-03  0.471E-03    0.01       1.4  T
   9   -437.7816277 -0.910648E-05  0.304E-03    0.01       2.2  T
  10   -437.7816306 -0.297233E-05  0.173E-03    0.01       3.9  T
  11   -437.7816318 -0.120095E-05  0.967E-04    0.01       6.9  T
  12   -437.7816324 -0.514993E-06  0.478E-04    0.01      14.1  T
  13   -437.7816325 -0.144169E-06  0.190E-04    0.01      35.3  T
     SCC iter.                  ...        0 min,  2.428 sec
     gradient                   ...        0 min,  0.232 sec
 * total energy  :  -432.8176362 Eh     change       -0.1521525E-03 Eh
   gradient norm :     0.0043341 Eh/α   predicted    -0.1107237E-03 ( -27.23%)
   displ. norm   :     0.5094032 α      lambda       -0.1970391E-03
   maximum displ.:     0.2261560 α      in ANC's #5, #3, #11, ...

........................................................................
.............................. CYCLE   17 ..............................
........................................................................

 iter      E             dE          RMSdq      gap      omega  full diag
   1   -437.7816900 -0.437782E+03  0.344E-02    0.01       0.0  T
   2   -437.7797460  0.194407E-02  0.498E-02    0.03       1.0  T
   3   -437.7489949  0.307511E-01  0.179E-01    0.04       1.0  T
   4   -437.7671305 -0.181356E-01  0.136E-01    0.04       1.0  T
   5   -437.7809965 -0.138661E-01  0.352E-02    0.01       1.0  T
   6   -437.7813974 -0.400828E-03  0.235E-02    0.01       1.0  T
   7   -437.7816155 -0.218098E-03  0.130E-02    0.01       1.0  T
   8   -437.7816796 -0.641750E-04  0.604E-03    0.01       1.1  T
   9   -437.7817048 -0.252202E-04  0.281E-03    0.01       2.4  T
  10   -437.7817030  0.180124E-05  0.274E-03    0.01       2.4  T
  11   -437.7817081 -0.504186E-05  0.108E-03    0.01       6.2  T
  12   -437.7817088 -0.666746E-06  0.472E-04    0.01      14.2  T
  13   -437.7817089 -0.149342E-06  0.256E-04    0.01      26.2  T
     SCC iter.                  ...        0 min,  2.817 sec
     gradient                   ...        0 min,  0.220 sec
 * total energy  :  -432.8178039 Eh     change       -0.1676965E-03 Eh
   gradient norm :     0.0049221 Eh/α   predicted    -0.1240875E-03 ( -26.00%)
   displ. norm   :     0.5493147 α      lambda       -0.2186155E-03
   maximum displ.:     0.2513674 α      in ANC's #5, #3, #11, ...

........................................................................
.............................. CYCLE   18 ..............................
........................................................................

 iter      E             dE          RMSdq      gap      omega  full diag
   1   -437.7817896 -0.437782E+03  0.351E-02    0.01       0.0  T
   2   -437.7806457  0.114387E-02  0.461E-02    0.01       1.0  T
   3   -437.7758142  0.483150E-02  0.957E-02    0.01       1.0  T
   4   -437.7810196 -0.520537E-02  0.397E-02    0.01       1.0  T
   5   -437.7809776  0.419556E-04  0.335E-02    0.01       1.0  T
   6   -437.7790973  0.188033E-02  0.510E-02    0.03       1.0  T
   7   -437.7815929 -0.249560E-02  0.174E-02    0.01       1.0  T
   8   -437.7817755 -0.182567E-03  0.702E-03    0.01       1.0  T
   9   -437.7818081 -0.326805E-04  0.310E-03    0.01       2.2  T
  10   -437.7818096 -0.143853E-05  0.224E-03    0.01       3.0  T
  11   -437.7818127 -0.306780E-05  0.900E-04    0.01       7.5  T
  12   -437.7818128 -0.175738E-06  0.507E-04    0.01      13.2  T
  13   -437.7818130 -0.157295E-06  0.257E-04    0.01      26.1  T
     SCC iter.                  ...        0 min,  2.601 sec
     gradient                   ...        0 min,  0.231 sec
 * total energy  :  -432.8179942 Eh     change       -0.1903267E-03 Eh
   gradient norm :     0.0056066 Eh/α   predicted    -0.1422914E-03 ( -25.24%)
   displ. norm   :     0.5967483 α      lambda       -0.2564555E-03
   maximum displ.:     0.2789235 α      in ANC's #5, #3, #11, ...

........................................................................
.............................. CYCLE   19 ..............................
........................................................................

 iter      E             dE          RMSdq      gap      omega  full diag
   1   -437.7820263 -0.437782E+03  0.366E-02    0.01       0.0  T
   2   -437.7746001  0.742627E-02  0.944E-02    0.01       1.0  T
   3   -437.7696770  0.492300E-02  0.109E-01    0.05       1.0  T
   4   -437.7545011  0.151759E-01  0.176E-01    0.03       1.0  T
   5   -437.7814758 -0.269747E-01  0.295E-02    0.01       1.0  T
   6   -437.7818854 -0.409554E-03  0.201E-02    0.01       1.0  T
   7   -437.7819288 -0.434368E-04  0.151E-02    0.02       1.0  T
   8   -437.7819373 -0.841379E-05  0.122E-02    0.02       1.0  T
   9   -437.7820725 -0.135237E-03  0.292E-03    0.01       2.3  T
  10   -437.7820698  0.267356E-05  0.297E-03    0.01       2.3  T
  11   -437.7820731 -0.323178E-05  0.196E-03    0.01       3.4  T
  12   -437.7820758 -0.277442E-05  0.841E-04    0.01       8.0  T
  13   -437.7820764 -0.550227E-06  0.309E-04    0.01      21.7  T
  14   -437.7820763  0.458285E-07  0.308E-04    0.01      21.8  T
     SCC iter.                  ...        0 min,  2.828 sec
     gradient                   ...        0 min,  0.222 sec
 * total energy  :  -432.8182221 Eh     change       -0.2278682E-03 Eh
   gradient norm :     0.0058917 Eh/α   predicted    -0.1738925E-03 ( -23.69%)
   displ. norm   :     0.6469823 α      lambda       -0.3091077E-03
   maximum displ.:     0.3063356 α      in ANC's #5, #3, #9, ...

........................................................................
.............................. CYCLE   20 ..............................
........................................................................

 iter      E             dE          RMSdq      gap      omega  full diag
   1   -437.7823797 -0.437782E+03  0.393E-02    0.02       0.0  T
   2   -437.7453327  0.370470E-01  0.196E-01    0.05       1.0  T
   3   -437.7749254 -0.295928E-01  0.861E-02    0.04       1.0  T
   4   -437.7690882  0.583728E-02  0.131E-01    0.01       1.0  T
   5   -437.7806356 -0.115474E-01  0.499E-02    0.00       1.0  T
   6   -437.7816621 -0.102649E-02  0.384E-02    0.01       1.0  T
   7   -437.7824624 -0.800293E-03  0.101E-02    0.01       1.0  T
   8   -437.7824062  0.561762E-04  0.114E-02    0.02       1.0  T
   9   -437.7825152 -0.109007E-03  0.393E-03    0.01       1.7  T
  10   -437.7825187 -0.353514E-05  0.317E-03    0.01       2.1  T
  11   -437.7825229 -0.413830E-05  0.171E-03    0.01       3.9  T
  12   -437.7825245 -0.162555E-05  0.858E-04    0.01       7.8  T
  13   -437.7825250 -0.488515E-06  0.354E-04    0.01      19.0  T
  14   -437.7825250  0.321406E-07  0.328E-04    0.01      20.5  T
     SCC iter.                  ...        0 min,  2.699 sec
     gradient                   ...        0 min,  0.223 sec
 * total energy  :  -432.8184999 Eh     change       -0.2777505E-03 Eh
   gradient norm :     0.0058316 Eh/α   predicted    -0.2192483E-03 ( -21.06%)
   displ. norm   :     0.6870868 α      lambda       -0.3616937E-03
   maximum displ.:     0.3273432 α      in ANC's #5, #3, #9, ...
 * RMSD in coord.:     0.4720647 α      energy gain  -0.8407662E-02 Eh

generating ANC from model Hessian ...
Using Lindh-Hessian (1995)
 Shifting diagonal of input Hessian by    1.0001245292990620E-002
 Lowest  eigenvalues of input Hessian
    0.010000    0.000000    0.000000    0.000000    0.000000    0.000000
    0.000000    0.010012    0.010023    0.010032    0.010084    0.010096
    0.010117    0.010180    0.010188    0.010214    0.010234    0.010253
 Highest eigenvalues
    2.664149    2.669389    2.670103    2.672032    2.681172    2.693137


........................................................................
.............................. CYCLE   21 ..............................
........................................................................

 iter      E             dE          RMSdq      gap      omega  full diag
   1   -437.7829106 -0.437783E+03  0.418E-02    0.02       0.0  T
   2   -437.7147618  0.681488E-01  0.264E-01    0.08       1.0  T
   3   -437.7767969 -0.620351E-01  0.805E-02    0.04       1.0  T
   4   -437.7723960  0.440093E-02  0.120E-01    0.00       1.0  T
   5   -437.7799860 -0.759004E-02  0.655E-02    0.00       1.0  T
   6   -437.7819452 -0.195916E-02  0.423E-02    0.01       1.0  T
   7   -437.7831129 -0.116774E-02  0.109E-02    0.01       1.0  T
   8   -437.7830494  0.634980E-04  0.123E-02    0.02       1.0  T
   9   -437.7831615 -0.112068E-03  0.493E-03    0.01       1.4  T
  10   -437.7831711 -0.958616E-05  0.335E-03    0.01       2.0  T
  11   -437.7831774 -0.628410E-05  0.137E-03    0.01       4.9  T
  12   -437.7831778 -0.429443E-06  0.867E-04    0.01       7.7  T
  13   -437.7831784 -0.607675E-06  0.367E-04    0.01      18.3  T
     SCC iter.                  ...        0 min,  2.463 sec
     gradient                   ...        0 min,  0.220 sec
 * total energy  :  -432.8188263 Eh     change       -0.3263984E-03 Eh
   gradient norm :     0.0061254 Eh/α   predicted     0.0000000E+00 (-100.00%)
   displ. norm   :     0.0739367 α      lambda       -0.8775755E-04
   maximum displ.:     0.0235579 α      in ANC's #1, #7, #8, ...

........................................................................
.............................. CYCLE   22 ..............................
........................................................................

 iter      E             dE          RMSdq      gap      omega  full diag
   1   -437.7836718 -0.437784E+03  0.826E-03    0.01       0.0  T
   2   -437.7835949  0.768430E-04  0.123E-02    0.01       1.0  T
   3   -437.7833164  0.278575E-03  0.218E-02    0.02       1.0  T
   4   -437.7816411  0.167529E-02  0.447E-02    0.00       1.0  T
   5   -437.7834315 -0.179043E-02  0.171E-02    0.02       1.0  T
   6   -437.7836180 -0.186512E-03  0.992E-03    0.01       1.0  T
   7   -437.7836605 -0.424284E-04  0.499E-03    0.01       1.3  T
   8   -437.7836734 -0.129446E-04  0.145E-03    0.01       4.6  T
   9   -437.7836740 -0.607196E-06  0.938E-04    0.01       7.2  T
  10   -437.7836744 -0.398752E-06  0.329E-04    0.01      20.4  T
     SCC iter.                  ...        0 min,  1.811 sec
     gradient                   ...        0 min,  0.222 sec
 * total energy  :  -432.8189254 Eh     change       -0.9911360E-04 Eh
   gradient norm :     0.0041708 Eh/α   predicted    -0.5533504E-04 ( -44.17%)
   displ. norm   :     0.3418688 α      lambda       -0.3828154E-03
   maximum displ.:     0.1116345 α      in ANC's #1, #7, #8, ...

........................................................................
.............................. CYCLE   23 ..............................
........................................................................

 iter      E             dE          RMSdq      gap      omega  full diag
   1   -437.7846703 -0.437785E+03  0.331E-02    0.01       0.0  T
   2   -437.7807633  0.390707E-02  0.706E-02    0.00       1.0  T
   3   -437.7704268  0.103364E-01  0.119E-01    0.05       1.0  T
   4   -437.7736365 -0.320967E-02  0.115E-01    0.02       1.0  T
   5   -437.7824715 -0.883501E-02  0.563E-02    0.02       1.0  T
   6   -437.7835237 -0.105217E-02  0.434E-02    0.02       1.0  T
   7   -437.7845185 -0.994801E-03  0.190E-02    0.01       1.0  T
   8   -437.7846996 -0.181163E-03  0.623E-03    0.01       1.1  T
   9   -437.7847062 -0.652900E-05  0.439E-03    0.01       1.5  T
  10   -437.7847178 -0.116050E-04  0.138E-03    0.01       4.9  T
  11   -437.7847153  0.248332E-05  0.180E-03    0.01       3.7  T
  12   -437.7847184 -0.314949E-05  0.511E-04    0.01      13.1  T
  13   -437.7847185 -0.737018E-07  0.255E-04    0.01      26.3  T
  14   -437.7847185 -0.169484E-08  0.238E-04    0.01      28.3  T
     SCC iter.                  ...        0 min,  2.579 sec
     gradient                   ...        0 min,  0.224 sec
 * total energy  :  -432.8191748 Eh     change       -0.2494821E-03 Eh
   gradient norm :     0.0037417 Eh/α   predicted    -0.2137803E-03 ( -14.31%)
   displ. norm   :     0.2404436 α      lambda       -0.1288254E-03
   maximum displ.:     0.0841018 α      in ANC's #1, #7, #8, ...

........................................................................
.............................. CYCLE   24 ..............................
........................................................................

 iter      E             dE          RMSdq      gap      omega  full diag
   1   -437.7849122 -0.437785E+03  0.180E-02    0.01       0.0  T
   2   -437.7818876  0.302462E-02  0.564E-02    0.00       1.0  T
   3   -437.7821302 -0.242554E-03  0.528E-02    0.03       1.0  T
   4   -437.7832692 -0.113902E-02  0.506E-02    0.00       1.0  T
   5   -437.7843670 -0.109779E-02  0.278E-02    0.02       1.0  T
   6   -437.7845331 -0.166142E-03  0.238E-02    0.02       1.0  T
   7   -437.7848894 -0.356286E-03  0.818E-03    0.01       1.0  T
   8   -437.7849222 -0.327496E-04  0.338E-03    0.01       2.0  T
   9   -437.7849271 -0.488607E-05  0.180E-03    0.01       3.7  T
  10   -437.7849284 -0.132271E-05  0.801E-04    0.01       8.4  T
  11   -437.7849282  0.135130E-06  0.723E-04    0.01       9.3  T
  12   -437.7849287 -0.412943E-06  0.246E-04    0.01      27.3  T
     SCC iter.                  ...        0 min,  2.163 sec
     gradient                   ...        0 min,  0.220 sec
 * total energy  :  -432.8192818 Eh     change       -0.1069358E-03 Eh
   gradient norm :     0.0056673 Eh/α   predicted    -0.6829437E-04 ( -36.14%)
   displ. norm   :     0.4057791 α      lambda       -0.2222095E-03
   maximum displ.:     0.1454929 α      in ANC's #7, #1, #8, ...

........................................................................
.............................. CYCLE   25 ..............................
........................................................................

 iter      E             dE          RMSdq      gap      omega  full diag
   1   -437.7849199 -0.437785E+03  0.262E-02    0.01       0.0  T
   2   -437.7788258  0.609414E-02  0.799E-02    0.01       1.0  T
   3   -437.7796320 -0.806254E-03  0.729E-02    0.04       1.0  T
   4   -437.7815613 -0.192928E-02  0.745E-02    0.00       1.0  T
   5   -437.7840413 -0.248001E-02  0.323E-02    0.02       1.0  T
   6   -437.7842370 -0.195686E-03  0.313E-02    0.02       1.0  T
   7   -437.7848905 -0.653492E-03  0.989E-03    0.01       1.0  T
   8   -437.7849336 -0.431495E-04  0.495E-03    0.01       1.4  T
   9   -437.7849465 -0.128579E-04  0.226E-03    0.01       3.0  T
  10   -437.7849480 -0.156987E-05  0.136E-03    0.01       4.9  T
  11   -437.7849483 -0.222828E-06  0.953E-04    0.01       7.0  T
  12   -437.7849489 -0.641928E-06  0.361E-04    0.01      18.6  T
     SCC iter.                  ...        0 min,  2.211 sec
     gradient                   ...        0 min,  0.222 sec
 * total energy  :  -432.8194781 Eh     change       -0.1963667E-03 Eh
   gradient norm :     0.0065538 Eh/α   predicted    -0.1293990E-03 ( -34.10%)
   displ. norm   :     0.6044539 α      lambda       -0.3599935E-03
   maximum displ.:     0.2223517 α      in ANC's #7, #1, #8, ...

........................................................................
.............................. CYCLE   26 ..............................
........................................................................

 iter      E             dE          RMSdq      gap      omega  full diag
   1   -437.7845489 -0.437785E+03  0.357E-02    0.01       0.0  T
   2   -437.7775647  0.698420E-02  0.875E-02    0.01       1.0  T
   3   -437.7718180  0.574672E-02  0.112E-01    0.05       1.0  T
   4   -437.7769416 -0.512359E-02  0.110E-01    0.00       1.0  T
   5   -437.7835144 -0.657286E-02  0.324E-02    0.02       1.0  T
   6   -437.7845314 -0.101692E-02  0.104E-02    0.01       1.0  T
   7   -437.7845581 -0.267773E-04  0.643E-03    0.01       1.0  T
   8   -437.7845817 -0.235535E-04  0.332E-03    0.01       2.0  T
   9   -437.7845627  0.189800E-04  0.614E-03    0.01       1.1  T
  10   -437.7845815 -0.187810E-04  0.291E-03    0.01       2.3  T
  11   -437.7845860 -0.452069E-05  0.127E-03    0.01       5.3  T
  12   -437.7845870 -0.938291E-06  0.393E-04    0.01      17.1  T
  13   -437.7845870 -0.802148E-07  0.218E-04    0.01      30.8  T
     SCC iter.                  ...        0 min,  2.242 sec
     gradient                   ...        0 min,  0.219 sec
 * total energy  :  -432.8198008 Eh     change       -0.3226594E-03 Eh
   gradient norm :     0.0061794 Eh/α   predicted    -0.2457653E-03 ( -23.83%)
   displ. norm   :     0.6979098 α      lambda       -0.4382580E-03
   maximum displ.:     0.2649114 α      in ANC's #7, #1, #8, ...

........................................................................
.............................. CYCLE   27 ..............................
........................................................................

 iter      E             dE          RMSdq      gap      omega  full diag
   1   -437.7842494 -0.437784E+03  0.383E-02    0.01       0.0  T
   2   -437.7817565  0.249293E-02  0.592E-02    0.00       1.0  T
   3   -437.7615711  0.201854E-01  0.150E-01    0.07       1.0  T
   4   -437.7651749 -0.360380E-02  0.153E-01    0.02       1.0  T
   5   -437.7834112 -0.182363E-01  0.326E-02    0.02       1.0  T
   6   -437.7832596  0.151654E-03  0.389E-02    0.02       1.0  T
   7   -437.7841649 -0.905359E-03  0.134E-02    0.01       1.0  T
   8   -437.7842643 -0.994118E-04  0.463E-03    0.01       1.4  T
   9   -437.7842733 -0.897323E-05  0.309E-03    0.01       2.2  T
  10   -437.7842764 -0.308170E-05  0.215E-03    0.01       3.1  T
  11   -437.7842782 -0.179613E-05  0.102E-03    0.01       6.6  T
  12   -437.7842786 -0.398972E-06  0.562E-04    0.01      11.9  T
  13   -437.7842787 -0.656274E-07  0.396E-04    0.01      17.0  T
     SCC iter.                  ...        0 min,  2.524 sec
     gradient                   ...        0 min,  0.218 sec
 * total energy  :  -432.8201918 Eh     change       -0.3909600E-03 Eh
   gradient norm :     0.0058330 Eh/α   predicted    -0.3258671E-03 ( -16.65%)
   displ. norm   :     0.7297894 α      lambda       -0.4585575E-03
   maximum displ.:     0.2864607 α      in ANC's #7, #1, #8, ...

........................................................................
.............................. CYCLE   28 ..............................
........................................................................

 iter      E             dE          RMSdq      gap      omega  full diag
   1   -437.7844422 -0.437784E+03  0.370E-02    0.01       0.0  T
   2   -437.7828358  0.160640E-02  0.507E-02    0.00       1.0  T
   3   -437.7624944  0.203413E-01  0.149E-01    0.06       1.0  T
   4   -437.7610607  0.143377E-02  0.162E-01    0.03       1.0  T
   5   -437.7834737 -0.224130E-01  0.400E-02    0.01       1.0  T
   6   -437.7835757 -0.101991E-03  0.384E-02    0.01       1.0  T
   7   -437.7842743 -0.698592E-03  0.162E-02    0.02       1.0  T
   8   -437.7844507 -0.176437E-03  0.539E-03    0.01       1.2  T
   9   -437.7844639 -0.131911E-04  0.354E-03    0.01       1.9  T
  10   -437.7844690 -0.516592E-05  0.185E-03    0.01       3.6  T
  11   -437.7844699 -0.826218E-06  0.105E-03    0.01       6.4  T
  12   -437.7844705 -0.585355E-06  0.599E-04    0.01      11.2  T
  13   -437.7844706 -0.125630E-06  0.276E-04    0.01      24.3  T
     SCC iter.                  ...        0 min,  2.701 sec
     gradient                   ...        0 min,  0.225 sec
 * total energy  :  -432.8206069 Eh     change       -0.4151777E-03 Eh
   gradient norm :     0.0064632 Eh/α   predicted    -0.3513981E-03 ( -15.36%)
   displ. norm   :     0.7499322 α      lambda       -0.4939270E-03
   maximum displ.:     0.3037343 α      in ANC's #7, #1, #8, ...

........................................................................
.............................. CYCLE   29 ..............................
........................................................................

 iter      E             dE          RMSdq      gap      omega  full diag
   1   -437.7852134 -0.437785E+03  0.353E-02    0.01       0.0  T
   2   -437.7842613  0.952110E-03  0.419E-02    0.01       1.0  T
   3   -437.7628317  0.214296E-01  0.152E-01    0.06       1.0  T
   4   -437.7623408  0.490858E-03  0.156E-01    0.03       1.0  T
   5   -437.7839708 -0.216300E-01  0.452E-02    0.01       1.0  T
   6   -437.7843165 -0.345657E-03  0.390E-02    0.01       1.0  T
   7   -437.7850678 -0.751315E-03  0.158E-02    0.02       1.0  T
   8   -437.7851513 -0.835056E-04  0.943E-03    0.02       1.0  T
   9   -437.7852339 -0.826151E-04  0.302E-03    0.01       2.2  T
  10   -437.7852363 -0.235587E-05  0.208E-03    0.01       3.2  T
  11   -437.7852361  0.209686E-06  0.158E-03    0.01       4.2  T
  12   -437.7852383 -0.225645E-05  0.387E-04    0.01      17.3  T
  13   -437.7852384 -0.312072E-07  0.298E-04    0.01      22.5  T
  14   -437.7852383  0.523658E-07  0.332E-04    0.01      20.2  T
     SCC iter.                  ...        0 min,  2.725 sec
     gradient                   ...        0 min,  0.220 sec
 * total energy  :  -432.8210671 Eh     change       -0.4601305E-03 Eh
   gradient norm :     0.0071560 Eh/α   predicted    -0.3858631E-03 ( -16.14%)
   displ. norm   :     0.7701892 α      lambda       -0.5797324E-03
   maximum displ.:     0.3207311 α      in ANC's #7, #1, #8, ...

........................................................................
.............................. CYCLE   30 ..............................
........................................................................

 iter      E             dE          RMSdq      gap      omega  full diag
   1   -437.7866847 -0.437787E+03  0.362E-02    0.01       0.0  T
   2   -437.7819381  0.474663E-02  0.730E-02    0.01       1.0  T
   3   -437.7656468  0.162912E-01  0.142E-01    0.07       1.0  T
   4   -437.7814410 -0.157942E-01  0.805E-02    0.01       1.0  T
   5   -437.7844122 -0.297123E-02  0.584E-02    0.01       1.0  T
   6   -437.7862298 -0.181752E-02  0.288E-02    0.01       1.0  T
   7   -437.7864775 -0.247739E-03  0.193E-02    0.02       1.0  T
   8   -437.7864998 -0.222730E-04  0.144E-02    0.02       1.0  T
   9   -437.7867112 -0.211472E-03  0.313E-03    0.01       2.1  T
  10   -437.7867158 -0.459845E-05  0.202E-03    0.01       3.3  T
  11   -437.7867164 -0.568276E-06  0.153E-03    0.01       4.4  T
  12   -437.7867176 -0.116558E-05  0.562E-04    0.01      11.9  T
  13   -437.7867176  0.374916E-08  0.506E-04    0.01      13.3  T
  14   -437.7867175  0.327046E-07  0.473E-04    0.01      14.2  T
     SCC iter.                  ...        0 min,  2.828 sec
     gradient                   ...        0 min,  0.217 sec
 * total energy  :  -432.8216137 Eh     change       -0.5465844E-03 Eh
   gradient norm :     0.0074945 Eh/α   predicted    -0.4618127E-03 ( -15.51%)
   displ. norm   :     0.8005471 α      lambda       -0.6854111E-03
   maximum displ.:     0.3399195 α      in ANC's #7, #1, #2, ...

........................................................................
.............................. CYCLE   31 ..............................
........................................................................

 iter      E             dE          RMSdq      gap      omega  full diag
   1   -437.7879480 -0.437788E+03  0.399E-02    0.01       0.0  T
   2   -437.7697065  0.182415E-01  0.136E-01    0.03       1.0  T
   3   -437.7745450 -0.483850E-02  0.113E-01    0.05       1.0  T
   4   -437.7834246 -0.887961E-02  0.712E-02    0.01       1.0  T
   5   -437.7842665 -0.841889E-03  0.704E-02    0.00       1.0  T
   6   -437.7878246 -0.355819E-02  0.180E-02    0.01       1.0  T
   7   -437.7877241  0.100568E-03  0.201E-02    0.02       1.0  T
   8   -437.7878060 -0.819606E-04  0.153E-02    0.02       1.0  T
   9   -437.7879903 -0.184269E-03  0.561E-03    0.01       1.2  T
  10   -437.7880128 -0.225020E-04  0.254E-03    0.01       2.6  T
  11   -437.7880148 -0.199796E-05  0.153E-03    0.01       4.4  T
  12   -437.7880157 -0.926158E-06  0.810E-04    0.01       8.3  T
  13   -437.7880161 -0.375277E-06  0.343E-04    0.01      19.6  T
     SCC iter.                  ...        0 min,  2.586 sec
     gradient                   ...        0 min,  0.223 sec
 * total energy  :  -432.8222576 Eh     change       -0.6438911E-03 Eh
   gradient norm :     0.0080755 Eh/α   predicted    -0.5623444E-03 ( -12.66%)
   displ. norm   :     0.8254056 α      lambda       -0.7561320E-03
   maximum displ.:     0.3550803 α      in ANC's #7, #1, #2, ...

........................................................................
.............................. CYCLE   32 ..............................
........................................................................

 iter      E             dE          RMSdq      gap      omega  full diag
   1   -437.7883636 -0.437788E+03  0.429E-02    0.02       0.0  T
   2   -437.7500727  0.382910E-01  0.195E-01    0.05       1.0  T
   3   -437.7784752 -0.284025E-01  0.989E-02    0.05       1.0  T
   4   -437.7773137  0.116145E-02  0.125E-01    0.01       1.0  T
   5   -437.7854548 -0.814109E-02  0.599E-02    0.00       1.0  T
   6   -437.7877600 -0.230515E-02  0.335E-02    0.01       1.0  T
   7   -437.7883655 -0.605548E-03  0.158E-02    0.01       1.0  T
   8   -437.7883408  0.246639E-04  0.128E-02    0.02       1.0  T
   9   -437.7884910 -0.150124E-03  0.352E-03    0.01       1.9  T
  10   -437.7884931 -0.216395E-05  0.259E-03    0.01       2.6  T
  11   -437.7884964 -0.330050E-05  0.136E-03    0.01       4.9  T
  12   -437.7884968 -0.418083E-06  0.634E-04    0.01      10.6  T
  13   -437.7884971 -0.295741E-06  0.294E-04    0.01      22.8  T
     SCC iter.                  ...        0 min,  2.615 sec
     gradient                   ...        0 min,  0.219 sec
 * total energy  :  -432.8229648 Eh     change       -0.7072335E-03 Eh
   gradient norm :     0.0089194 Eh/α   predicted    -0.6356573E-03 ( -10.12%)
   displ. norm   :     0.8416235 α      lambda       -0.7917834E-03
   maximum displ.:     0.3659227 α      in ANC's #7, #1, #2, ...

........................................................................
.............................. CYCLE   33 ..............................
........................................................................

 iter      E             dE          RMSdq      gap      omega  full diag
   1   -437.7882328 -0.437788E+03  0.433E-02    0.02       0.0  T
   2   -437.7250558  0.631770E-01  0.251E-01    0.08       1.0  T
   3   -437.7826875 -0.576317E-01  0.770E-02    0.04       1.0  T
   4   -437.7774267  0.526076E-02  0.128E-01    0.00       1.0  T
   5   -437.7862349 -0.880818E-02  0.561E-02    0.01       1.0  T
   6   -437.7877192 -0.148431E-02  0.343E-02    0.01       1.0  T
   7   -437.7883262 -0.606978E-03  0.169E-02    0.01       1.0  T
   8   -437.7883884 -0.621630E-04  0.979E-03    0.02       1.0  T
   9   -437.7884600 -0.716551E-04  0.396E-03    0.01       1.7  T
  10   -437.7884672 -0.716470E-05  0.239E-03    0.01       2.8  T
  11   -437.7884681 -0.871808E-06  0.174E-03    0.01       3.9  T
  12   -437.7884701 -0.202151E-05  0.683E-04    0.01       9.8  T
  13   -437.7884704 -0.352025E-06  0.319E-04    0.01      21.0  T
  14   -437.7884705 -0.165729E-07  0.222E-04    0.01      30.2  T
     SCC iter.                  ...        0 min,  2.675 sec
     gradient                   ...        0 min,  0.227 sec
 * total energy  :  -432.8237091 Eh     change       -0.7443082E-03 Eh
   gradient norm :     0.0091596 Eh/α   predicted    -0.6763480E-03 (  -9.13%)
   displ. norm   :     0.8494740 α      lambda       -0.8289546E-03
   maximum displ.:     0.3722158 α      in ANC's #7, #1, #2, ...

........................................................................
.............................. CYCLE   34 ..............................
........................................................................

 iter      E             dE          RMSdq      gap      omega  full diag
   1   -437.7882550 -0.437788E+03  0.418E-02    0.02       0.0  T
   2   -437.7119055  0.763495E-01  0.275E-01    0.09       1.0  T
   3   -437.7857138 -0.738083E-01  0.566E-02    0.03       1.0  T
   4   -437.7807157  0.499815E-02  0.110E-01    0.01       1.0  T
   5   -437.7871068 -0.639107E-02  0.491E-02    0.01       1.0  T
   6   -437.7879585 -0.851707E-03  0.324E-02    0.01       1.0  T
   7   -437.7883594 -0.400890E-03  0.198E-02    0.02       1.0  T
   8   -437.7885306 -0.171237E-03  0.742E-03    0.01       1.0  T
   9   -437.7885546 -0.240328E-04  0.396E-03    0.01       1.7  T
  10   -437.7885627 -0.809756E-05  0.196E-03    0.01       3.4  T
  11   -437.7885617  0.991082E-06  0.178E-03    0.01       3.8  T
  12   -437.7885643 -0.251899E-05  0.725E-04    0.01       9.3  T
  13   -437.7885646 -0.352523E-06  0.374E-04    0.01      17.9  T
  14   -437.7885647 -0.432318E-07  0.207E-04    0.01      32.4  T
     SCC iter.                  ...        0 min,  2.624 sec
     gradient                   ...        0 min,  0.228 sec
 * total energy  :  -432.8244908 Eh     change       -0.7817014E-03 Eh
   gradient norm :     0.0084148 Eh/α   predicted    -0.7135854E-03 (  -8.71%)
   displ. norm   :     0.8539561 α      lambda       -0.8680687E-03
   maximum displ.:     0.3751949 α      in ANC's #7, #1, #2, ...

........................................................................
.............................. CYCLE   35 ..............................
........................................................................

 iter      E             dE          RMSdq      gap      omega  full diag
   1   -437.7887714 -0.437789E+03  0.398E-02    0.02       0.0  T
   2   -437.7127510  0.760204E-01  0.274E-01    0.09       1.0  T
   3   -437.7878938 -0.751428E-01  0.398E-02    0.02       1.0  T
   4   -437.7849693  0.292451E-02  0.827E-02    0.01       1.0  T
   5   -437.7879208 -0.295155E-02  0.433E-02    0.02       1.0  T
   6   -437.7884923 -0.571522E-03  0.314E-02    0.01       1.0  T
   7   -437.7888013 -0.308976E-03  0.228E-02    0.02       1.0  T
   8   -437.7890524 -0.251047E-03  0.671E-03    0.01       1.0  T
   9   -437.7890745 -0.221128E-04  0.291E-03    0.01       2.3  T
  10   -437.7890774 -0.296303E-05  0.174E-03    0.01       3.9  T
  11   -437.7890785 -0.103719E-05  0.830E-04    0.01       8.1  T
  12   -437.7890786 -0.133329E-06  0.500E-04    0.01      13.4  T
  13   -437.7890787 -0.958881E-07  0.321E-04    0.01      20.9  T
     SCC iter.                  ...        0 min,  2.509 sec
     gradient                   ...        0 min,  0.225 sec
 * total energy  :  -432.8253040 Eh     change       -0.8132416E-03 Eh
   gradient norm :     0.0074786 Eh/α   predicted    -0.7505542E-03 (  -7.71%)
   displ. norm   :     0.8555832 α      lambda       -0.8754010E-03
   maximum displ.:     0.3748022 α      in ANC's #7, #1, #2, ...

........................................................................
.............................. CYCLE   36 ..............................
........................................................................

 iter      E             dE          RMSdq      gap      omega  full diag
   1   -437.7897646 -0.437790E+03  0.375E-02    0.02       0.0  T
   2   -437.7396072  0.501573E-01  0.222E-01    0.07       1.0  T
   3   -437.7887839 -0.491766E-01  0.390E-02    0.03       1.0  T
   4   -437.7887985 -0.146022E-04  0.463E-02    0.02       1.0  T
   5   -437.7894552 -0.656758E-03  0.302E-02    0.02       1.0  T
   6   -437.7896513 -0.196054E-03  0.218E-02    0.02       1.0  T
   7   -437.7896220  0.292970E-04  0.217E-02    0.01       1.0  T
   8   -437.7898956 -0.273592E-03  0.816E-03    0.01       1.0  T
   9   -437.7899358 -0.402377E-04  0.259E-03    0.02       2.6  T
  10   -437.7899396 -0.377522E-05  0.165E-03    0.01       4.1  T
  11   -437.7899408 -0.115744E-05  0.101E-03    0.01       6.6  T
  12   -437.7899413 -0.528348E-06  0.321E-04    0.01      20.9  T
  13   -437.7899413 -0.248878E-08  0.256E-04    0.01      26.2  T
     SCC iter.                  ...        0 min,  2.610 sec
     gradient                   ...        0 min,  0.226 sec
 * total energy  :  -432.8261132 Eh     change       -0.8091550E-03 Eh
   gradient norm :     0.0075438 Eh/α   predicted    -0.7581081E-03 (  -6.31%)
   displ. norm   :     0.8492975 α      lambda       -0.8338946E-03
   maximum displ.:     0.3787135 α      in ANC's #1, #7, #2, ...

........................................................................
.............................. CYCLE   37 ..............................
........................................................................

 iter      E             dE          RMSdq      gap      omega  full diag
   1   -437.7909772 -0.437791E+03  0.358E-02    0.02       0.0  T
   2   -437.7769162  0.140610E-01  0.119E-01    0.03       1.0  T
   3   -437.7852551 -0.833884E-02  0.769E-02    0.04       1.0  T
   4   -437.7855803 -0.325215E-03  0.905E-02    0.01       1.0  T
   5   -437.7902665 -0.468619E-02  0.339E-02    0.02       1.0  T
   6   -437.7909422 -0.675678E-03  0.126E-02    0.02       1.0  T
   7   -437.7909823 -0.401143E-04  0.965E-03    0.01       1.0  T
   8   -437.7909962 -0.138877E-04  0.841E-03    0.02       1.0  T
   9   -437.7910246 -0.284642E-04  0.350E-03    0.02       1.9  T
  10   -437.7910293 -0.471601E-05  0.167E-03    0.02       4.0  T
  11   -437.7910296 -0.218572E-06  0.113E-03    0.02       6.0  T
  12   -437.7910307 -0.115649E-05  0.263E-04    0.02      25.6  T
  13   -437.7910307 -0.475956E-08  0.204E-04    0.02      33.0  T
  14   -437.7910307 -0.312900E-08  0.176E-04    0.02      38.1  T
     SCC iter.                  ...        0 min,  2.781 sec
     gradient                   ...        0 min,  0.226 sec
 * total energy  :  -432.8268729 Eh     change       -0.7597227E-03 Eh
   gradient norm :     0.0078532 Eh/α   predicted    -0.7176954E-03 (  -5.53%)
   displ. norm   :     0.8227199 α      lambda       -0.7592097E-03
   maximum displ.:     0.3799393 α      in ANC's #1, #7, #2, ...

........................................................................
.............................. CYCLE   38 ..............................
........................................................................

 iter      E             dE          RMSdq      gap      omega  full diag
   1   -437.7925437 -0.437793E+03  0.349E-02    0.02       0.0  T
   2   -437.7908707  0.167302E-02  0.483E-02    0.01       1.0  T
   3   -437.7701820  0.206887E-01  0.151E-01    0.07       1.0  T
   4   -437.7770827 -0.690068E-02  0.134E-01    0.02       1.0  T
   5   -437.7915736 -0.144909E-01  0.400E-02    0.02       1.0  T
   6   -437.7925025 -0.928920E-03  0.119E-02    0.02       1.0  T
   7   -437.7924045  0.980369E-04  0.180E-02    0.02       1.0  T
   8   -437.7925549 -0.150427E-03  0.563E-03    0.02       1.2  T
   9   -437.7925672 -0.122807E-04  0.236E-03    0.02       2.8  T
  10   -437.7925690 -0.183790E-05  0.188E-03    0.02       3.6  T
  11   -437.7925695 -0.462047E-06  0.117E-03    0.02       5.7  T
  12   -437.7925706 -0.112570E-05  0.468E-04    0.02      14.3  T
  13   -437.7925707 -0.106124E-06  0.304E-04    0.02      22.1  T
  14   -437.7925707 -0.298888E-07  0.181E-04    0.02      37.0  T
     SCC iter.                  ...        0 min,  3.188 sec
     gradient                   ...        0 min,  0.223 sec
 * total energy  :  -432.8275562 Eh     change       -0.6833284E-03 Eh
   gradient norm :     0.0071151 Eh/α   predicted    -0.6365532E-03 (  -6.85%)
   displ. norm   :     0.7800990 α      lambda       -0.6919166E-03
   maximum displ.:     0.3763586 α      in ANC's #1, #2, #7, ...

........................................................................
.............................. CYCLE   39 ..............................
........................................................................

 iter      E             dE          RMSdq      gap      omega  full diag
   1   -437.7946373 -0.437795E+03  0.351E-02    0.02       0.0  T
   2   -437.7934490  0.118832E-02  0.455E-02    0.02       1.0  T
   3   -437.7794843  0.139646E-01  0.132E-01    0.02       1.0  T
   4   -437.7720243  0.746000E-02  0.156E-01    0.07       1.0  T
   5   -437.7925579 -0.205336E-01  0.528E-02    0.01       1.0  T
   6   -437.7945903 -0.203231E-02  0.128E-02    0.02       1.0  T
   7   -437.7945007  0.895168E-04  0.185E-02    0.02       1.0  T
   8   -437.7946492 -0.148462E-03  0.685E-03    0.02       1.0  T
   9   -437.7946642 -0.150022E-04  0.353E-03    0.02       1.9  T
  10   -437.7946706 -0.643067E-05  0.210E-03    0.02       3.2  T
  11   -437.7946712 -0.570439E-06  0.136E-03    0.02       4.9  T
  12   -437.7946726 -0.140546E-05  0.743E-04    0.02       9.0  T
  13   -437.7946728 -0.228983E-06  0.334E-04    0.02      20.1  T
  14   -437.7946729 -0.416232E-07  0.198E-04    0.02      33.9  T
     SCC iter.                  ...        0 min,  2.693 sec
     gradient                   ...        0 min,  0.214 sec
 * total energy  :  -432.8281811 Eh     change       -0.6248941E-03 Eh
   gradient norm :     0.0058070 Eh/α   predicted    -0.5564948E-03 ( -10.95%)
   displ. norm   :     0.7626523 α      lambda       -0.6870312E-03
   maximum displ.:     0.3804032 α      in ANC's #1, #2, #7, ...

........................................................................
.............................. CYCLE   40 ..............................
........................................................................

 iter      E             dE          RMSdq      gap      omega  full diag
   1   -437.7966604 -0.437797E+03  0.370E-02    0.02       0.0  T
   2   -437.7952097  0.145076E-02  0.508E-02    0.02       1.0  T
   3   -437.7858857  0.932401E-02  0.117E-01    0.01       1.0  T
   4   -437.7717581  0.141275E-01  0.162E-01    0.07       1.0  T
   5   -437.7935136 -0.217554E-01  0.617E-02    0.01       1.0  T
   6   -437.7964363 -0.292275E-02  0.229E-02    0.02       1.0  T
   7   -437.7962065  0.229828E-03  0.312E-02    0.02       1.0  T
   8   -437.7966736 -0.467134E-03  0.671E-03    0.02       1.0  T
   9   -437.7966904 -0.168012E-04  0.432E-03    0.02       1.6  T
  10   -437.7967016 -0.111841E-04  0.182E-03    0.02       3.7  T
  11   -437.7967004  0.126725E-05  0.168E-03    0.02       4.0  T
  12   -437.7967025 -0.214220E-05  0.883E-04    0.02       7.6  T
  13   -437.7967031 -0.643874E-06  0.380E-04    0.02      17.7  T
  14   -437.7967032 -0.215462E-07  0.243E-04    0.02      27.6  T
     SCC iter.                  ...        0 min,  2.686 sec
     gradient                   ...        0 min,  0.224 sec
 * total energy  :  -432.8288189 Eh     change       -0.6377539E-03 Eh
   gradient norm :     0.0059985 Eh/α   predicted    -0.5433178E-03 ( -14.81%)
   displ. norm   :     0.7836852 α      lambda       -0.7657965E-03
   maximum displ.:     0.3956384 α      in ANC's #1, #2, #7, ...

........................................................................
.............................. CYCLE   41 ..............................
........................................................................

 iter      E             dE          RMSdq      gap      omega  full diag
   1   -437.7979802 -0.437798E+03  0.408E-02    0.02       0.0  T
   2   -437.7935343  0.444599E-02  0.761E-02    0.01       1.0  T
   3   -437.7754549  0.180793E-01  0.153E-01    0.07       1.0  T
   4   -437.7701933  0.526161E-02  0.181E-01    0.03       1.0  T
   5   -437.7969862 -0.267928E-01  0.429E-02    0.02       1.0  T
   6   -437.7972620 -0.275839E-03  0.381E-02    0.01       1.0  T
   7   -437.7976227 -0.360727E-03  0.275E-02    0.02       1.0  T
   8   -437.7979049 -0.282217E-03  0.118E-02    0.02       1.0  T
   9   -437.7980171 -0.112207E-03  0.492E-03    0.02       1.4  T
  10   -437.7980294 -0.123008E-04  0.224E-03    0.02       3.0  T
  11   -437.7980277  0.175043E-05  0.223E-03    0.02       3.0  T
  12   -437.7980320 -0.431867E-05  0.729E-04    0.02       9.2  T
  13   -437.7980320  0.462263E-07  0.602E-04    0.02      11.1  T
  14   -437.7980322 -0.182116E-06  0.350E-04    0.02      19.2  T
     SCC iter.                  ...        0 min,  2.553 sec
     gradient                   ...        0 min,  0.221 sec
 * total energy  :  -432.8295536 Eh     change       -0.7347535E-03 Eh
   gradient norm :     0.0082171 Eh/α   predicted    -0.6180655E-03 ( -15.88%)
[...]
   201   1 H    0.995 --   185 C    0.980
   202   1 H    0.998 --   185 C    0.987
   203   1 H    0.998 --   185 C    0.981
   204   1 H    0.997 --   186 C    0.957
   205   1 H    0.991 --   186 C    0.957
   206   1 H    0.998 --   177 C    0.979
   207   1 H    0.996 --   177 C    0.977
   208   1 H    0.994 --   177 C    0.974
   209   1 H    0.995 --   174 C    0.972
   210   1 H    0.995 --   174 C    0.966
   211   1 H    0.999 --   174 C    0.978
   212   1 H    0.998 --   180 C    0.981
   213   1 H    0.991 --   180 C    0.965
   214   1 H    0.997 --   180 C    0.978
   215   1 H    0.994 --   151 C    0.963
   216   1 H    0.991 --   153 C    0.957
   217   1 H    0.987 --   157 C    0.954
   218   1 H    0.989 --   141 C    0.956
   219   1 H    0.986 --   132 C    0.954
   220   1 H    0.993 --   126 C    0.962
   221   1 H    0.991 --   128 C    0.955
   222   1 H    0.987 --   116 C    0.951
 ---------------------------------------------------------------------------

Topologies differ in total number of bonds
Writing corrected topology to xtbtopo.mol

molecular dipole:
                 x           y           z       tot (Debye)
 q only:       -0.163       0.729      -2.501
   full:       -0.695       0.415      -3.733       9.708
molecular quadrupole (traceless):
                xx          xy          yy          xz          yz          zz
 q only:       20.013     -97.136      34.865      14.197      41.500     -54.878
  q+dip:        1.240    -106.145      56.537      30.260      35.417     -57.777
   full:      -16.626    -110.025      48.671      32.679      34.841     -32.045

           -------------------------------------------------
          |                Geometry Summary                 |
           -------------------------------------------------

      molecular mass/u    :     2248.0656617
   center of mass at/Å    :       -0.7396627       0.3750008       4.8199529
  moments of inertia/u·Å² :        0.5664372E+05   0.7377840E+05   0.7661346E+05
rotational constants/cm⁻¹ :        0.2976081E-03   0.2284901E-03   0.2200349E-03

 * 207 selected distances

     #   Z          #   Z                                           value/Å
     1   6 C        2   6 C                                       1.4057074
     2   6 C        3   6 C                                       1.3917010
     3   6 C        4   6 C                                       1.4258566
     4   6 C        5   6 C                                       1.4333421
     1   6 C        6   6 C                                       1.4120362
     5   6 C        6   6 C                                       1.3721329
     7   6 C        8   6 C                                       1.4080975
     4   6 C       10   7 N                                       1.3265563
     9   6 C       10   7 N                                       1.3399601
    12   6 C       13   7 N                                       1.3230635
     8   6 C       14   6 C                                       1.4322213
    13   7 N       14   6 C                                       1.3352212
    14   6 C       15   6 C                                       1.4052953
    15   6 C       16   6 C                                       1.3794916
     9   6 C       17   6 C                                       1.4090757
    16   6 C       17   6 C                                       1.3790148
    11   6 C       18   6 C                                       1.4206664
    18   6 C       19   6 C                                       1.4284619
    19   6 C       20   6 C                                       1.4028066
    12   6 C       21   6 C                                       1.4294996
    20   6 C       21   6 C                                       1.3678573
     2   6 C       22   8 O                                       1.3096445
    26   6 C       27   6 C                                       1.4019209
    27   6 C       28   6 C                                       1.3910621
    28   6 C       29   6 C                                       1.4266074
    29   6 C       30   6 C                                       1.4345250
    26   6 C       31   6 C                                       1.4077760
    30   6 C       31   6 C                                       1.3711258
    32   6 C       33   6 C                                       1.4077890
    29   6 C       35   7 N                                       1.3270096
    34   6 C       35   7 N                                       1.3397880
    37   6 C       38   7 N                                       1.3227239
    33   6 C       39   6 C                                       1.4325447
    38   7 N       39   6 C                                       1.3354282
    39   6 C       40   6 C                                       1.4059162
    40   6 C       41   6 C                                       1.3802180
    34   6 C       42   6 C                                       1.4090506
    41   6 C       42   6 C                                       1.3785524
    36   6 C       43   6 C                                       1.4211331
    43   6 C       44   6 C                                       1.4325079
    44   6 C       45   6 C                                       1.4010952
    37   6 C       46   6 C                                       1.4266027
    45   6 C       46   6 C                                       1.3665495
    27   6 C       47   8 O                                       1.3099664
    22   8 O       51   5 B                                       1.4267646
    47   8 O       51   5 B                                       1.4330598
    25  16 S       52   8 O                                       1.4437654
    53   8 O       54   6 C                                       1.4105301
    24  16 S       55   8 O                                       1.6401845 (max)
    55   8 O       56   6 C                                       1.4154962
    24  16 S       57   8 O                                       1.4653680
    48  16 S       58   8 O                                       1.4475562
    59   8 O       60   6 C                                       1.4067701
    50  16 S       61   8 O                                       1.4486408
    62   8 O       63   6 C                                       1.4049457
    49  16 S       64   8 O                                       1.4541325
    65   8 O       66   6 C                                       1.4106731
    23  16 S       67   8 O                                       1.4495141
    68   8 O       69   6 C                                       1.4083977
    18   6 C       70   7 N                                       1.3781251
    51   5 B       70   7 N                                       1.5362654
    70   7 N       72   6 C                                       1.4539222
    71   6 C       72   6 C                                       1.5300972
    43   6 C       73   7 N                                       1.3792390
    51   5 B       73   7 N                                       1.5335006
    73   7 N       75   6 C                                       1.4543759
    74   6 C       75   6 C                                       1.5306195
    60   6 C       76   1 H                                       1.0892029
    60   6 C       77   1 H                                       1.0943363
    60   6 C       78   1 H                                       1.0937763
    56   6 C       79   1 H                                       1.0894908
    56   6 C       80   1 H                                       1.0935172
    56   6 C       81   1 H                                       1.0928250
    54   6 C       82   1 H                                       1.0888169
    54   6 C       83   1 H                                       1.0928828
    54   6 C       84   1 H                                       1.0944130
    71   6 C       85   1 H                                       1.0867020
    71   6 C       86   1 H                                       1.0875124
    71   6 C       87   1 H                                       1.0866084
    72   6 C       88   1 H                                       1.0950623
    72   6 C       89   1 H                                       1.0892377
    74   6 C       90   1 H                                       1.0867887
    74   6 C       91   1 H                                       1.0879034
    74   6 C       92   1 H                                       1.0868715
    75   6 C       93   1 H                                       1.0933522
    75   6 C       94   1 H                                       1.0890669
    66   6 C       95   1 H                                       1.0941490
    66   6 C       96   1 H                                       1.0930020
    66   6 C       97   1 H                                       1.0894538
    63   6 C       98   1 H                                       1.0889438
    63   6 C       99   1 H                                       1.0950110
    63   6 C      100   1 H                                       1.0945624
    69   6 C      101   1 H                                       1.0929573
    69   6 C      102   1 H                                       1.0896303
    69   6 C      103   1 H                                       1.0931514
    40   6 C      104   1 H                                       1.0780307 (min)
    42   6 C      105   1 H                                       1.0792092
    46   6 C      106   1 H                                       1.0787318
    30   6 C      107   1 H                                       1.0794932
    21   6 C      108   1 H                                       1.0784044
    15   6 C      109   1 H                                       1.0780352
    17   6 C      110   1 H                                       1.0790239
     5   6 C      111   1 H                                       1.0797666
   112   6 C      113   6 C                                       1.4175812
   113   6 C      114   6 C                                       1.3929914
   114   6 C      115   6 C                                       1.4305556
   115   6 C      116   6 C                                       1.4313854
   112   6 C      117   6 C                                       1.4145827
   116   6 C      117   6 C                                       1.3673615
   118   6 C      119   6 C                                       1.4085100
   119   6 C      120   6 C                                       1.4374704
   115   6 C      121   7 N                                       1.3214721
   120   6 C      121   7 N                                       1.3399201
   123   6 C      124   7 N                                       1.3182798
   119   6 C      125   6 C                                       1.4328698
   124   7 N      125   6 C                                       1.3395958
   125   6 C      126   6 C                                       1.4069264
   126   6 C      127   6 C                                       1.3810160
   120   6 C      128   6 C                                       1.4064670
   127   6 C      128   6 C                                       1.3780366
   122   6 C      129   6 C                                       1.4148727
   129   6 C      130   6 C                                       1.4315818
   130   6 C      131   6 C                                       1.4062858
   123   6 C      132   6 C                                       1.4356609
   131   6 C      132   6 C                                       1.3664725
   113   6 C      133   8 O                                       1.3190417
   137   6 C      138   6 C                                       1.4199737
   138   6 C      139   6 C                                       1.3870040
   139   6 C      140   6 C                                       1.4294855
   140   6 C      141   6 C                                       1.4341879
   137   6 C      142   6 C                                       1.4160214
   141   6 C      142   6 C                                       1.3684833
   143   6 C      144   6 C                                       1.4091300
   144   6 C      145   6 C                                       1.4386428
   140   6 C      146   7 N                                       1.3197575
   145   6 C      146   7 N                                       1.3415628
   148   6 C      149   7 N                                       1.3203372
   144   6 C      150   6 C                                       1.4320252
   149   7 N      150   6 C                                       1.3364289
   150   6 C      151   6 C                                       1.4083556
   151   6 C      152   6 C                                       1.3791354
   145   6 C      153   6 C                                       1.4041363
   152   6 C      153   6 C                                       1.3806156
   147   6 C      154   6 C                                       1.4221087
   154   6 C      155   6 C                                       1.4359696
   155   6 C      156   6 C                                       1.4044148
   148   6 C      157   6 C                                       1.4304374
   156   6 C      157   6 C                                       1.3674531
   138   6 C      158   8 O                                       1.3187631
   133   8 O      162   5 B                                       1.4107380
   158   8 O      162   5 B                                       1.4047972
   136  16 S      163   8 O                                       1.4486489
   164   8 O      165   6 C                                       1.4034017
   166   8 O      167   6 C                                       1.4153862
   135  16 S      168   8 O                                       1.4511764
   159  16 S      169   8 O                                       1.4545363
   170   8 O      171   6 C                                       1.4148386
   161  16 S      172   8 O                                       1.4459058
   173   8 O      174   6 C                                       1.4065697
   160  16 S      175   8 O                                       1.4472464
   176   8 O      177   6 C                                       1.4098617
   134  16 S      178   8 O                                       1.4500495
   179   8 O      180   6 C                                       1.4124581
   129   6 C      181   7 N                                       1.3664039
   162   5 B      181   7 N                                       1.5540805
   181   7 N      183   6 C                                       1.4495363
   182   6 C      183   6 C                                       1.5258524
   154   6 C      184   7 N                                       1.3684054
   162   5 B      184   7 N                                       1.5825446
   184   7 N      186   6 C                                       1.4611632
   185   6 C      186   6 C                                       1.5337194
   171   6 C      187   1 H                                       1.0904359
   171   6 C      188   1 H                                       1.0920549
   171   6 C      189   1 H                                       1.0939012
   167   6 C      190   1 H                                       1.0923676
   167   6 C      191   1 H                                       1.0929824
   167   6 C      192   1 H                                       1.0889565
   165   6 C      193   1 H                                       1.0892240
   165   6 C      194   1 H                                       1.0949136
   165   6 C      195   1 H                                       1.0947390
   182   6 C      196   1 H                                       1.0823600
   182   6 C      197   1 H                                       1.0873254
   182   6 C      198   1 H                                       1.0866460
   183   6 C      199   1 H                                       1.0930805
   183   6 C      200   1 H                                       1.0866946
   185   6 C      201   1 H                                       1.0876151
   185   6 C      202   1 H                                       1.0878772
   185   6 C      203   1 H                                       1.0865028
   186   6 C      204   1 H                                       1.0913373
   186   6 C      205   1 H                                       1.0879035
   177   6 C      206   1 H                                       1.0944599
   177   6 C      207   1 H                                       1.0931148
   177   6 C      208   1 H                                       1.0894298
   174   6 C      209   1 H                                       1.0889907
   174   6 C      210   1 H                                       1.0947237
   174   6 C      211   1 H                                       1.0939392
   180   6 C      212   1 H                                       1.0926696
   180   6 C      213   1 H                                       1.0902275
   180   6 C      214   1 H                                       1.0927263
   151   6 C      215   1 H                                       1.0780366
   153   6 C      216   1 H                                       1.0789433
   157   6 C      217   1 H                                       1.0793809
   141   6 C      218   1 H                                       1.0782885
   132   6 C      219   1 H                                       1.0790237
   126   6 C      220   1 H                                       1.0784373
   128   6 C      221   1 H                                       1.0781750
   116   6 C      222   1 H                                       1.0805644

 * 7 distinct bonds (by element types)

   Z      Z             #   av. dist./Å        max./Å        min./Å
   1 H    6 C          72     1.0881663     1.0950623     1.0780307
   6 C    6 C          74     1.4141451     1.5337194     1.3664725
   5 B    7 N           4     1.5515978     1.5825446     1.5335006
   6 C    7 N          24     1.3582615     1.4611632     1.3182798
   5 B    8 O           4     1.4188399     1.4330598     1.4047972
   6 C    8 O          16     1.3860465     1.4154962     1.3096445
   8 O   16 S          13     1.4651327     1.6401845     1.4437654


optimized geometry written to: xtbopt.mol


           -------------------------------------------------
Note: The following floating-point exceptions are signalling: IEEE_UNDERFLOW_FLAG
normal termination of xtb
          | TOTAL ENERGY             -432.857809191814 Eh   |
          | GRADIENT NORM               0.000578779993 Eh/α |
          | HOMO-LUMO GAP               0.039555216976 eV   |
           -------------------------------------------------
########################################################################
[WARNING] Runtime exception occurred
-3- restart_readRestart: Dimension missmatch in restart file.
-2- restart_readRestart: Multiplicity missmatch in restart file.
-1- restart_readRestart: Number of electron missmatch in restart file.
########################################################################

------------------------------------------------------------------------
 * finished run on 2024/11/01 at 12:55:54.867     
------------------------------------------------------------------------
 total:
 * wall-time:     0 d,  0 h, 10 min,  2.239 sec
 *  cpu-time:     0 d,  0 h, 37 min, 27.898 sec
 * ratio c/w:     3.733 speedup
 SCF:
 * wall-time:     0 d,  0 h,  0 min,  6.447 sec
 *  cpu-time:     0 d,  0 h,  0 min, 22.766 sec
 * ratio c/w:     3.531 speedup
 ANC optimizer:
 * wall-time:     0 d,  0 h,  9 min, 55.545 sec
 *  cpu-time:     0 d,  0 h, 37 min,  4.988 sec
 * ratio c/w:     3.736 speedup

