222
 energy: -432.039325688757 gnorm: 0.307198716790 xtb: 6.7.1 (edcfbbe)
C            0.18160000000000        3.07310000000000        2.48950000000000
C            0.69910000000000        1.83180000000000        2.66300000000000
C            2.11950000000000        1.71290000000000        2.60060000000000
C            2.87020000000000        2.93560000000000        2.47810000000000
C            2.21110000000000        4.15990000000000        2.26310000000000
C            0.84270000000000        4.21790000000000        2.27220000000000
C            2.84290000000000        0.47840000000000        2.80000000000000
C            4.19770000000000        0.64670000000000        3.16980000000000
C            4.84570000000000        1.90920000000000        3.02120000000000
N            4.20710000000000        3.01670000000000        2.61740000000000
C            2.40390000000000       -0.87580000000000        2.60410000000000
C            3.26340000000000       -1.91320000000000        3.12930000000000
N            4.43740000000000       -1.68780000000000        3.75510000000000
C            4.96430000000000       -0.45780000000000        3.63310000000000
C            6.33710000000000       -0.29460000000000        3.87570000000000
C            6.96360000000000        0.90020000000000        3.60980000000000
C            6.22590000000000        1.99500000000000        3.22980000000000
C            1.31420000000000       -1.32560000000000        1.71700000000000
C            1.30440000000000       -2.67780000000000        1.46350000000000
C            2.05040000000000       -3.66220000000000        1.98770000000000
C            3.00940000000000       -3.28520000000000        2.88350000000000
O           -0.13540000000000        0.76650000000000        2.96750000000000
S           -0.01700000000000        5.81890000000000        2.02670000000000
S            1.84930000000000       -5.40470000000000        1.47960000000000
S            8.77360000000000        1.02510000000000        3.64940000000000
C           -1.55250000000000       -2.98250000000000        1.02700000000000
C           -2.19600000000000       -2.02220000000000        1.73210000000000
C           -3.61340000000000       -2.02450000000000        1.63210000000000
C           -4.23600000000000       -3.15800000000000        0.99940000000000
C           -3.45430000000000       -4.07040000000000        0.26530000000000
C           -2.08860000000000       -3.95180000000000        0.27160000000000
C           -4.44060000000000       -1.02440000000000        2.25170000000000
C           -5.74830000000000       -1.46940000000000        2.53960000000000
C           -6.24360000000000       -2.69430000000000        1.99410000000000
N           -5.53950000000000       -3.46080000000000        1.14370000000000
C           -4.13600000000000        0.35490000000000        2.51000000000000
C           -5.13590000000000        1.07570000000000        3.26970000000000
N           -6.24500000000000        0.52250000000000        3.80950000000000
C           -6.60190000000000       -0.69120000000000        3.36340000000000
C           -7.88340000000000       -1.16900000000000        3.66320000000000
C           -8.35270000000000       -2.33810000000000        3.11770000000000
C           -7.54840000000000       -3.09230000000000        2.29990000000000
C           -3.08950000000000        1.17380000000000        1.84720000000000
C           -3.30770000000000        2.53210000000000        1.93220000000000
C           -4.20000000000000        3.21500000000000        2.66940000000000
C           -5.09890000000000        2.48490000000000        3.38910000000000
O           -1.53690000000000       -1.13580000000000        2.56880000000000
S           -0.99880000000000       -5.02840000000000       -0.70630000000000
S           -4.18160000000000        5.04970000000000        2.73610000000000
S          -10.06280000000000       -2.85540000000000        3.43150000000000
B           -0.81320000000000       -0.02980000000000        1.93400000000000
O            8.87910000000000        2.50360000000000        3.48580000000000
O            8.95620000000000        0.85230000000000        5.31090000000000
C            8.71030000000000        2.03350000000000        5.98850000000000
O            2.52220000000000       -6.07000000000000        2.87370000000000
C            1.57720000000000       -6.24470000000000        3.87180000000000
O            0.39030000000000       -5.54250000000000        1.74490000000000
O           -2.03380000000000       -5.60180000000000       -1.60240000000000
O           -0.37870000000000       -3.79270000000000       -1.66890000000000
C           -1.30620000000000       -3.34180000000000       -2.59950000000000
O          -10.07070000000000       -4.06870000000000        2.57450000000000
O          -10.77660000000000       -1.73530000000000        2.40110000000000
C          -10.57940000000000       -2.03420000000000        1.06040000000000
O           -4.28140000000000        5.14310000000000        4.21760000000000
O           -5.80360000000000        5.28290000000000        2.35750000000000
C           -6.26170000000000        6.47510000000000        2.90450000000000
O            0.72940000000000        6.18200000000000        0.79570000000000
O           -1.42300000000000        5.20270000000000        1.33070000000000
C           -1.83580000000000        5.99160000000000        0.26260000000000
N            0.36270000000000       -0.55350000000000        1.05150000000000
C            0.98680000000000       -0.37560000000000       -1.30930000000000
C           -0.00350000000000       -0.90270000000000       -0.29110000000000
N           -1.91280000000000        0.80240000000000        1.20810000000000
C           -2.02890000000000        1.86780000000000       -1.00470000000000
C           -1.30040000000000        1.74560000000000        0.31860000000000
H           -0.82520000000000       -2.62360000000000       -3.26860000000000
H           -2.14520000000000       -2.86640000000000       -2.08450000000000
H           -1.66580000000000       -4.20080000000000       -3.17550000000000
H            2.04320000000000       -6.73750000000000        4.73030000000000
H            0.75600000000000       -6.85500000000000        3.48240000000000
H            1.19720000000000       -5.26260000000000        4.16680000000000
H            9.06880000000000        1.91770000000000        7.01510000000000
H            7.63530000000000        2.23580000000000        5.96730000000000
H            9.25770000000000        2.84620000000000        5.49870000000000
H            0.71840000000000       -0.66070000000000       -2.32780000000000
H            1.98540000000000       -0.76590000000000       -1.10860000000000
H            1.06010000000000        0.71110000000000       -1.27650000000000
H           -0.03980000000000       -1.99620000000000       -0.35370000000000
H           -1.02360000000000       -0.56670000000000       -0.48500000000000
H           -1.56270000000000        2.60620000000000       -1.65940000000000
H           -3.06400000000000        2.17230000000000       -0.84600000000000
H           -2.05670000000000        0.91960000000000       -1.54040000000000
H           -1.29950000000000        2.71740000000000        0.82570000000000
H           -0.24760000000000        1.48770000000000        0.18870000000000
H           -5.68720000000000        7.31180000000000        2.49640000000000
H           -6.13800000000000        6.43110000000000        3.99140000000000
H           -7.32020000000000        6.59530000000000        2.65620000000000
H          -11.17150000000000       -1.34250000000000        0.45480000000000
H          -10.90810000000000       -3.06310000000000        0.87990000000000
H           -9.52040000000000       -1.93060000000000        0.81030000000000
H           -2.07260000000000        6.99720000000000        0.62110000000000
H           -2.72010000000000        5.54100000000000       -0.19650000000000
H           -1.02130000000000        6.04240000000000       -0.46760000000000
H           -8.51020000000000       -0.60630000000000        4.33030000000000
H           -7.93650000000000       -4.00310000000000        1.87790000000000
H           -5.84050000000000        2.99010000000000        3.98230000000000
H           -3.92140000000000       -4.87080000000000       -0.28150000000000
H            3.65640000000000       -4.02840000000000        3.31380000000000
H            6.91360000000000       -1.14410000000000        4.19590000000000
H            6.72950000000000        2.92980000000000        3.05250000000000
H            2.78450000000000        5.06420000000000        2.14950000000000
C            0.95950000000000        3.64310000000000        7.13240000000000
C            1.34410000000000        2.45730000000000        7.66730000000000
C            2.71610000000000        2.11430000000000        7.49090000000000
C            3.59610000000000        3.11720000000000        6.94890000000000
C            3.05210000000000        4.26060000000000        6.32850000000000
C            1.70670000000000        4.51300000000000        6.43210000000000
C            3.29250000000000        0.88940000000000        7.98550000000000
C            4.65160000000000        0.98660000000000        8.33340000000000
C            5.41180000000000        2.12880000000000        7.94300000000000
N            4.93330000000000        3.09380000000000        7.13280000000000
C            2.68270000000000       -0.39620000000000        8.10720000000000
C            3.44250000000000       -1.41100000000000        8.79750000000000
N            4.64600000000000       -1.20010000000000        9.36980000000000
C            5.27410000000000       -0.04800000000000        9.08280000000000
C            6.60050000000000        0.12080000000000        9.50150000000000
C            7.31180000000000        1.24320000000000        9.14910000000000
C            6.73220000000000        2.22660000000000        8.38420000000000
C            1.49350000000000       -0.83870000000000        7.36300000000000
C            1.30830000000000       -2.19570000000000        7.37000000000000
C            1.96130000000000       -3.15530000000000        8.03570000000000
C            3.01830000000000       -2.76230000000000        8.80820000000000
O            0.47280000000000        1.63430000000000        8.37330000000000
S            0.91250000000000        5.97430000000000        5.67330000000000
S            1.42390000000000       -4.89730000000000        7.83460000000000
S            9.03830000000000        1.43500000000000        9.66450000000000
C           -1.44900000000000       -2.31760000000000        7.46670000000000
C           -1.99670000000000       -1.10380000000000        7.72950000000000
C           -3.34760000000000       -0.91970000000000        7.29230000000000
C           -3.99580000000000       -2.05590000000000        6.68270000000000
C           -3.28610000000000       -3.24480000000000        6.42740000000000
C           -1.98430000000000       -3.36870000000000        6.82880000000000
C           -4.14680000000000        0.25690000000000        7.55400000000000
C           -5.54130000000000        0.06690000000000        7.44680000000000
C           -6.07620000000000       -1.11430000000000        6.85450000000000
N           -5.30950000000000       -2.11300000000000        6.39280000000000
C           -3.72260000000000        1.56660000000000        7.95010000000000
C           -4.72410000000000        2.44930000000000        8.49000000000000
N           -6.04020000000000        2.18070000000000        8.52480000000000
C           -6.44750000000000        1.05270000000000        7.92800000000000
C           -7.82640000000000        0.84970000000000        7.79070000000000
C           -8.31950000000000       -0.28300000000000        7.19580000000000
C           -7.46260000000000       -1.25510000000000        6.74140000000000
C           -2.40090000000000        2.15850000000000        7.69540000000000
C           -2.24730000000000        3.46830000000000        8.09680000000000
C           -3.14730000000000        4.26500000000000        8.69880000000000
C           -4.39060000000000        3.75060000000000        8.92460000000000
O           -1.23740000000000       -0.13640000000000        8.38380000000000
S           -0.98950000000000       -4.87930000000000        6.51210000000000
S           -2.78540000000000        5.99450000000000        9.14730000000000
S          -10.10370000000000       -0.49160000000000        6.98170000000000
B           -0.39650000000000        0.76920000000000        7.56580000000000
O            9.34310000000000        2.68040000000000        8.90240000000000
O            8.72570000000000        2.05010000000000       11.19900000000000
C            8.21200000000000        3.33890000000000       11.16880000000000
O            2.15350000000000       -5.16360000000000        6.33410000000000
C            3.52460000000000       -4.93020000000000        6.35170000000000
O            2.44190000000000       -5.52560000000000        8.72450000000000
O           -2.10550000000000       -5.76380000000000        6.06490000000000
O           -0.38220000000000       -4.38860000000000        5.00930000000000
C           -1.33270000000000       -4.38010000000000        3.99490000000000
O          -10.07580000000000       -1.12380000000000        5.63260000000000
O          -10.42870000000000        1.11610000000000        6.60150000000000
C          -10.01390000000000        1.45970000000000        5.32310000000000
O           -4.12280000000000        6.35610000000000        9.68410000000000
O           -2.90480000000000        6.64720000000000        7.60290000000000
C           -4.15160000000000        6.43310000000000        7.02350000000000
O            1.80830000000000        6.15710000000000        4.50310000000000
O           -0.35570000000000        5.16030000000000        4.94170000000000
C           -1.53120000000000        5.87160000000000        5.14160000000000
N            0.58010000000000       -0.04240000000000        6.67400000000000
C            0.42860000000000       -1.72030000000000        4.83530000000000
C           -0.01140000000000       -0.40160000000000        5.41830000000000
N           -1.44930000000000        1.62120000000000        6.82030000000000
C           -2.05320000000000        2.26200000000000        4.58250000000000
C           -1.04270000000000        2.38420000000000        5.68290000000000
H           -0.81920000000000       -4.18850000000000        3.04950000000000
H           -2.06800000000000       -3.59300000000000        4.17610000000000
H           -1.82220000000000       -5.35790000000000        3.96240000000000
H            3.96680000000000       -5.32920000000000        5.43540000000000
H            3.95700000000000       -5.43940000000000        7.21870000000000
H            3.71460000000000       -3.85520000000000        6.40780000000000
H            8.18240000000000        3.72900000000000       12.18990000000000
H            7.20150000000000        3.32430000000000       10.75260000000000
H            8.86570000000000        3.96290000000000       10.55080000000000
H            0.01840000000000       -1.88340000000000        3.83740000000000
H            0.10550000000000       -2.54720000000000        5.46340000000000
H            1.51540000000000       -1.77200000000000        4.77710000000000
H           -1.09980000000000       -0.36990000000000        5.51980000000000
H            0.26090000000000        0.38500000000000        4.71670000000000
H           -1.82070000000000        2.93050000000000        3.75320000000000
H           -3.04940000000000        2.51040000000000        4.95020000000000
H           -2.09270000000000        1.24400000000000        4.19450000000000
H           -0.96590000000000        3.43080000000000        5.99410000000000
H           -0.03670000000000        2.10510000000000        5.36470000000000
H           -4.92920000000000        6.71820000000000        7.73900000000000
H           -4.25660000000000        5.38080000000000        6.74260000000000
H           -4.23390000000000        7.04960000000000        6.12450000000000
H          -10.32540000000000        2.48650000000000        5.11400000000000
H          -10.48470000000000        0.77590000000000        4.60920000000000
H           -8.92520000000000        1.38400000000000        5.25880000000000
H           -1.69600000000000        5.96680000000000        6.21750000000000
H           -2.35110000000000        5.30760000000000        4.69050000000000
H           -1.45560000000000        6.86010000000000        4.67890000000000
H           -8.50290000000000        1.61710000000000        8.12310000000000
H           -7.86020000000000       -2.13630000000000        6.27020000000000
H           -5.15020000000000        4.37740000000000        9.35940000000000
H           -3.78680000000000       -4.08320000000000        5.97540000000000
H            3.58840000000000       -3.50060000000000        9.34420000000000
H            7.06430000000000       -0.65110000000000       10.08960000000000
H            7.30460000000000        3.10060000000000        8.12890000000000
H            3.69440000000000        4.95940000000000        5.82200000000000
222
 energy: -432.133254355968 gnorm: 0.191308640392 xtb: 6.7.1 (edcfbbe)
C            0.17516997733416        3.06122488105280        2.49039029387666
C            0.68397061090452        1.81245319748648        2.65017164946112
C            2.10915720576705        1.70696242187844        2.60716125211104
C            2.86349037107931        2.93074144929978        2.48358398628853
C            2.21184380236789        4.16221059255100        2.26662882483039
C            0.84166319802069        4.20944314836184        2.28178286026322
C            2.83339177760373        0.47539340380942        2.78987444442924
C            4.18896512345745        0.64402009028143        3.16427477279533
C            4.83651445071567        1.91016354512906        3.02200217224215
N            4.19269751894056        3.00577253951245        2.62022025890390
C            2.39890665359600       -0.87758985105906        2.57030558440707
C            3.25745864601645       -1.90718514675001        3.11656584953983
N            4.42259108408445       -1.68273891508269        3.74285638762543
C            4.95744108816073       -0.46310157919286        3.62796166263402
C            6.33362298409328       -0.30443220925536        3.87420527747001
C            6.95321122286766        0.89693568799673        3.60832024534189
C            6.22270973927492        1.99768620097550        3.22562064660555
C            1.30426410028193       -1.31598269338841        1.69618495368830
C            1.25705898322672       -2.67244515901132        1.47139261167375
C            2.04399819520001       -3.65124729747839        1.97960741062584
C            3.01391120915999       -3.27972393389158        2.87587787548464
O           -0.13074881805901        0.76855445380344        2.96626869919802
S            0.00724487175800        5.81096135543662        2.00793061752738
S            1.83520677493319       -5.40048558375487        1.48915838780233
S            8.76672989066852        1.04437890484678        3.65400046707885
C           -1.51769270635607       -2.97330786506039        1.04268032065156
C           -2.17335069400079       -2.00548019037533        1.74110343326389
C           -3.59567771264933       -2.02172570617361        1.63860147904506
C           -4.22433807902280       -3.15554219066957        1.01057467377632
C           -3.44517849784274       -4.06887383407879        0.26996180641446
C           -2.07462657846063       -3.94683267118595        0.28385772146390
C           -4.43035905974373       -1.01846333130970        2.23979420110658
C           -5.73741399937768       -1.46652078570066        2.53667696607458
C           -6.23496437789142       -2.69147248706839        1.99032072272869
N           -5.52544633814576       -3.44447524020933        1.14649964853473
C           -4.12808850003954        0.36501467202050        2.48734274587620
C           -5.13079223856304        1.07759214657501        3.25500287698945
N           -6.22985584021554        0.52253237892081        3.79525598969096
C           -6.59183134023405       -0.68680131238809        3.36410222355895
C           -7.87834131563467       -1.16425092981061        3.67288668237807
C           -8.34363553055438       -2.33674562225339        3.12347594007555
C           -7.54625498231098       -3.09367953626859        2.29622776482501
C           -3.06792278897638        1.16581819365711        1.84547323757200
C           -3.30883007551460        2.52095870035248        1.91074685729923
C           -4.21932884062421        3.20686534136953        2.63244005142869
C           -5.10450073280016        2.48364727989707        3.38636411344654
O           -1.54270577267193       -1.13691533414613        2.58031096354070
S           -1.01118383794632       -5.03784936587910       -0.71818745497802
S           -4.19779695286511        5.02810290593128        2.75840686534793
S          -10.06281037287867       -2.86422049409844        3.41938165723727
B           -0.81285117422907       -0.03580098531198        1.95205127449244
O            8.91477855484342        2.49840326498019        3.45133802207848
O            8.96001798457312        0.84322564359441        5.30733800545311
C            8.71178412756492        2.03188400143229        5.99158713285073
O            2.52644502204334       -6.08357597062395        2.85501060084412
C            1.57937932805043       -6.25479783765061        3.86744738012832
O            0.38063587622150       -5.55254532246614        1.69526487117546
O           -2.02310331946830       -5.64185019756755       -1.59665797173228
O           -0.37711031572826       -3.79464706427068       -1.66360224995951
C           -1.30428449818505       -3.33798664628257       -2.60443845060134
O          -10.08946055428113       -4.09254733916331        2.60506126779260
O          -10.77088319578119       -1.72598034169403        2.40571372080052
C          -10.58184754235875       -2.02910414880432        1.05711948884975
O           -4.25694004512318        5.16172041568654        4.22926494388647
O           -5.80300092818247        5.28057735609333        2.33720806458183
C           -6.26350307604965        6.47638891786232        2.90066200723529
O            0.74281448020168        6.22534226919235        0.80314070689061
O           -1.42825329163777        5.19902974359383        1.34859452338182
C           -1.84098665957849        5.98944393181445        0.26631973216698
N            0.35740929652034       -0.52995693738818        1.05219417703937
C            0.99476984531353       -0.37583272476394       -1.31198690507578
C            0.00425196820593       -0.91622916575748       -0.29148409560204
N           -1.90424062179904        0.78008452502048        1.20349747961082
C           -2.03824769206100        1.87424664807735       -1.00792410736719
C           -1.31558264626468        1.75931283170730        0.32476916373875
H           -0.81677492700351       -2.62391863732623       -3.26622522335493
H           -2.14753884859540       -2.86060564613855       -2.09547656773017
H           -1.67230359450704       -4.19074832974103       -3.18237352190539
H            2.04948484376307       -6.74580615098784        4.71633355341307
H            0.74977898554905       -6.86058417589463        3.49593195847682
H            1.20071104766961       -5.27869388083903        4.17536199629548
H            9.07368779174704        1.91709552634819        7.00943862428440
H            7.63825282043873        2.24490605586512        5.97527467410767
H            9.25009040175176        2.85227141780628        5.50703907081698
H            0.71511191839819       -0.66496306036621       -2.32324989189974
H            1.98929959915321       -0.76870181968417       -1.10851521769354
H            1.05741012866930        0.71121425451904       -1.27641672446166
H           -0.02507377867673       -2.01358083007099       -0.35679652400680
H           -1.01051820103157       -0.56733177332713       -0.48859694837293
H           -1.56037925244049        2.60914902542435       -1.65319759255148
H           -3.07084251095370        2.17595938691174       -0.84648616493760
H           -2.05266337738131        0.92221811903413       -1.53771268145776
H           -1.31971159313216        2.73898513169438        0.83883249017517
H           -0.26547618264279        1.49399751136472        0.18351949379034
H           -5.69615749393087        7.32228414370741        2.50023882713621
H           -6.14339377344432        6.43790858583883        3.98894649241472
H           -7.31828697543598        6.59062636435592        2.65227878649790
H          -11.17550224561912       -1.33859831672355        0.45939139233323
H          -10.90427873732905       -3.05861394178979        0.86978219792127
H           -9.52300839052043       -1.92999379133970        0.79682370272963
H           -2.08001001396319        6.99979419331697        0.61091450559117
H           -2.72012006856337        5.53503561762708       -0.19004806335437
H           -1.03110749962398        6.04666793674162       -0.46866789415636
H           -8.51273756574195       -0.59565168663888        4.32525853620313
H           -7.93478038577583       -4.00740371307319        1.87586304686711
H           -5.84241031413658        2.98668884069420        3.98924656562775
H           -3.91674759859953       -4.87002106411398       -0.27910585118977
H            3.65929109225954       -4.02177955586914        3.31814934177057
H            6.91029676749698       -1.15365247743887        4.19908589210880
H            6.72756782053531        2.93357077762040        3.04892195563757
H            2.78798073033423        5.06533582844408        2.15129102495446
C            0.94544354355205        3.63280713004880        7.14120860086674
C            1.32196142679147        2.43878485096973        7.67437306641925
C            2.70302961622190        2.11448318967019        7.50298965421984
C            3.58806019116834        3.11600877566476        6.96267254292623
C            3.05244513094334        4.25957096808971        6.32970194968491
C            1.70346303608643        4.50275577302723        6.43127001012931
C            3.27957803269194        0.88655928253057        7.97940596758951
C            4.64193207123697        0.98608481625234        8.32978133725491
C            5.40344879502579        2.12848276595042        7.94025824723402
N            4.91694410700146        3.08625717188452        7.14060829729001
C            2.67277073033712       -0.40296490177147        8.08114395817223
C            3.43490575913854       -1.40939573495071        8.78316275458127
N            4.62930856111069       -1.19443779324301        9.35663970561355
C            5.26600441251662       -0.05360555070317        9.07907376588064
C            6.59797663333452        0.11131806405860        9.50293526178742
C            7.30327472157041        1.23987380505466        9.14849242045416
C            6.72901416999931        2.23127274640888        8.38309466682147
C            1.47287745888206       -0.83312624695203        7.35845566857236
C            1.23302539125338       -2.18435694536566        7.40142054154123
C            1.93723859213314       -3.14641459196911        8.04249429700451
C            3.01506843178543       -2.76183942861207        8.80176045337755
O            0.47720712517201        1.63823927497599        8.38848772231537
S            0.94141613532880        5.96423228491707        5.64146365612590
S            1.46436817299360       -4.90672051502893        7.86531797640582
S            9.03273390241741        1.45485065016357        9.66588921495824
C           -1.39268606279507       -2.29990546573701        7.45342661087631
C           -1.96217271135718       -1.08691705689174        7.72812727872305
C           -3.33002368612611       -0.91729976817576        7.30713905987469
C           -3.98619280042507       -2.05004648758542        6.69396524389301
C           -3.27930675110937       -3.24255950636515        6.43317669174167
C           -1.96966062102437       -3.35858807022852        6.83071120150658
C           -4.13249090541112        0.25670404492414        7.55640914513693
C           -5.53134738991872        0.06832552390081        7.44696671468850
C           -6.06817127143851       -1.11549193644348        6.85522511520195
N           -5.29397441656829       -2.10184375899221        6.40260134847659
C           -3.70839294196608        1.57425470820164        7.93623771655839
C           -4.71399680968929        2.44622948743392        8.48864688277478
N           -6.02332773751935        2.17334452035509        8.52242643677446
C           -6.44040913407418        1.05735273351709        7.92519659822504
C           -7.82568716628736        0.85516079210495        7.79687052152316
C           -8.31387161136869       -0.28481514222900        7.20371275243688
C           -7.46064414198061       -1.26131412532428        6.73898510712031
C           -2.40569649827630        2.16700217960134        7.64885480156440
C           -2.23648474541689        3.45333459283469        8.09548448333926
C           -3.14142172357478        4.25738673317133        8.69865700950058
C           -4.39242712698583        3.74931800962473        8.92368175090347
O           -1.23753054578671       -0.13845042022256        8.39677123280262
S           -1.03041781703475       -4.89334409909748        6.49061068631129
S           -2.81371876362124        5.99957550911739        9.15509477500085