222
 energy: -432.611310721095 gnorm: 0.395188029824 xtb: 6.7.1 (edcfbbe)
C           -0.68150000000000        3.30960000000000        1.84000000000000
C            0.38600000000000        2.37920000000000        2.05530000000000
C            1.75550000000000        2.51490000000000        1.72890000000000
C            2.15350000000000        3.82880000000000        1.38820000000000
C            1.12520000000000        4.78810000000000        1.14780000000000
C           -0.21970000000000        4.54310000000000        1.32260000000000
C            2.71330000000000        1.43800000000000        1.96900000000000
C            4.02690000000000        1.90320000000000        2.13210000000000
C            4.34230000000000        3.27580000000000        1.86350000000000
N            3.44540000000000        4.19200000000000        1.40740000000000
C            2.52560000000000        0.00910000000000        2.13710000000000
C            3.58990000000000       -0.78760000000000        2.63450000000000
N            4.80930000000000       -0.29200000000000        2.89060000000000
C            5.03090000000000        1.01060000000000        2.60810000000000
C            6.31770000000000        1.51770000000000        2.82140000000000
C            6.61680000000000        2.83390000000000        2.57070000000000
C            5.65470000000000        3.70060000000000        2.09680000000000
C            1.37560000000000       -0.78050000000000        1.68720000000000
C            1.09370000000000       -2.16680000000000        2.06700000000000
C            2.22370000000000       -2.86090000000000        2.54210000000000
C            3.39190000000000       -2.18920000000000        2.80610000000000
O            0.11250000000000        1.24440000000000        2.70170000000000
S           -1.45300000000000        5.77680000000000        0.78780000000000
S            2.19330000000000       -4.67870000000000        2.74910000000000
S            8.30110000000000        3.42050000000000        2.88200000000000
C           -0.30470000000000       -2.65200000000000        1.93750000000000
C           -1.36000000000000       -1.72100000000000        2.20840000000000
C           -2.74070000000000       -1.86130000000000        1.93570000000000
C           -3.14890000000000       -3.17350000000000        1.60170000000000
C           -2.13630000000000       -4.14110000000000        1.34890000000000
C           -0.78620000000000       -3.88580000000000        1.43650000000000
C           -3.69140000000000       -0.77280000000000        2.14190000000000
C           -5.01960000000000       -1.21260000000000        2.22710000000000
C           -5.34400000000000       -2.57540000000000        1.92350000000000
N           -4.44130000000000       -3.51900000000000        1.55610000000000
C           -3.49830000000000        0.65900000000000        2.28300000000000
C           -4.56490000000000        1.47400000000000        2.74850000000000
N           -5.80900000000000        1.00080000000000        2.93150000000000
C           -6.04070000000000       -0.29180000000000        2.60290000000000
C           -7.35920000000000       -0.76020000000000        2.63780000000000
C           -7.67100000000000       -2.05890000000000        2.31650000000000
C           -6.68580000000000       -2.95560000000000        1.97760000000000
C           -2.36260000000000        1.42980000000000        1.76910000000000
C           -2.06990000000000        2.82950000000000        2.07470000000000
C           -3.16820000000000        3.52810000000000        2.61370000000000
C           -4.33870000000000        2.87360000000000        2.91750000000000
O           -1.04770000000000       -0.56350000000000        2.79380000000000
S            0.39080000000000       -5.08240000000000        0.75550000000000
S           -3.06190000000000        5.32990000000000        2.90930000000000
S           -9.40600000000000       -2.58510000000000        2.31540000000000
B           -0.49980000000000        0.31760000000000        1.73210000000000
O            7.95350000000000        4.68370000000000        3.62020000000000
O            8.63020000000000        2.35910000000000        4.14910000000000
C            8.09330000000000        2.77980000000000        5.35830000000000
O            3.08900000000000       -5.05320000000000        1.35630000000000
C            3.86830000000000       -6.18830000000000        1.54720000000000
O            3.34160000000000       -4.73200000000000        3.76420000000000
O           -0.62160000000000       -6.14690000000000        0.31390000000000
O            0.61690000000000       -4.22270000000000       -0.69480000000000
C           -0.37430000000000       -4.47980000000000       -1.63440000000000
O           -9.19970000000000       -3.99000000000000        1.83610000000000
O           -9.83220000000000       -1.81890000000000        0.88260000000000
C           -9.27810000000000       -2.42380000000000       -0.23620000000000
O           -3.99470000000000        5.33030000000000        4.12760000000000
O           -4.18950000000000        5.82360000000000        1.73680000000000
C           -4.90260000000000        6.93320000000000        2.18020000000000
O           -0.48500000000000        6.72080000000000        0.07320000000000
O           -2.02950000000000        4.93500000000000       -0.56300000000000
C           -3.02420000000000        5.68460000000000       -1.18350000000000
N            0.51840000000000       -0.26590000000000        0.75300000000000
C            1.12930000000000       -0.72480000000000       -1.57740000000000
C            0.17450000000000       -1.00550000000000       -0.43460000000000
N           -1.56740000000000        0.88320000000000        0.79800000000000
C           -2.32310000000000        1.30320000000000       -1.49670000000000
C           -1.29040000000000        1.59170000000000       -0.42710000000000
H           -0.11030000000000       -3.99670000000000       -2.57830000000000
H           -1.33110000000000       -4.09460000000000       -1.27400000000000
H           -0.44530000000000       -5.56240000000000       -1.77680000000000
H            4.45890000000000       -6.36670000000000        0.64440000000000
H            3.21970000000000       -7.04640000000000        1.74440000000000
H            4.53110000000000       -6.01440000000000        2.40100000000000
H            8.42010000000000        2.09010000000000        6.14350000000000
H            7.00180000000000        2.78810000000000        5.29470000000000
H            8.45770000000000        3.79050000000000        5.56900000000000
H            0.87570000000000       -1.29590000000000       -2.47210000000000
H            2.14990000000000       -0.98750000000000       -1.29560000000000
H            1.13890000000000        0.33030000000000       -1.84870000000000
H            0.22020000000000       -2.07210000000000       -0.19350000000000
H           -0.86560000000000       -0.80700000000000       -0.69830000000000
H           -2.12780000000000        1.86160000000000       -2.41400000000000
H           -3.31990000000000        1.57680000000000       -1.14820000000000
H           -2.35640000000000        0.24430000000000       -1.75120000000000
H           -1.29860000000000        2.66530000000000       -0.21390000000000
H           -0.27400000000000        1.36900000000000       -0.75420000000000
H           -4.21620000000000        7.77070000000000        2.33310000000000
H           -5.39020000000000        6.67670000000000        3.12640000000000
H           -5.65550000000000        7.19930000000000        1.43370000000000
H           -9.69100000000000       -1.95110000000000       -1.13160000000000
H           -9.53770000000000       -3.48760000000000       -0.22220000000000
H           -8.19180000000000       -2.30310000000000       -0.22180000000000
H           -3.85970000000000        5.81820000000000       -0.48920000000000
H           -3.36460000000000        5.15490000000000       -2.07750000000000
H           -2.60590000000000        6.65700000000000       -1.46370000000000
H           -8.13940000000000       -0.09870000000000        2.96330000000000
H           -6.95780000000000       -3.97030000000000        1.74420000000000
H           -5.14140000000000        3.46110000000000        3.32680000000000
H           -2.44480000000000       -5.11820000000000        1.01970000000000
H            4.22200000000000       -2.76650000000000        3.17380000000000
H            7.07460000000000        0.86700000000000        3.22240000000000
H            5.90270000000000        4.73680000000000        1.94730000000000
H            1.41480000000000        5.75550000000000        0.77620000000000
C           -0.61310000000000        3.01550000000000        8.96190000000000
C            0.11250000000000        1.78610000000000        9.12960000000000
C            1.49960000000000        1.56620000000000        8.93570000000000
C            2.28010000000000        2.72850000000000        8.73810000000000
C            1.60160000000000        3.97380000000000        8.61960000000000
C            0.23390000000000        4.11420000000000        8.68120000000000
C            2.10260000000000        0.23980000000000        8.99730000000000
C            3.50000000000000        0.24680000000000        9.07280000000000
C            4.20740000000000        1.46630000000000        8.83230000000000
N            3.61660000000000        2.67410000000000        8.64300000000000
C            1.50640000000000       -1.07890000000000        8.94800000000000
C            2.24610000000000       -2.22790000000000        9.33200000000000
N            3.57350000000000       -2.16420000000000        9.54680000000000
C            4.19520000000000       -0.97840000000000        9.30860000000000
C            5.59660000000000       -0.94840000000000        9.25350000000000
C            6.27090000000000        0.20970000000000        8.93180000000000
C            5.59660000000000        1.39350000000000        8.73780000000000
C            0.29270000000000       -1.39100000000000        8.20720000000000
C           -0.42310000000000       -2.65220000000000        8.24200000000000
C            0.30530000000000       -3.70350000000000        8.82850000000000
C            1.57760000000000       -3.49570000000000        9.32040000000000
O           -0.58940000000000        0.68360000000000        9.42030000000000
S           -0.53840000000000        5.68780000000000        8.20740000000000
S           -0.49960000000000       -5.34470000000000        8.89650000000000
S            8.07050000000000        0.19780000000000        8.71550000000000
C           -1.77640000000000       -2.66020000000000        7.62730000000000
C           -2.59020000000000       -1.49330000000000        7.80210000000000
C           -3.74670000000000       -1.13240000000000        7.07320000000000
C           -4.27570000000000       -2.14330000000000        6.23500000000000
C           -3.48800000000000       -3.31560000000000        6.02780000000000
C           -2.28600000000000       -3.55480000000000        6.65850000000000
C           -4.42820000000000        0.13920000000000        7.28830000000000
C           -5.75650000000000        0.14190000000000        6.84900000000000
C           -6.25170000000000       -0.95890000000000        6.07870000000000
N           -5.50700000000000       -2.03710000000000        5.71090000000000
C           -3.97680000000000        1.36870000000000        7.90660000000000
C           -4.90640000000000        2.37590000000000        8.27000000000000
N           -6.20270000000000        2.30310000000000        7.92970000000000
C           -6.59730000000000        1.24580000000000        7.18030000000000
C           -7.91540000000000        1.22540000000000        6.71110000000000
C           -8.38850000000000        0.17390000000000        5.96520000000000
C           -7.58430000000000       -0.90410000000000        5.66390000000000
C           -2.58770000000000        1.80920000000000        7.98760000000000
C           -2.08840000000000        2.93320000000000        8.77060000000000
C           -3.09840000000000        3.82890000000000        9.17200000000000
C           -4.42320000000000        3.55400000000000        8.91880000000000
O           -2.22590000000000       -0.60370000000000        8.73430000000000
S           -1.21660000000000       -4.95580000000000        6.20470000000000
S           -2.64740000000000        5.39770000000000        9.99740000000000
S          -10.09010000000000        0.24650000000000        5.35570000000000
B           -1.15110000000000        0.21100000000000        8.13130000000000
O            8.23290000000000        1.57100000000000        8.11970000000000
O            8.48300000000000        0.47650000000000       10.32230000000000
C            8.17070000000000        1.75990000000000       10.74960000000000
O            0.68980000000000       -6.21930000000000        8.06670000000000
C            0.83350000000000       -7.49360000000000        8.60510000000000
O           -0.05030000000000       -5.66700000000000       10.32530000000000
O           -1.91240000000000       -5.35840000000000        4.90460000000000
O            0.05010000000000       -4.04330000000000        5.56080000000000
C            1.26570000000000       -4.69720000000000        5.75690000000000
O           -9.87830000000000       -0.42140000000000        4.02620000000000
O          -10.05890000000000        1.87560000000000        4.93010000000000
C           -9.29050000000000        2.12450000000000        3.80240000000000
O           -3.91240000000000        5.47890000000000       10.85840000000000
O           -3.14360000000000        6.43690000000000        8.75200000000000
C           -3.68470000000000        7.61340000000000        9.25790000000000
O            0.73180000000000        6.49690000000000        7.94530000000000
O           -0.90050000000000        5.21530000000000        6.62620000000000
C           -2.09730000000000        5.79190000000000        6.21360000000000
N           -0.12670000000000       -0.50120000000000        7.25440000000000
C            0.95720000000000       -0.59850000000000        5.06900000000000
C           -0.29440000000000       -0.86400000000000        5.87300000000000
N           -1.67120000000000        1.24970000000000        7.13840000000000
C           -1.35630000000000        2.16810000000000        4.89670000000000
C           -0.82640000000000        2.05700000000000        6.30130000000000
H            2.05500000000000       -4.12200000000000        5.26770000000000
H            1.21530000000000       -5.69980000000000        5.32270000000000
H            1.48360000000000       -4.76690000000000        6.82480000000000
H            1.63600000000000       -8.01710000000000        8.07860000000000
H           -0.10570000000000       -8.04320000000000        8.49640000000000
H            1.08450000000000       -7.39560000000000        9.66660000000000
H            8.62040000000000        1.92180000000000       11.73300000000000
H            7.08610000000000        1.87230000000000       10.82220000000000
H            8.57870000000000        2.47970000000000       10.03300000000000
H            0.79530000000000       -0.81940000000000        4.01620000000000
H            1.78790000000000       -1.21030000000000        5.42320000000000
H            1.27290000000000        0.44150000000000        5.13350000000000
H           -0.53360000000000       -1.93040000000000        5.82020000000000
H           -1.16770000000000       -0.34980000000000        5.46850000000000
H           -0.82610000000000        2.93880000000000        4.33590000000000
H           -2.41650000000000        2.42380000000000        4.90760000000000
H           -1.25090000000000        1.23810000000000        4.33920000000000
H           -0.80090000000000        3.06260000000000        6.73210000000000
H            0.19840000000000        1.68170000000000        6.34220000000000
H           -2.91850000000000        8.15430000000000        9.81970000000000
H           -4.52010000000000        7.35620000000000        9.91690000000000
H           -4.04100000000000        8.22780000000000        8.42660000000000
H           -9.33060000000000        3.19280000000000        3.57410000000000
H           -9.70490000000000        1.55300000000000        2.96610000000000
H           -8.25570000000000        1.82680000000000        3.99150000000000
H           -2.90070000000000        5.53230000000000        6.90910000000000
H           -2.34200000000000        5.38910000000000        5.23150000000000
H           -1.97960000000000        6.87790000000000        6.15940000000000
H           -8.55290000000000        2.06840000000000        6.91100000000000
H           -7.97780000000000       -1.70870000000000        5.06990000000000
H           -5.15030000000000        4.27920000000000        9.23910000000000
H           -3.82580000000000       -4.02950000000000        5.29770000000000
H            2.10540000000000       -4.34400000000000        9.71780000000000
H            6.14170000000000       -1.85980000000000        9.42240000000000
H            6.15100000000000        2.27800000000000        8.47840000000000
H            2.18460000000000        4.84550000000000        8.37880000000000
222
 energy: -432.710387959994 gnorm: 0.247407324895 xtb: 6.7.1 (edcfbbe)
C           -0.68433707532396        3.29618623841943        1.82871927477929
C            0.38237525176415        2.37582510204671        2.05415494364623
C            1.74102337787020        2.51071683413238        1.73799629771780
C            2.15455765024180        3.82764108721703        1.39780919659189
C            1.12170220940119        4.78470080913822        1.14509258458250
C           -0.21925108941357        4.53217956282634        1.31865355844648
C            2.69666853900330        1.43271606062692        1.96767326293753
C            4.01505067237186        1.89939509251819        2.12841879759531
C            4.33583000247930        3.27562013825672        1.86055188994481
N            3.44007005595380        4.18370466509859        1.41422539561261
C            2.50332284895568        0.00189934541684        2.12218856765647
C            3.58114041490460       -0.78610459718938        2.63154687703971
N            4.79020614919998       -0.28528510863868        2.88857789754283
C            5.02309306802691        1.00676610031809        2.60874708697441
C            6.31697918623596        1.50915051658530        2.81950443094074
C            6.61291095113894        2.82764873777174        2.55980771041870
C            5.65264030946061        3.70381601200999        2.08976456728420
C            1.38425880755504       -0.79362278938139        1.67328336607082
C            1.09420257966597       -2.16156249390847        2.05781749651894
C            2.22528845132685       -2.85554947206730        2.52446851660643
C            3.39128731914245       -2.19086442988686        2.79793572715531
O            0.11010382025087        1.24398238694528        2.68079087718079
S           -1.41783902477886        5.78695120009032        0.76262695960757
S            2.23300240886758       -4.66162763109607        2.76827805146745
S            8.29439948542254        3.43471117288128        2.90018227611193
C           -0.30354227932353       -2.63995499425075        1.92562009652670
C           -1.35519893424501       -1.71897754171203        2.20918439257878
C           -2.72534818472344       -1.85561998557308        1.94412644543464
C           -3.14965062347606       -3.17021322332312        1.60694491327934
C           -2.13468301836802       -4.13823978236694        1.34798355971180
C           -0.78999446544295       -3.88244494467607        1.45116522149859
C           -3.67454292052270       -0.76738707250311        2.13973705336054
C           -5.00736694206507       -1.20856486704577        2.22522053252886
C           -5.33727705175345       -2.57433846361176        1.92272867680655
N           -4.43624648088911       -3.50719797068715        1.56030133067717
C           -3.47663363734739        0.66629414805922        2.26651655710722
C           -4.55628548613365        1.47228390520269        2.74394045210799
N           -5.79020598365814        0.99339935013116        2.93138767813608
C           -6.03332540410569       -0.28882332165492        2.60441510457525
C           -7.35779741913406       -0.75455524882639        2.64459485922351
C           -7.66533380731226       -2.05618011262812        2.31988932046071
C           -6.68325801438528       -2.95922564834445        1.97602447746066
C           -2.37356081532531        1.44333621296870        1.75303316675326
C           -2.07172359312805        2.82314148297793        2.06556713957191
C           -3.17277205602935        3.52203303899690        2.59192822458412
C           -4.33937102842038        2.87484548045079        2.90976702051006
O           -1.04091982208927       -0.56532261531655        2.77753937952267
S            0.36498408598863       -5.09085829985722        0.74642390066164
S           -3.09888572928089        5.30731234790039        2.93334991539610
S           -9.40515094093247       -2.59879485191556        2.30569289964250
B           -0.49948378969504        0.31756784872280        1.73108257388767
O            7.97145641541862        4.70355758884816        3.59535441012825
O            8.63713449685092        2.35884690681507        4.14287776562572
C            8.09535188614977        2.77863444513806        5.36078860835983
O            3.07297484720788       -5.04619995726645        1.35104464232720
C            3.86450473868205       -6.18715110550826        1.54541377518649
O            3.34124210570561       -4.75599758048628        3.78060267274501
O           -0.59301466830794       -6.16726284509600        0.32981412351366
O            0.61644590753622       -4.22375066079545       -0.68738004956171
C           -0.37502918493126       -4.47914572609732       -1.63821442373571
O           -9.22257877293900       -4.00148078314698        1.86543370307737
O           -9.82759858696848       -1.80913744248355        0.88675030552509
C           -9.27944443766567       -2.42048160674919       -0.24089427017246
O           -3.99612949064338        5.34266921754293        4.13969167003079
O           -4.17305049646684        5.82056167850787        1.72829554672992
C           -4.89954498115474        6.93367781461144        2.17782033317496
O           -0.49565223090864        6.75322563434429        0.08548159453405
O           -2.03222424804691        4.91559381576773       -0.54503720104257
C           -3.02305902240224        5.68185161472122       -1.17979407802225
N            0.52685997353610       -0.25309926427933        0.75415625975199
C            1.13404390569829       -0.71990767360981       -1.57495774020367
C            0.17637301358003       -1.01866298460311       -0.42887976457535
N           -1.57662795203288        0.86897556630835        0.79979900919370
C           -2.32786931212772        1.29781568457569       -1.49386497460628
C           -1.29200175846538        1.60521888466895       -0.42111542225706
H           -0.10066501151338       -3.99348014384475       -2.57388913018091
H           -1.33639904452773       -4.09471860614568       -1.28431544850666
H           -0.45509819403154       -5.55932581363906       -1.78575700688384
H            4.45233107489741       -6.35872556201024        0.64330938016972
H            3.22727706219733       -7.05415569264617        1.74281067261203
H            4.53146757994577       -6.02129725753826        2.39805489178226
H            8.42334085815693        2.09166177571799        6.13929506134127
H            7.00215283713951        2.78781421598205        5.30500351115600
H            8.44969807372055        3.78913674648085        5.58107003501930
H            0.86957096064238       -1.29598666743454       -2.46103284152037
H            2.15057637166374       -0.98959677531970       -1.29247575327178
H            1.13730910946090        0.33373963532552       -1.84780511006359
H            0.22595257324082       -2.08643944032112       -0.20968886209486
H           -0.85826771290717       -0.80555725354374       -0.69858450516735
H           -2.12050412238095        1.86131735546535       -2.40311185281867
H           -3.32097132112882        1.57802992438625       -1.14528703694439
H           -2.35509735739163        0.24043055222683       -1.75065447585418
H           -1.30470569978236        2.68045279472639       -0.23068214132539
H           -0.28202911064640        1.36808250521352       -0.75369033095203
H           -4.22387108896156        7.77945216245881        2.33324641976358
H           -5.39117643630446        6.68372544861771        3.12366446635859
H           -5.64929818922739        7.19130993614408        1.42934265543013
H           -9.69589964039561       -1.94722612991164       -1.12916437723814
H           -9.53160401508142       -3.48598794270033       -0.23103346351299
H           -8.19061675708766       -2.30631527143573       -0.23488683713620
H           -3.86683703705669        5.82351465555663       -0.49885617711824
H           -3.35762474794189        5.15010716266756       -2.07178307791052
H           -2.60932884580421        6.65455479870690       -1.46734104282172
H           -8.14265947760764       -0.09145935973748        2.95438692986166
H           -6.95780846188966       -3.97551755411034        1.74283518836327
H           -5.14382253919545        3.46151248520117        3.32441465200078
H           -2.44274732815453       -5.11918290183091        1.01931628459971
H            4.22292459787332       -2.76668929256820        3.17329654024270
H            7.07540332283811        0.85679808709074        3.21921989791816
H            5.90170287946175        4.74154898121832        1.94321438118776
H            1.41116306358442        5.75631369646452        0.77464492065470
C           -0.61381619760432        3.00487799327669        8.94221293957806
C            0.10469038649782        1.78323579091111        9.12925388628795
C            1.48192755123869        1.56230559800277        8.94426620552078
C            2.27948897640985        2.72392384407734        8.74321005261320
C            1.59981802866974        3.97224453596874        8.61811339276662
C            0.23678472147789        4.10832531201772        8.68513232544355
C            2.08585652527738        0.23872345558202        8.99223372851101
C            3.48801648934668        0.24504452212660        9.07145200981888
C            4.20044125878069        1.46746250690788        8.83509949903337
N            3.60777828070840        2.66379455200357        8.64847492792078
C            1.48731803323278       -1.07760558140357        8.92879811262003
C            2.24195574213489       -2.22336507445442        9.32284204208799
N            3.55976229266850       -2.15326171409282        9.54294973949242
C            4.18800322973184       -0.98198663927989        9.30799829354861
C            5.59433471528601       -0.95695382132716        9.25502033612981
C            6.26314703545176        0.20661488881282        8.93192532450132
C            5.59442252833868        1.39745061407512        8.73576623524879
C            0.30062040770100       -1.40491251581534        8.19386992721786
C           -0.41707986294954       -2.64595924647927        8.23267438926850
C            0.31506559679956       -3.69671199753270        8.81007272070458
C            1.57821039217907       -3.49494620728468        9.31608344041664
O           -0.59693451880888        0.69238126997891        9.41267020397759
S           -0.50123684398356        5.69735333387418        8.19949450308217
S           -0.46932768977332       -5.33504133410574        8.93388378896484
S            8.07037268042189        0.21585423432315        8.71959710781248
C           -1.76807217321050       -2.64571012600449        7.62012426165481
C           -2.58334654562187       -1.49213373815465        7.80718973691312
C           -3.73470294185476       -1.13386781288636        7.08947099244184
C           -4.27887462229091       -2.14180795180765        6.24348954160748
C           -3.48533672753980       -3.31360789637579        6.02859704456967
C           -2.28784266388174       -3.54767920976998        6.66268787180787
C           -4.41153472143891        0.13957833335907        7.29402434001575
C           -5.74524768076772        0.14260888290819        6.85196911921104
C           -6.24524142829548       -0.95874941178926        6.07769777331066
N           -5.50191467301665       -2.02933782447657        5.71820999036513
C           -3.95055642887002        1.37044693170324        7.90236170059722
C           -4.89785726018374        2.37334965790034        8.26643143002976
N           -6.18696095778786        2.29217553795068        7.92955971350965
C           -6.59034480832677        1.24850098977696        7.18331324274984
C           -7.91530228213163        1.23060895777540        6.71924287062955
C           -8.38460419980890        0.17238050281839        5.97376383586883
C           -7.58283729659259       -0.90886775393683        5.66117527835813
C           -2.58848156500862        1.82642549766588        7.97941981660808
C           -2.08707116548393        2.93128691513177        8.75861076668150
C           -3.09562460607999        3.82769044936576        9.15271401880220
C           -4.42035219701738        3.55590490864191        8.91416439900397
O           -2.21536885494565       -0.61098297553362        8.72996690706147
S           -1.23649508577802       -4.95139929028293        6.17111587518395
S           -2.69226759837289        5.38443257184410       10.00955668293778