156
 energy: -222.796319675097 gnorm: 0.112398490671 xtb: 6.7.1 (edcfbbe)
C           -1.91830000000000        2.77570000000000        1.32420000000000
C           -1.93530000000000        1.38520000000000        1.35150000000000
C           -0.73700000000000        0.69810000000000        1.73770000000000
C            0.46870000000000        1.43770000000000        1.75690000000000
C            0.43110000000000        2.82960000000000        1.68140000000000
C           -0.75700000000000        3.51850000000000        1.53230000000000
C           -0.69960000000000       -0.72240000000000        2.01980000000000
C            0.53340000000000       -1.41210000000000        1.83280000000000
C            1.75550000000000       -0.69740000000000        1.74670000000000
C            1.75830000000000        0.75760000000000        1.84160000000000
C           -1.83730000000000       -1.48280000000000        2.49340000000000
C           -1.86260000000000       -2.88560000000000        2.30670000000000
C           -0.65770000000000       -3.60460000000000        1.89750000000000
C            0.57080000000000       -2.82870000000000        1.76210000000000
C            1.79000000000000       -3.47260000000000        1.60610000000000
C            2.99260000000000       -2.77880000000000        1.54480000000000
C            2.94990000000000       -1.39150000000000        1.62060000000000
C           -2.90020000000000       -0.89190000000000        3.25340000000000
C           -4.05140000000000       -1.64360000000000        3.47280000000000
C           -4.14370000000000       -2.99250000000000        3.12990000000000
C           -3.02280000000000       -3.60240000000000        2.59920000000000
O           -2.69780000000000        0.37160000000000        3.83500000000000
O           -3.04860000000000        0.63230000000000        0.95540000000000
O            2.80620000000000        1.38880000000000        1.98070000000000
O           -0.66250000000000       -4.82570000000000        1.74380000000000
C           -3.87600000000000        1.02000000000000        4.26550000000000
C           -4.15140000000000        1.38220000000000        0.49670000000000
C           -5.44780000000000       -3.75970000000000        3.40650000000000
C           -5.36330000000000       -5.22370000000000        2.92930000000000
C           -5.73760000000000       -3.75840000000000        4.91890000000000
C           -6.60770000000000       -3.07440000000000        2.65860000000000
C           -0.82650000000000        5.05450000000000        1.54080000000000
C           -1.88450000000000        5.51620000000000        2.56370000000000
C            0.52470000000000        5.68360000000000        1.93690000000000
C           -1.21200000000000        5.55500000000000        0.13670000000000
C            4.31350000000000       -3.55640000000000        1.42780000000000
C            5.53140000000000       -2.61260000000000        1.37250000000000
C            4.29840000000000       -4.40350000000000        0.14130000000000
C            4.46900000000000       -4.47680000000000        2.65330000000000
H            5.40950000000000       -5.03020000000000        2.61210000000000
H            3.65730000000000       -5.20370000000000        2.70990000000000
H            4.46020000000000       -3.89450000000000        3.57680000000000
H            6.46040000000000       -3.18050000000000        1.28630000000000
H            5.60070000000000       -2.00580000000000        2.27730000000000
H            5.47320000000000       -1.94460000000000        0.51110000000000
H            5.23390000000000       -4.95450000000000        0.02300000000000
H            4.16790000000000       -3.76890000000000       -0.73740000000000
H            3.48440000000000       -5.12980000000000        0.15300000000000
H           -7.54720000000000       -3.60880000000000        2.81580000000000
H           -6.41120000000000       -3.04660000000000        1.58520000000000
H           -6.74880000000000       -2.04740000000000        2.99890000000000
H           -6.64820000000000       -4.31760000000000        5.14470000000000
H           -5.86780000000000       -2.74420000000000        5.29990000000000
H           -4.91620000000000       -4.22020000000000        5.46790000000000
H           -6.30650000000000       -5.74560000000000        3.10510000000000
H           -4.58400000000000       -5.76990000000000        3.46350000000000
H           -5.15120000000000       -5.27650000000000        1.85990000000000
H           -3.64610000000000        2.06060000000000        4.49410000000000
H           -4.26990000000000        0.54500000000000        5.16380000000000
H           -4.62310000000000        0.99590000000000        3.47310000000000
H           -4.94280000000000        0.69610000000000        0.19540000000000
H           -3.86550000000000        1.98460000000000       -0.36570000000000
H           -4.53270000000000        2.02120000000000        1.29260000000000
H           -1.25940000000000        6.64580000000000        0.10740000000000
H           -2.18740000000000        5.17040000000000       -0.16650000000000
H           -0.47960000000000        5.22920000000000       -0.60450000000000
H            0.85090000000000        5.32860000000000        2.91680000000000
H            0.44710000000000        6.77190000000000        1.98850000000000
H            1.30110000000000        5.44670000000000        1.20730000000000
H           -1.93660000000000        6.60620000000000        2.60870000000000
H           -1.64270000000000        5.15060000000000        3.56360000000000
H           -2.87890000000000        5.14940000000000        2.30530000000000
H            1.79000000000000       -4.54690000000000        1.55840000000000
H            3.85680000000000       -0.81630000000000        1.58140000000000
H            1.36420000000000        3.35920000000000        1.74270000000000
H           -2.82740000000000        3.30490000000000        1.11050000000000
H           -4.88220000000000       -1.18850000000000        3.97840000000000
H           -3.01650000000000       -4.65940000000000        2.40440000000000
C            0.85110000000000       -0.33160000000000        6.00510000000000
C            0.81680000000000       -1.50590000000000        6.76250000000000
C            0.84240000000000       -1.38500000000000        8.19380000000000
C            1.26060000000000       -0.15450000000000        8.75320000000000
C            1.31210000000000        0.97270000000000        7.94910000000000
C            1.03270000000000        0.91190000000000        6.58600000000000
C            0.52710000000000       -2.48810000000000        9.06270000000000
C            1.11630000000000       -2.51650000000000       10.36580000000000
C            1.69620000000000       -1.35090000000000       10.91360000000000
C            1.66390000000000       -0.09010000000000       10.16260000000000
C           -0.36940000000000       -3.54930000000000        8.69290000000000
C           -0.29880000000000       -4.79290000000000        9.36270000000000
C            0.50390000000000       -4.92600000000000       10.58390000000000
C            1.12200000000000       -3.70910000000000       11.12170000000000
C            1.72280000000000       -3.71690000000000       12.36840000000000
C            2.30560000000000       -2.58040000000000       12.91390000000000
C            2.27000000000000       -1.40560000000000       12.17240000000000
C           -1.40790000000000       -3.35970000000000        7.72140000000000
C           -2.09310000000000       -4.48630000000000        7.26050000000000
C           -1.89000000000000       -5.74520000000000        7.79610000000000
C           -1.03190000000000       -5.86790000000000        8.88530000000000
O           -1.72290000000000       -2.06730000000000        7.33790000000000
O            0.80690000000000       -2.77720000000000        6.21740000000000
O            1.99420000000000        0.96590000000000       10.68200000000000
O            0.61720000000000       -6.00050000000000       11.15600000000000
C           -2.56590000000000       -1.95940000000000        6.21800000000000
C            0.80390000000000       -2.82480000000000        4.81350000000000
C           -2.66530000000000       -6.93540000000000        7.21480000000000
C           -2.16750000000000       -8.27260000000000        7.79470000000000
C           -4.15880000000000       -6.77640000000000        7.54730000000000
C           -2.47380000000000       -6.97060000000000        5.68500000000000
C            0.96090000000000        2.16450000000000        5.70360000000000
C           -0.35350000000000        2.13950000000000        4.89560000000000
C            0.97720000000000        3.45610000000000        6.54240000000000
C            2.17170000000000        2.17950000000000        4.75710000000000
C            2.95590000000000       -2.65680000000000       14.30320000000000
C            3.57930000000000       -1.30970000000000       14.71580000000000
C            4.06850000000000       -3.72110000000000       14.28670000000000
C            1.88740000000000       -3.03970000000000       15.34280000000000
H            2.31600000000000       -3.08880000000000       16.34370000000000
H            1.44940000000000       -4.01150000000000       15.11920000000000
H            1.08270000000000       -2.30510000000000       15.35530000000000
H            4.04580000000000       -1.38380000000000       15.69820000000000
H            2.82310000000000       -0.52710000000000       14.76870000000000
H            4.34790000000000       -1.00100000000000       14.00780000000000
H            4.56410000000000       -3.78330000000000       15.25540000000000
H            4.82120000000000       -3.47860000000000       13.53700000000000
H            3.67010000000000       -4.70740000000000       14.05320000000000
H           -2.98610000000000       -7.82630000000000        5.24680000000000
H           -1.41700000000000       -7.04190000000000        5.43070000000000
H           -2.86740000000000       -6.07370000000000        5.21030000000000
H           -4.73960000000000       -7.60530000000000        7.14360000000000
H           -4.55830000000000       -5.85370000000000        7.13020000000000
H           -4.31250000000000       -6.74810000000000        8.62570000000000
H           -2.68470000000000       -9.11200000000000        7.33020000000000
H           -2.34950000000000       -8.32940000000000        8.86730000000000
H           -1.09990000000000       -8.39960000000000        7.61820000000000
H           -2.54700000000000       -0.92230000000000        5.87990000000000
H           -3.58520000000000       -2.23320000000000        6.49060000000000
H           -2.19810000000000       -2.59450000000000        5.41130000000000
H            0.76640000000000       -3.86980000000000        4.50160000000000
H            1.71480000000000       -2.36810000000000        4.42340000000000
H           -0.07830000000000       -2.31250000000000        4.42930000000000
H            2.13780000000000        3.03640000000000        4.08620000000000
H            2.20530000000000        1.28340000000000        4.14050000000000
H            3.10290000000000        2.22590000000000        5.31990000000000
H            0.16060000000000        3.46230000000000        7.26360000000000
H            0.86430000000000        4.33120000000000        5.90300000000000
H            1.91670000000000        3.56420000000000        7.08280000000000
H           -0.44270000000000        3.02240000000000        4.26510000000000
H           -1.21490000000000        2.11280000000000        5.56120000000000
H           -0.42060000000000        1.26750000000000        4.24760000000000
H            1.72440000000000       -4.63930000000000       12.91910000000000
H            2.69590000000000       -0.50000000000000       12.56170000000000
H            1.57370000000000        1.90480000000000        8.41380000000000
H            0.73830000000000       -0.39470000000000        4.93970000000000
H           -2.82510000000000       -4.36500000000000        6.48680000000000
H           -0.92180000000000       -6.80860000000000        9.39120000000000
156
 energy: -222.813495132991 gnorm: 0.046879468413 xtb: 6.7.1 (edcfbbe)
C           -1.91199837135928        2.77525401567517        1.32227404608628
C           -1.92686252782118        1.39407009613809        1.37001789026092
C           -0.74318915884864        0.69022434402261        1.74095384308399
C            0.46155569595465        1.43074795825974        1.74346871965393
C            0.43520354749800        2.82503038188658        1.66482420332259
C           -0.74667879199454        3.52028616634108        1.53058544351441
C           -0.70972316903265       -0.71818819774821        2.01687493839926
C            0.51518285502397       -1.40338273972013        1.83371593050619
C            1.74052514682226       -0.69652744865310        1.73152054967474
C            1.75925499137678        0.75975673445485        1.81559521604113
C           -1.83819081921627       -1.47392470031192        2.48211524381419
C           -1.86173393791034       -2.87691251952406        2.30586243090498
C           -0.66274961161116       -3.60605426190972        1.88863750093583
C            0.56339635501615       -2.82057834611017        1.76993401271580
C            1.78458492039456       -3.46624602159881        1.61099937959662
C            2.99107343500660       -2.77648597620371        1.54462190472594
C            2.93983394132136       -1.38972833060543        1.61105565975682
C           -2.91476806944823       -0.90088296897419        3.21945419140770
C           -4.05073442372331       -1.64982822341238        3.46609993218414
C           -4.14261969256310       -3.00260567260258        3.12263978116608
C           -3.01774869801885       -3.60490058928304        2.60096707077025
O           -2.72686701082202        0.36258120377599        3.76890238326581
O           -3.03696815540695        0.64943985559551        0.98518794861956
O            2.82076206143460        1.39428279499431        1.89978148367706
O           -0.67092124268216       -4.83238451960178        1.72017224048467
C           -3.87831614358812        1.01492711229699        4.24645221631512
C           -4.14014059768417        1.37794689043943        0.50732865079711
C           -5.44327147098242       -3.76086470738774        3.40136815663058
C           -5.36600079646485       -5.21960441718397        2.93006494795803
C           -5.73687864296940       -3.75833944151355        4.91008174765654
C           -6.60240494694354       -3.07588853437188        2.65870143294577
C           -0.82273539390052        5.04927151270283        1.54241684054867
C           -1.87962609066607        5.51242009268996        2.55999690586644
C            0.51920914483006        5.68322636970812        1.93460544241406
C           -1.21053551862767        5.55240818181314        0.14230014780546
C            4.30851199439926       -3.54994906174606        1.42770739663380
C            5.52672535999910       -2.61628771599949        1.37167983827950
C            4.29523273815428       -4.39851333786826        0.14568861912502
C            4.46488619056160       -4.47087924617523        2.64862266515934
H            5.40622073729659       -5.02077998596627        2.60128686973037
H            3.65354636772876       -5.19367999967775        2.70388745853539
H            4.45569064229928       -3.88732635702424        3.56788741753578
H            6.44685694657300       -3.19649282234376        1.28639706054100
H            5.59493073696741       -2.01356999383781        2.27560003597725
H            5.46898244344800       -1.95086499732330        0.51131295161716
H            5.23219753541326       -4.94683437875902        0.03442020323689
H            4.16561463790511       -3.76220203251053       -0.72939414061862
H            3.48147263820703       -5.12069233867975        0.16050674736864
H           -7.53800598265752       -3.61350208273342        2.82083349499563
H           -6.40197109286216       -3.05038198000718        1.58831663555503
H           -6.73984625333150       -2.05140695797680        3.00011943873947
H           -6.64681556656452       -4.31850193036161        5.13063235290996
H           -5.86449728646116       -2.74596974561629        5.28971034498750
H           -4.91529664348305       -4.21969804149179        5.45418415979792
H           -6.31399911835856       -5.72807397774515        3.11186463129992
H           -4.58962245154798       -5.76180896447509        3.46602762024808
H           -5.15306346803758       -5.27024666933623        1.86346684396663
H           -3.60607424863048        2.04742867078819        4.47295763511911
H           -4.26004535782419        0.54866913610226        5.16139949807491
H           -4.65719793149420        1.00862286237989        3.47908334328173
H           -4.90898137097151        0.66162780289438        0.21199299972337
H           -3.86698443975178        1.98120761981098       -0.36550210287514
H           -4.54871780818253        2.02870632024765        1.28691870998867
H           -1.25704660905505        6.64236598336887        0.11845278756815
H           -2.18347436320192        5.16622248814151       -0.15834266165988
H           -0.47729894938024        5.22466066014128       -0.59373649072248
H            0.84192035337796        5.32512919242917        2.91070478792343
H            0.42715385828273        6.76932193397424        1.98522163392786
H            1.29216025900929        5.44773120675075        1.20537807922509
H           -1.92654489180140        6.60190284036890        2.60077101671216
H           -1.63396150499363        5.14385940695463        3.55474180985029
H           -2.87118729437268        5.14535286978052        2.30157856825459
H            1.77426359158570       -4.54459655090668        1.55756865307045
H            3.84334143814573       -0.80244387677445        1.58165234268727
H            1.37817484994673        3.34033410454870        1.72983670613428
H           -2.82384414250495        3.30807863753542        1.10566993212842
H           -4.88154249664633       -1.19457678675898        3.98064067339070
H           -2.99207692168672       -4.66425889242845        2.40904758658153
C            0.85369665513356       -0.32937997026258        6.01858598872646
C            0.80528880087615       -1.48776311440959        6.77739770419797
C            0.83682088404924       -1.38817342224578        8.19816842108240
C            1.25754922945924       -0.16163403231577        8.75571334667602
C            1.31644180164782        0.97713581141260        7.95429710457098
C            1.03122127464075        0.92414213754338        6.60225695433251
C            0.52619907013125       -2.48965520814796        9.05700901878473
C            1.10696789129277       -2.51827999206446       10.34342670768985
C            1.69832007365076       -1.35476773555926       10.89575156276874
C            1.65940621371735       -0.08461475582259       10.16264015551019
C           -0.36005370915019       -3.54709508981574        8.69117288700360
C           -0.29778841460393       -4.78744322660980        9.36519739581418
C            0.50537164245198       -4.93487329721032       10.58253573475180
C            1.10762822478657       -3.70843441041794       11.11348530731186
C            1.71494801220543       -3.71473096984121       12.36253882617954
C            2.30476252061270       -2.57875309407876       12.90915016696148
C            2.26982025002813       -1.40708679071293       12.16016788949020
C           -1.38949153782411       -3.37904343212170        7.72122822911390
C           -2.08949097796267       -4.48552823743001        7.27406585955853
C           -1.88520517842148       -5.75627633613199        7.80847379473244
C           -1.03558066305538       -5.87251862161051        8.89352427295451
O           -1.70055011959657       -2.09483799766130        7.33683443009959
O            0.78875669437231       -2.75256723352744        6.23330155403428
O            1.99685059807999        0.98163757260182       10.69214061407931
O            0.61890123002270       -6.02148462130943       11.16564245114655
C           -2.55229368900149       -1.96315232850854        6.22803377510237
C            0.79932215602833       -2.82148467654795        4.82945527543857
C           -2.65931656582188       -6.93624145552210        7.21955089452176
C           -2.17226090303536       -8.27341163016590        7.79219719564864
C           -4.15276817797808       -6.77842598638616        7.54787796510341
C           -2.47376641092391       -6.97267657572728        5.69287549645651
C            0.95979373179331        2.16856555812378        5.72104776139961
C           -0.34687230580986        2.14347625817143        4.91286263192854
C            0.97644457636031        3.46053478172739        6.54660081760724
C            2.16829830048378        2.18320087600325        4.78040492636313
C            2.95396775121513       -2.65356396402115       14.29484884483274
C            3.57855656374915       -1.31576638272358       14.71656530488393
C            4.06411005010686       -3.71704743039210       14.28509490447723
C            1.89164157493289       -3.03807287554909       15.33722164865555
H            2.32550097529417       -3.08662273866626       16.33730574855290
H            1.45472119674362       -4.00777381093218       15.10908077025396
H            1.08933140526868       -2.30197995494890       15.34641793168057
H            4.04202530324268       -1.40320326189116       15.70035363669822
H            2.82227734863907       -0.53511697754078       14.76959181043923
H            4.34588238029110       -1.00883975169792       14.00852189722488
H            4.55661504238134       -3.77555439846600       15.25707894379145
H            4.81365036887460       -3.47137305663751       13.53462583004083
H            3.66305150837508       -4.69996137705012       14.04884504517246
H           -2.98879084054310       -7.83082367254813        5.25955039736830
H           -1.41752709166067       -7.04205586855648        5.44214317295088
H           -2.86443088744920       -6.07506342117334        5.22016794107237
H           -4.73145447175255       -7.60862701470127        7.14108322596168
H           -4.54845991251696       -5.85470439330402        7.13146067767462
H           -4.30226994462291       -6.74951440736434        8.62629954716118
H           -2.69515111550538       -9.10473304239097        7.31803713603889
H           -2.35623791003128       -8.32851525042133        8.86321022669741
H           -1.10548509319343       -8.39478834530818        7.61624347893294
H           -2.51332213098890       -0.92002578351400        5.91722804373395
H           -3.58300023771875       -2.22698456320994        6.48909418078553
H           -2.21221283371360       -2.58815561599816        5.39908855364938
H            0.76447525253574       -3.87382595195857        4.54529247998990
H            1.71009394387144       -2.37289650257338        4.42025196547590
H           -0.07489365574083       -2.31714567908068        4.41161473775820
H            2.13053159250964        3.03279039075075        4.10064951624984
H            2.19918363779507        1.28252103081136        4.17956299083606
H            3.09798025354186        2.23324729747093        5.34457873102506
H            0.16034394701715        3.46418150718178        7.26688688739094
H            0.86193956197013        4.32506733901136        5.89188873033330
H            1.91750840755587        3.56844831461387        7.08172357746904
H           -0.42868894172521        3.02493424780750        4.27867513574630
H           -1.20502150585220        2.11643224580453        5.58235602253772
H           -0.40987567170683        1.27452501108326        4.26634556266259
H            1.71816121900299       -4.64571531803718       12.91005394867695
H            2.68982240604034       -0.49215147546626       12.54562714887195
H            1.58547596583763        1.90505643103416        8.42960183462477
H            0.74893412040220       -0.39223370386564        4.94782138008211
H           -2.82597518216620       -4.36110488803773        6.49765040266217
H           -0.91796146683893       -6.81045079673402        9.40897434422056
156
 energy: -222.820434122132 gnorm: 0.016900784974 xtb: 6.7.1 (edcfbbe)
C           -1.90487728952991        2.78057317690939        1.32316088772080
C           -1.91814887834937        1.40728708722981        1.38248697085664
C           -0.74544060927591        0.68774103293871        1.74197440320375
C            0.45793336743906        1.42778289727481        1.72929657801857
C            0.44102655143111        2.82472741917414        1.65104480864073
C           -0.73453444722756        3.52673960828157        1.52956200000412
C           -0.71976897650760       -0.71334380683550        2.00968948003995
C            0.49987609270922       -1.39554532890859        1.83055416958069
C            1.72771295672246       -0.69522331695037        1.71796028054572
C            1.76015155567446        0.76281759670786        1.77450639991515
C           -1.84308542974622       -1.46920349415121        2.46365087820629
C           -1.86232534928668       -2.87226820354971        2.30034216714057
C           -0.66735701249048       -3.60570140110842        1.87776996148344
C            0.55615487793983       -2.81315201482988        1.77190738999147
C            1.77721327853851       -3.45924234031809        1.61172428610613
C            2.98725696231067       -2.77391512835953        1.54447880393041
C            2.92953290890142       -1.38831669276792        1.60560491318108
C           -2.93140538736530       -0.91044686429716        3.18633137596575
C           -4.05550591206730       -1.65755043788096        3.45146818723530
C           -4.14295306411991       -3.01672896542937        3.11487906845469
C           -3.01348471036361       -3.61112995196020        2.60173737730509
O           -2.75671827405647        0.35794263204125        3.69570540055534
O           -3.02664029854745        0.66731959816601        1.01439263924215
O            2.82791748279314        1.39861804147493        1.81083533063021
O           -0.68088280727487       -4.83048386639867        1.68123410613860
C           -3.87830403398982        1.01406655741499        4.22271384645859
C           -4.13270163958403        1.36666673368661        0.51843366652655
C           -5.43996743348574       -3.76525958134893        3.39653581742006
C           -5.36979536883182       -5.22053480250484        2.92920979817546
C           -5.73361154204492       -3.75918304980542        4.90338360365387
C           -6.59548397757647       -3.07683889676209        2.65465374401994
C           -0.81741470766045        5.04778865666638        1.54136060292920
C           -1.87363657164780        5.50553051728572        2.55861772022491
C            0.51790344981311        5.68440859851260        1.93293828730782
C           -1.20785727563114        5.54913309271373        0.14274166111089
C            4.29981156907113       -3.54433385870397        1.42788058134966
C            5.51826001375051       -2.61715813441000        1.37172198031593
C            4.28624739119647       -4.39245771249671        0.14762332175603
C            4.45584567323149       -4.46440771081098        2.64696151783575
H            5.39768495977532       -5.01146640512296        2.59296748714876
H            3.64451727066613       -5.18446654134155        2.70070474913737
H            4.44872995684516       -3.87972579341765        3.56373227879484
H            6.43002910738719       -3.20930671790326        1.28680706065348
H            5.58931978906763       -2.01684593864619        2.27484151577480
H            5.46431282977054       -1.95378593017453        0.51147061153629
H            5.22432111536196       -4.93891684781148        0.04396546398592
H            4.16007105443400       -3.75503252711772       -0.72564055073030
H            3.47236954352660       -5.11162863965628        0.16455115041389
H           -7.52842686061898       -3.61573614062412        2.82139913558678
H           -6.39381521079290       -3.05347714192072        1.58584012116570
H           -6.72941996010002       -2.05401583752711        2.99740743855863
H           -6.64416271021404       -4.31887458385648        5.11773083366425
H           -5.86025992858552       -2.74737033199646        5.28045290140421
H           -4.91277819046855       -4.22168191850783        5.44497740671116
H           -6.32232448202730       -5.71711464954410        3.11468279824537
H           -4.59681734876739       -5.76158804771917        3.46729816704995
H           -5.15578102729816       -5.27141123746576        1.86455537551690
H           -3.56278539929213        2.03712640625812        4.44126722404941
H           -4.23667217555046        0.55507638367494        5.15543102591710
H           -4.69964648026675        1.02808346155851        3.49253666303636
H           -4.87424219931900        0.61671105165866        0.23196725336437
H           -3.87218214595684        1.96633307344740       -0.36529416787476
H           -4.57140095170203        2.03007432349551        1.27712713939051
H           -1.25444387174439        6.63824523628029        0.12522547812494
H           -2.17965124641315        5.16148913807923       -0.15424521794015
H           -0.47364246981643        5.22105168088231       -0.58998965601826
H            0.83969320087406        5.32437693638423        2.90649682423423
H            0.41343021574179        6.76842655177318        1.98392457206478
H            1.28873607947147        5.45232668990698        1.20320786687620