152
 energy: -209.181061703958 gnorm: 0.099359670516 xtb: 6.7.1 (edcfbbe)
C           -3.06640000000000        2.39840000000000       -3.27960000000000
C           -2.89600000000000        1.15440000000000       -2.67610000000000
C           -1.85320000000000        1.01110000000000       -1.70050000000000
C           -0.82880000000000        1.99690000000000       -1.66200000000000
C           -1.02920000000000        3.20150000000000       -2.36190000000000
C           -2.16170000000000        3.44180000000000       -3.10940000000000
C           -1.74530000000000       -0.08720000000000       -0.78980000000000
C           -0.48310000000000       -0.31750000000000       -0.23080000000000
C            0.52210000000000        0.68020000000000       -0.32170000000000
N            0.32770000000000        1.84670000000000       -0.97150000000000
C           -2.79310000000000       -0.96030000000000       -0.35200000000000
C           -2.41840000000000       -2.22130000000000        0.18330000000000
N           -1.14240000000000       -2.53260000000000        0.51930000000000
C           -0.22690000000000       -1.54140000000000        0.44270000000000
C            1.03050000000000       -1.71580000000000        1.03580000000000
C            1.99710000000000       -0.72290000000000        1.03070000000000
C            1.73830000000000        0.44970000000000        0.33660000000000
C           -4.17200000000000       -0.57680000000000       -0.31710000000000
C           -5.12070000000000       -1.55160000000000       -0.02000000000000
C           -4.76860000000000       -2.85160000000000        0.33730000000000
C           -3.43120000000000       -3.15620000000000        0.46030000000000
O           -4.49070000000000        0.76670000000000       -0.49120000000000
O           -3.72540000000000        0.11200000000000       -3.12420000000000
C           -2.42450000000000        4.79070000000000       -3.79360000000000
C           -5.81860000000000       -3.91350000000000        0.69430000000000
C            3.33960000000000       -0.95220000000000        1.73980000000000
C           -7.24840000000000       -3.43010000000000        0.38450000000000
C           -5.55580000000000       -5.19150000000000       -0.12450000000000
C           -5.71950000000000       -4.22840000000000        2.19770000000000
C            4.26630000000000       -1.74940000000000        0.80880000000000
C            4.00860000000000        0.38970000000000        2.09630000000000
C            3.12610000000000       -1.73990000000000        3.04910000000000
C           -3.80160000000000        5.32140000000000       -3.35320000000000
C           -2.40410000000000        4.59890000000000       -5.32000000000000
C           -1.36090000000000        5.83950000000000       -3.41540000000000
H           -0.26320000000000        3.94910000000000       -2.27990000000000
H           -3.89960000000000        2.51590000000000       -3.94670000000000
H            2.47760000000000        1.22580000000000        0.28550000000000
H            1.22050000000000       -2.65310000000000        1.52320000000000
H           -3.13180000000000       -4.12370000000000        0.81820000000000
H           -6.15680000000000       -1.27830000000000       -0.02900000000000
C           -5.85790000000000        1.03380000000000       -0.69200000000000
C           -3.06650000000000       -1.12530000000000       -3.32870000000000
H           -1.32850000000000        5.99280000000000       -2.33720000000000
H           -1.58380000000000        6.80010000000000       -3.87910000000000
H           -0.37040000000000        5.53540000000000       -3.75180000000000
H           -3.17710000000000        3.90220000000000       -5.64090000000000
H           -1.44200000000000        4.20400000000000       -5.64480000000000
H           -2.57220000000000        5.54480000000000       -5.83410000000000
H           -4.60030000000000        4.63780000000000       -3.63730000000000
H           -4.01190000000000        6.28760000000000       -3.81110000000000
H           -3.83760000000000        5.44600000000000       -2.27140000000000
H            4.44010000000000       -1.20700000000000       -0.12000000000000
H            3.82520000000000       -2.71280000000000        0.55500000000000
H            5.23120000000000       -1.93260000000000        1.28080000000000
H            2.80510000000000       -2.76220000000000        2.85710000000000
H            2.36920000000000       -1.25950000000000        3.66620000000000
H            4.04750000000000       -1.79350000000000        3.62760000000000
H            4.31650000000000        0.93200000000000        1.20360000000000
H            4.90100000000000        0.22890000000000        2.69970000000000
H            3.32610000000000        1.02140000000000        2.66380000000000
H           -5.88420000000000       -3.32910000000000        2.79040000000000
H           -4.73600000000000       -4.61970000000000        2.45440000000000
H           -6.46230000000000       -4.96940000000000        2.49170000000000
H           -5.58160000000000       -4.97570000000000       -1.19210000000000
H           -6.30950000000000       -5.95010000000000        0.08440000000000
H           -4.58220000000000       -5.62050000000000        0.10730000000000
H           -7.34930000000000       -3.15650000000000       -0.66540000000000
H           -7.51450000000000       -2.56800000000000        0.99510000000000
H           -7.97520000000000       -4.21460000000000        0.59390000000000
H           -3.38840000000000       -1.84010000000000       -2.57170000000000
H           -1.98450000000000       -0.99750000000000       -3.28100000000000
H           -3.33650000000000       -1.50830000000000       -4.31320000000000
H           -5.97100000000000        2.08620000000000       -0.95380000000000
H           -6.41760000000000        0.83460000000000        0.22240000000000
H           -6.23190000000000        0.42450000000000       -1.51590000000000
C           -2.23560000000000        1.32120000000000        2.49550000000000
C           -1.77970000000000        0.31000000000000        3.33860000000000
C           -0.62130000000000        0.57520000000000        4.14710000000000
C            0.22340000000000        1.65870000000000        3.77370000000000
C           -0.29250000000000        2.63070000000000        2.89770000000000
C           -1.53350000000000        2.51130000000000        2.30850000000000
C           -0.22380000000000       -0.19460000000000        5.28870000000000
C            1.12750000000000       -0.12770000000000        5.64850000000000
C            1.95980000000000        0.87620000000000        5.08500000000000
N            1.49300000000000        1.80520000000000        4.22410000000000
C           -1.06240000000000       -0.99710000000000        6.12510000000000
C           -0.43840000000000       -1.97260000000000        6.94710000000000
N            0.90140000000000       -2.03120000000000        7.14240000000000
C            1.65470000000000       -1.06030000000000        6.58170000000000
C            3.01670000000000       -0.97370000000000        6.90410000000000
C            3.84420000000000        0.00570000000000        6.37580000000000
C            3.30250000000000        0.92020000000000        5.48660000000000
C           -2.47800000000000       -0.80640000000000        6.23000000000000
C           -3.22460000000000       -1.76230000000000        6.91320000000000
C           -2.63200000000000       -2.82970000000000        7.58450000000000
C           -1.25620000000000       -2.89330000000000        7.62580000000000
O           -3.03530000000000        0.36170000000000        5.71530000000000
O           -2.47200000000000       -0.90930000000000        3.29310000000000
C           -2.14790000000000        3.70200000000000        1.55660000000000
C           -3.46310000000000       -3.88150000000000        8.33400000000000
C            5.32380000000000        0.12560000000000        6.77180000000000
C           -4.97170000000000       -3.71280000000000        8.06810000000000
C           -3.04840000000000       -5.28920000000000        7.86630000000000
C           -3.21130000000000       -3.74040000000000        9.84520000000000
C            6.20280000000000        0.06390000000000        5.50930000000000
C            5.54470000000000        1.46870000000000        7.49070000000000
C            5.75580000000000       -1.01160000000000        7.71730000000000
C           -2.75630000000000        4.66630000000000        2.58890000000000
C           -3.25870000000000        3.24640000000000        0.59300000000000
C           -1.06670000000000        4.44370000000000        0.74710000000000
H            0.30890000000000        3.50280000000000        2.72290000000000
H           -3.13060000000000        1.12530000000000        1.93550000000000
H            3.91860000000000        1.70170000000000        5.08280000000000
H            3.40050000000000       -1.69350000000000        7.60140000000000
H           -0.77070000000000       -3.65570000000000        8.20600000000000
H           -4.28910000000000       -1.64620000000000        6.95490000000000
C           -4.42990000000000        0.32540000000000        5.52580000000000
C           -1.66780000000000       -2.06370000000000        3.44510000000000
H           -0.37120000000000        4.97170000000000        1.39770000000000
H           -1.51450000000000        5.18240000000000        0.08330000000000
H           -0.49320000000000        3.74390000000000        0.14310000000000
H           -4.11010000000000        2.83680000000000        1.13450000000000
H           -2.89570000000000        2.48030000000000       -0.08760000000000
H           -3.62360000000000        4.08030000000000       -0.00560000000000
H           -3.53130000000000        4.16840000000000        3.17100000000000
H           -3.20150000000000        5.53260000000000        2.10040000000000
H           -1.99550000000000        5.02170000000000        3.28300000000000
H            5.98570000000000        0.88980000000000        4.83370000000000
H            6.03680000000000       -0.86730000000000        4.96880000000000
H            7.25980000000000        0.11830000000000        5.76850000000000
H            5.61260000000000       -1.98530000000000        7.24960000000000
H            5.18870000000000       -0.98630000000000        8.64720000000000
H            6.81090000000000       -0.92060000000000        7.97430000000000
H            5.29930000000000        2.30850000000000        6.84210000000000
H            6.58300000000000        1.57910000000000        7.80200000000000
H            4.91650000000000        1.53750000000000        8.37820000000000
H           -3.48530000000000       -2.74340000000000       10.18910000000000
H           -2.16110000000000       -3.89930000000000       10.08620000000000
H           -3.79800000000000       -4.46560000000000       10.40830000000000
H           -3.19050000000000       -5.39410000000000        6.79110000000000
H           -3.64410000000000       -6.05540000000000        8.36180000000000
H           -2.00120000000000       -5.49010000000000        8.08700000000000
H           -5.18920000000000       -3.76870000000000        7.00170000000000
H           -5.33490000000000       -2.75790000000000        8.44660000000000
H           -5.54150000000000       -4.49810000000000        8.56410000000000
H           -1.95770000000000       -2.79360000000000        2.69070000000000
H           -1.82900000000000       -2.50110000000000        4.42930000000000
H           -0.61430000000000       -1.81750000000000        3.31170000000000
H           -4.72380000000000        1.21040000000000        4.96050000000000
H           -4.94120000000000        0.33440000000000        6.48870000000000
H           -4.69710000000000       -0.56330000000000        4.95220000000000
152
 energy: -209.194636500915 gnorm: 0.042240128240 xtb: 6.7.1 (edcfbbe)
C           -3.05982646190371        2.39229770920741       -3.28641608170326
C           -2.88803617860648        1.16171266624432       -2.67830982080410
C           -1.86226735191252        1.00237684546484       -1.71142411347290
C           -0.83394321692486        1.98965722339015       -1.66800860304928
C           -1.02423370195576        3.20388114031387       -2.36129777563061
C           -2.15747424498596        3.44775160179068       -3.10268761172564
C           -1.75600714823232       -0.08454003601465       -0.79233003798936
C           -0.49441429608539       -0.31491404011024       -0.23189462081624
C            0.51782363521160        0.67651065747462       -0.33234826612976
N            0.30986762047515        1.83432473758864       -0.97379145829710
C           -2.80406781945362       -0.94948693034692       -0.34985474149953
C           -2.42157638424034       -2.21201630831962        0.18541689412169
N           -1.14938123932777       -2.51659370493187        0.50756437551418
C           -0.23605525602712       -1.53617013090965        0.44561675842359
C            1.02972468474084       -1.72035090145088        1.03352137438731
C            1.99946984377320       -0.72349144011950        1.02629554553275
C            1.73953842093423        0.45341714808553        0.33281953276174
C           -4.17712560803792       -0.59481423464747       -0.32523936956031
C           -5.12012464278342       -1.55792283113252       -0.01445534275753
C           -4.76193017087550       -2.86191380595052        0.34352089996068
C           -3.42428435833017       -3.16376515583290        0.46087444868159
O           -4.49479056860487        0.72792124466191       -0.52123645759566
O           -3.70474611352306        0.12757705066503       -3.11213067431162
C           -2.42017587520620        4.78831499799071       -3.78854325233980
C           -5.81645589545623       -3.91254588259547        0.69146332424874
C            3.33476938342311       -0.94762172521830        1.73872623684403
C           -7.24258597274382       -3.43253142458256        0.38521868080639
C           -5.55395748568341       -5.18708230837885       -0.12461576732232
C           -5.71628430617377       -4.22524466104278        2.19211966458454
C            4.25668396088613       -1.74651072111930        0.80647582809030
C            4.00536964253322        0.38753395821783        2.09156312208717
C            3.12433028616277       -1.73856437359862        3.04045737730610
C           -3.79640338826535        5.31392526132732       -3.35153384224492
C           -2.40289260323715        4.59455102748532       -5.31239383470396
C           -1.36341365022474        5.83675338238483       -3.41695578005952
H           -0.24346131799993        3.93863548675983       -2.28095977489254
H           -3.89733569078376        2.50169618701519       -3.95602027551744
H            2.47158417975419        1.23978347955130        0.28391000448793
H            1.21320156597952       -2.66370561007187        1.51924179386816
H           -3.11035204157813       -4.12836557913891        0.82305548702882
H           -6.15879949763458       -1.28598870679568       -0.02496379494941
C           -5.85759794673876        1.02784828446911       -0.70136602846909
C           -3.06855348132108       -1.11981105016061       -3.32605067639142
H           -1.33220809495146        5.99060146835892       -2.34027545422808
H           -1.60119163456483        6.78968789633186       -3.88661328601038
H           -0.37543223429239        5.53581963219199       -3.75842047247856
H           -3.17614932519104        3.90002100068315       -5.63293346241305
H           -1.43995093571556        4.20257859337641       -5.63469515883587
H           -2.57166833587536        5.54391374104612       -5.81813000172468
H           -4.59404046515259        4.63202488597162       -3.63686745924864
H           -3.99768393594420        6.27892168155863       -3.81392877975379
H           -3.82835711342017        5.44056212566645       -2.27094330388873
H            4.43224424270015       -1.20170413925834       -0.11949943841402
H            3.81584594621177       -2.70987082485813        0.55583420656234
H            5.21764846337912       -1.92468702668988        1.28640463446353
H            2.81269712892388       -2.76286662718113        2.85018157498064
H            2.36963132699234       -1.25918917072627        3.65845882955353
H            4.04906665148427       -1.78012893397588        3.61223024904153
H            4.32240810952319        0.92297829745689        1.19955476770823
H            4.89163349425969        0.20908594582207        2.69707812417507
H            3.32295245003978        1.01885605730954        2.65663247427773
H           -5.88234171049290       -3.32464980842789        2.78097959901811
H           -4.73436232986325       -4.61729213584695        2.44692055838064
H           -6.46287169262202       -4.96486328891640        2.47697677188857
H           -5.58234760946493       -4.96842845957256       -1.19056507161934
H           -6.31233996584850       -5.93775003570746        0.09105987819458
H           -4.58246101498830       -5.61541615636015        0.10843821592273
H           -7.34470231652379       -3.16172469856117       -0.66431767337330
H           -7.51231888599910       -2.57643298624374        1.00099833943637
H           -7.95714485949236       -4.22588015187696        0.59698889141652
H           -3.38728062553019       -1.84744504755679       -2.57588456363944
H           -1.98238393596075       -1.01881704970860       -3.29062576227174
H           -3.35682989753718       -1.48276562165377       -4.31525716330581
H           -5.92686786020676        2.08565106337158       -0.95608500781442
H           -6.42548866409888        0.84774595030368        0.21668434839860
H           -6.26494597989665        0.43431877877638       -1.52371624587336
C           -2.22666707463453        1.31841862296840        2.49324916030284
C           -1.76678271553002        0.31796789080243        3.33389954620844
C           -0.62772520833085        0.56542988026029        4.14261283086648
C            0.21809980593426        1.65452891775042        3.77489983646859
C           -0.29197267675779        2.64025616405791        2.90584665662903
C           -1.53782131490389        2.52794960287520        2.32838176502939
C           -0.23368720517015       -0.19042762375244        5.28900346700723
C            1.11728373122509       -0.12324376547528        5.65218124375118
C            1.95499707243541        0.87400989598954        5.08151895110639
N            1.47583644595293        1.79698938461640        4.23441242645111
C           -1.07310723504235       -0.98236005812247        6.13013210875416
C           -0.44185632922339       -1.95979118724284        6.95346414221851
N            0.89100994822635       -2.01689614004186        7.13549325293358
C            1.64479557413292       -1.05089396859548        6.59132801525672
C            3.01510855894458       -0.97591237373127        6.91013140272552
C            3.84307476777608        0.00661789789337        6.38118972954294
C            3.30274912773724        0.92574883115408        5.48736270700062
C           -2.47898064500647       -0.81513796650855        6.23688893825676
C           -3.22139670111302       -1.75964464113147        6.92287372124739
C           -2.62358787179841       -2.83486024287756        7.59116064560226
C           -1.24885852477507       -2.89701678414624        7.63076468185416
O           -3.03020259132147        0.32931713708613        5.70735171443745
O           -2.44446281498956       -0.88862318712310        3.29479128799735
C           -2.14288040154210        3.70304814210169        1.55898427312063
C           -3.46113759887174       -3.87955657402455        8.33039144908361
C            5.31820339800093        0.12145038651398        6.77292468204671
C           -4.96533323401709       -3.71364246032264        8.06871550810508
C           -3.04708257324050       -5.28364136497895        7.86449032739745
C           -3.20890809271468       -3.73817908460238        9.83859419939184
C            6.19461183749120        0.06345988415349        5.51232038830760
C            5.53760562129174        1.46404070809672        7.48702448167579
C            5.75435748693027       -1.00874274166110        7.71478864961497
C           -2.75088957907759        4.66011384418722        2.59521584326197
C           -3.25348788721081        3.25653327515569        0.60160996482997
C           -1.06551563411466        4.44618801181056        0.75645608630124
H            0.32963996631838        3.49839650539016        2.71973664227720
H           -3.12785319518912        1.11771316541931        1.93912973308199
H            3.91374582126507        1.71361458661708        5.07935561817090
H            3.39174088064521       -1.70573065710441        7.60447548303693
H           -0.74976649958213       -3.65307104655036        8.21249269781536
H           -4.28871840739679       -1.64782342564577        6.96044761183691
C           -4.42584116627423        0.32215876372725        5.52369640702528
C           -1.66856945520802       -2.06225199587309        3.45465441563039
H           -0.38085568333064        4.98302215473267        1.40832747262706
H           -1.52763350405570        5.17443681850727        0.09223603532006
H           -0.48890552444306        3.74759275840130        0.15818270206449
H           -4.10639639907673        2.85461503267759        1.14362780101031
H           -2.89328930986036        2.49509512009335       -0.08132876857031
H           -3.60745899958882        4.09730716000415        0.00814632272014
H           -3.52758482831834        4.16101920883643        3.17244379195306
H           -3.19341588043647        5.52099955843862        2.09632212058481
H           -1.98977397637888        5.01618026634184        3.28669066997605
H            5.97854696085099        0.88968994126513        4.83908049463006
H            6.02945448276310       -0.86948324809887        4.97603604863321
H            7.24837668225770        0.11804461257213        5.78106481263684
H            5.61466139678756       -1.98120665801483        7.24638847342804
H            5.19229618872473       -0.98002141767125        8.64602436145393
H            6.80972097736073       -0.90371893307563        7.96062954948889
H            5.29370416461693        2.30227904692655        6.83826308193132
H            6.57738707655725        1.56522418652192        7.79385404326837
H            4.91158682617727        1.52939028160206        8.37508659416881
H           -3.48516603215373       -2.74194807015742       10.17999059912804
H           -2.16020105909357       -3.89817395874827       10.07764668184274
H           -3.79940439435733       -4.46593134362532       10.39284533686160
H           -3.19169332260516       -5.38587144154538        6.79044732912406
H           -3.64819681930839       -6.04118113693671        8.36475563802008
H           -2.00208321843541       -5.48368172258215        8.08683039950525
H           -5.18342858416374       -3.77258920409567        7.00358991720537
H           -5.33096763542026       -2.76372423808919        8.45454731627982
H           -5.52081057146450       -4.50524609843191        8.56841352377248
H           -1.97631952653690       -2.77655599956100        2.69123428965547
H           -1.82937789910332       -2.50788905311629        4.43835846331485
H           -0.60792943589024       -1.84766528619232        3.31940751928160
H           -4.68245191653388        1.21839804232150        4.95878960555963
H           -4.95147747838033        0.34671917682973        6.48298336517247
H           -4.72314786732908       -0.55860324796731        4.94814520926354
152
 energy: -209.198872984704 gnorm: 0.010635837289 xtb: 6.7.1 (edcfbbe)
C           -3.05080177852295        2.38682159214914       -3.29655183234982
C           -2.88001636065108        1.16293878443973       -2.68707825960480
C           -1.86785596091288        0.99444452581311       -1.72108897980456
C           -0.83655092616859        1.98415536548525       -1.67120498537256
C           -1.01728952343737        3.20259782002031       -2.36397954543216
C           -2.14898220329841        3.44882719416825       -3.10236395148072
C           -1.76329172143600       -0.08413632868769       -0.79579943291443
C           -0.50339635865673       -0.31324614977262       -0.23257996378503
C            0.51248088339820        0.67529212511257       -0.33838396732055
N            0.29746924367662        1.82489136117143       -0.97674416386387
C           -2.81310119637383       -0.94260528520245       -0.35132603467099
C           -2.42395642930280       -2.20595249438378        0.18604734833560
N           -1.15651574231075       -2.50432530541653        0.50304114156376
C           -0.24362956151143       -1.53348781307076        0.44635830332297
C            1.02658705813122       -1.72193606225790        1.03069828073610
C            1.99510771664830       -0.72187960826951        1.02304296934883
C            1.73642823992122        0.45649030012573        0.33094180746113
C           -4.18407922775862       -0.60889238212256       -0.33497222808747
C           -5.12140445996641       -1.56744492441461       -0.01461496245479
C           -4.75576926826492       -2.87265056822632        0.34618804505478
C           -3.41837335221864       -3.16968334707483        0.46143242229641
O           -4.50043787507794        0.69588772372875       -0.55869281146665
O           -3.69092905884088        0.13866776218667       -3.11078823539319
C           -2.41591508607845        4.78291147839899       -3.78446292947446
C           -5.81057159915321       -3.91492419086445        0.69066739378147
C            3.32626281376770       -0.94544199488198        1.73210131045772
C           -7.23551763408164       -3.44027825037039        0.38683856774538
C           -5.55166307860816       -5.18754002091093       -0.12491338181214
C           -5.71288852395636       -4.22638482347927        2.19022586201729
C            4.24710361309021       -1.74439814507129        0.79902808256185
C            4.00218162921311        0.38306079320805        2.08502766838848
C            3.12289340248097       -1.73556213577563        3.03163209714598
C           -3.79119663591793        5.30572645293462       -3.34738959373854
C           -2.39998415246826        4.58876407830785       -5.30682324131886
C           -1.36667725524346        5.83577495124899       -3.41976599739364
H           -0.22455867960448        3.92510209773280       -2.27941013401679
H           -3.88579995819043        2.48872622412712       -3.97279606796243
H            2.46062620322538        1.25126873973726        0.28231113988445
H            1.20382702434234       -2.66986166777293        1.51252896172004
H           -3.08711601983831       -4.13027550897862        0.82326629977585
H           -6.16154644198584       -1.29892566869325       -0.02342018721866
C           -5.85712415682865        1.03108589961041       -0.71643896691057
C           -3.07671891980509       -1.11652221166628       -3.33300042321459
H           -1.33174301960425        5.99093638973839       -2.34440168848917
H           -1.61806311161689        6.78328229116189       -3.89237654568572
H           -0.37994461498539        5.54098365371200       -3.76680086809203
H           -3.17309343785213        3.89533487058632       -5.62613989135996
H           -1.43654556528942        4.19878133341470       -5.62761916986481
H           -2.56994212479994        5.54078810979333       -5.80601987801301
H           -4.58653345972335        4.62314087878488       -3.63278943696457
H           -3.98874570775528        6.26959033044278       -3.81266676274598
H           -3.82081616109693        5.43342173784211       -2.26753607732745
H            4.42263392296655       -1.19806915344226       -0.12509891904660
H            3.80448957750788       -2.70640135490639        0.55071623003260
H            5.20558671001319       -1.92031598189081        1.28386425374293
H            2.82259693647409       -2.76227276988941        2.84172764880518
H            2.36703353257874       -1.26194029822536        3.65163020421575
H            4.05075147550864       -1.76559704368996        3.59855286973076
H            4.33024056455453        0.91189654011441        1.19410481314995
H            4.88202480123169        0.19205607519894        2.69534555190499
H            3.32189602061105        1.01923473288359        2.64522996314379
H           -5.87903326293880       -3.32330830897365        2.77417091712834
H           -4.73187231339763       -4.61785473973554        2.44396501808193
H           -6.46240493244226       -4.96383477214460        2.47090446409670
H           -5.58299793728956       -4.96580681358140       -1.18956186621517
H           -6.31264596436618       -5.93364740737987        0.09447791335507
H           -4.58083729719155       -5.61470685838270        0.10650627124387
H           -7.34141602844009       -3.16899751475162       -0.66145842956556
H           -7.51152595185389       -2.59039246754017        1.00724650566703
H           -7.93929018929682       -4.24259313491409        0.59886963787246
H           -3.39686932411111       -1.85086480596706       -2.58806840327495
H           -1.98658266757216       -1.04101129968403       -3.30651334427779
H           -3.38449751781480       -1.45968348169066       -4.32480471656235
H           -5.87939039990516        2.09261239349436       -0.96685274877700
H           -6.42603247474590        0.87152645702678        0.20760628538210
H           -6.30462826558537        0.45311088162909       -1.53252791470528
C           -2.21586621948423        1.31652957683627        2.48938934528925