116
 energy: -22.928061455056 gnorm: 0.329736929581 xtb: 6.6.1 (8d0f1dd)
C           -3.31122850772930        0.79849766164622       -0.92477639677520
C           -2.44380812530352       -0.12270372891954       -0.27661132624697
C           -1.41337090092821        0.39579727573559        0.56335275196199
C           -0.89266158675590        1.65801491088749        0.27377586709581
C           -1.72665675402493        2.51431363229076       -0.49448366572522
C           -2.95444148494349        2.13954154133227       -1.01494489940871
C           -0.74098268209890       -0.43411532818871        1.49825021926784
C            0.56872586496315        0.03782116815119        1.86248088067890
C            1.03782416582094        1.29402317993033        1.50887470833621
N            0.31238977034758        2.07067427098208        0.65193736800696
C           -1.29695700510141       -1.39996043042223        2.41574187746061
C           -0.38243517664656       -2.18060797534842        3.13232615520648
N            0.91308504082021       -1.90366887689689        3.30325166013478
C            1.37712470144904       -0.74872102533751        2.81811050966982
C            2.52149331701875       -0.17739833758153        3.39379298866852
C            2.95849061756259        1.02681208890480        2.95105897606587
C            2.24288949469137        1.78498308775960        2.03503020483770
C           -2.74860936222260       -1.74497937691422        2.38401158947411
C           -3.09416315450955       -2.91614440870436        3.00571134491758
C           -2.16786021984049       -3.77788778654213        3.63251872101904
C           -0.85708937311598       -3.40495313382985        3.68547234358092
O           -3.71994433332149       -0.94984598373544        1.67726658385724
O           -2.55702603277562       -1.47241711578389       -0.57241635275616
C           -3.84297843593025        3.13357444054366       -1.60938954875544
C           -2.68769581069131       -5.03867041417370        4.30484659386931
H           -1.39666850744143        3.51251503834900       -0.76806311868865
H           -4.27662633836220        0.55105838579656       -1.33106614114542
H            2.66329581305412        2.73912661909249        1.72562431984580
H            3.05775395548473       -0.69369546277216        4.16536137542516
H           -0.24710966264510       -4.12034095424229        4.22946223699121
H           -4.11477991332403       -3.04712728052358        3.03244694615357
O           -4.21824883374556        4.03433712717988       -0.87713382485991
O           -4.44510595673734        2.90643496899600       -2.81853501752979
C           -5.44216520282800        3.83300025693726       -3.02488532025093
C            4.23586651889298        1.50004220933226        3.59165660008449
O            5.05927614697201        0.66079890002952        3.91714215179376
O            4.47001334453535        2.86385149488593        3.72605651435371
C            5.79457498613219        3.08584475587818        4.15829123132174
O           -3.82227255313510       -5.27347675879771        4.16636005494405
O           -1.85023202017753       -5.79767454267276        5.06656077253571
C           -2.55119635829503       -6.86252441382958        5.62930343183426
C           -5.07197156564436       -1.42399175670916        1.58830531863830
C           -1.33089900128490       -2.23622472573986       -0.99264499351172
H           -2.54510546830388       -7.76426885143998        4.99136022291012
H           -3.57194749219491       -6.44405511486021        5.74196173723541
H           -2.09133598235598       -7.02043774843818        6.64022264233588
H            5.72707967266424        3.46798026205549        5.10135971236643
H            6.34060091246885        3.78468702308830        3.50069950143490
H            6.17933064298187        2.03010500085905        4.19342358084693
H           -0.91862729772622       -2.57650129080332       -0.01361370304871
H           -0.49769766914251       -1.60651221708571       -1.34094446550576
H           -1.52632419730509       -2.94569707152159       -1.75361447637286
H           -5.11788846557077       -2.41810833635233        1.17520213188926
H           -5.67929807973498       -0.69619639428435        1.04301666067831
H           -5.57598832326623       -1.42383358739762        2.57928294206544
H           -6.13050215934830        3.76035386975488       -2.23272855695873
H           -5.86615610071888        3.45938329385866       -4.02668959924245
H           -5.13479557532099        4.87790991548477       -2.98314551356402
C           -1.38192942069774        3.73616555005018        2.91232598411686
C           -1.84821468128685        2.59982427735607        3.49755545445181
C           -1.05946531454833        2.05730632010638        4.60922730982276
C            0.19893954712228        2.69376791964407        4.86302140881997
C            0.50425395911860        3.94630308659851        4.28768785650746
C           -0.26031777722226        4.46998310053134        3.25072669343212
C           -1.20488993561782        0.74454293276906        5.14851520323437
C           -0.06287609782692        0.02744069315890        5.60930570802864
C            1.19208754369866        0.71421540266195        5.78882868583885
N            1.19428660993148        2.06344359410476        5.62744624321596
C           -2.41361422770794        0.07928500213936        5.25249410304426
C           -2.45851584031083       -1.32662100968547        5.60237876023992
N           -1.29466212405906       -1.98318595734370        5.89916817085159
C           -0.14475655767527       -1.32117560077092        5.98824682881008
C            0.97209270935794       -1.98958449505532        6.53157704134458
C            2.21982707914082       -1.36973967291181        6.68703967237737
C            2.30561929262884       -0.09745313075593        6.26436900324455
C           -3.73018485967715        0.71367583494582        5.25810242262992
C           -4.89964478833448       -0.06184623426677        5.21204641615509
C           -4.82617965800088       -1.39228978090841        5.46901303780036
C           -3.67144193418464       -1.98914944386360        5.67265433266067
O           -3.75568638935321        2.07705011038914        5.52067969627343
O           -2.94192434743730        1.91263938797883        3.01658762327703
C            0.21273512614467        5.50086066357994        2.34765104514621
C           -6.06660304520411       -2.17604633098929        5.80641622556876
H            1.41756699010566        4.38133362238595        4.66974005703471
H           -1.82880610647429        4.11982501512100        2.06992133318584
H            3.26888037378556        0.32655662585251        6.31721410015598
H            0.87146188387207       -3.08471526305024        6.57830423410869
H           -3.67716811065157       -3.05999292755990        5.83019634570050
H           -5.77379677507622        0.43595144608221        4.71017130754348
O            1.34459852619901        5.82615848916894        2.44941456579099
O           -0.74718748219123        6.07961784856304        1.59848183464284
C           -0.21473095568964        7.24015934882472        1.05753806029483
C            3.53228080814219       -2.00967610361154        7.02506769044485
O            3.64093082622715       -3.14437803815732        7.50071391725347
O            4.56565258381079       -1.22937033368332        6.69086985080897
C            5.72579357310716       -1.80692399125161        7.22246151275881
O           -7.04801223588612       -1.95726935745904        5.14194115322235
O           -6.01514389321278       -2.93743591896022        6.94765316328794
C           -7.21292732384718       -3.62681918543340        7.15115816329978
C           -4.95459780685163        2.65960679932188        5.86868674392943
C           -3.68284113682406        2.59129188358641        2.05479246020704
H           -7.43119628931628       -4.22607794725959        6.20622607140901
H           -8.06548455146707       -2.91765848248592        7.29781126410398
H           -7.07314693247270       -4.33087306029711        7.91223421050944
H            6.57332189837178       -1.29353136199234        6.78341268688262
H            5.74663761932316       -2.84282155125561        6.88089468184451
H            5.69426191474290       -1.72781984964892        8.29460302186842
H           -4.10481209541493        3.44288266176275        2.60483747673152
H           -4.49244774344916        1.87419893016926        1.82433103764650
H           -3.18901540870812        2.85154642679373        1.06781919454921
H           -5.55414326821421        2.76698137191684        4.93950725322359
H           -4.78658370641210        3.62090640967288        6.25983200635257
H           -5.43485580473958        1.97242995129449        6.65265772412460
H            0.89164886030839        7.38838561720231        1.13776105146914
H           -0.62894889903848        8.04195665205089        1.64837664327952
H           -0.59282546386754        7.45699159724320        0.03719083132488
116
 energy: -22.784721296116 gnorm: 0.450465788087 xtb: 6.6.1 (8d0f1dd)
C           -3.35254796077806        0.99093342303727       -1.00091332361261
C           -2.51529701279869       -0.10441837760728       -0.41054289163522
C           -1.41732964324068        0.34289622476572        0.39804979797544
C           -0.99394838065048        1.69864677501335        0.22954890444493
C           -1.83671799235146        2.70922303328095       -0.35774044532491
C           -3.06330018569212        2.38154641069881       -0.87382997541566
C           -0.71918741825313       -0.43694315580894        1.34800670182445
C            0.55935825334329        0.11670923547404        1.64230044365557
C            0.98724247627794        1.37831624702003        1.32176293586043
N            0.15632842505907        2.22143575897022        0.73366696453362
C           -1.31565688471730       -1.50779504552081        2.14394552005600
C           -0.30473178689339       -2.31447113455775        2.79041965027757
N            1.03999316260832       -1.94562663005007        2.94175285594515
C            1.37040634873320       -0.74301455139971        2.49878992557930
C            2.63330050854434       -0.28955164567604        2.80349590650186
C            3.12673967743070        0.99199064747646        2.46876946367575
C            2.28553451549641        1.87167889278408        1.77235623411689
C           -2.65522742336829       -1.77959982363742        2.26528060228594
C           -2.93336327547040       -3.08330392196566        2.69818596722167
C           -1.99437108177960       -3.91425540386683        3.34947739242866
C           -0.70985856694033       -3.48072817459515        3.44092507481050
O           -3.58474027417604       -0.93589865575124        1.83666179357379
O           -2.73695345046924       -1.41104288227237       -1.05785466965004
C           -4.02646627804330        3.33101068129404       -1.48887415394770
C           -2.48183872930004       -4.96571179903116        4.23631574137498
H           -1.49774704042515        3.74323876340652       -0.43312355029595
H           -4.23839464532116        0.74715039572398       -1.35629952559084
H            2.22440506381556        2.91309650677796        2.18417261291683
H            3.17322747467244       -0.84420127363704        3.58632891729213
H            0.02025636640881       -3.98747962431337        4.03903077470769
H           -3.92764603648144       -3.50776647545013        2.75871992275332
O           -5.12121178644008        3.52977815900445       -1.01193781032720
O           -3.45372785194231        4.17527521582819       -2.47947449304360
C           -4.48431223692371        4.93798116112275       -3.17988274234952
C            4.59923639632427        1.33633901868328        2.88675381584707
O            5.26594180076023        0.46553719599506        3.42015339210051
O            5.12381174481114        2.60147307346941        2.28734105428942
C            6.48417459976385        2.65105529204335        2.59737031307263
O           -3.72382121793976       -5.15493349957144        4.25155885434864
O           -1.46506631272657       -5.53911023236279        4.91106546450351
C           -1.87204684904521       -6.44661529140630        5.92809682460044
C           -4.97642510359629       -1.43156948809588        1.65528174755224
C           -1.53706910755517       -2.12211900502204       -1.27776595502076
H           -1.49623602018466       -7.38243841382776        5.61223692603941
H           -2.92445417024395       -6.47086109636225        5.93191136472626
H           -1.57289196623565       -6.29489530614429        7.01674762715252
H            7.06701776064769        1.92893520635583        2.04653219082703
H            6.49963904748326        2.20167324821859        3.65923049402311
H            6.93302767528008        3.69855012509563        2.66317182650276
H           -1.37877797063482       -2.86748222758497       -0.43806137972871
H           -0.89340563718379       -1.29696789453732       -1.02669957160642
H           -1.62047870258652       -2.64311791376957       -2.15236385076975
H           -4.83364070625081       -2.33634037778035        1.22193254594662
H           -5.38703448751222       -0.68732747199483        0.94114495719877
H           -5.68846948373024       -1.33616718536604        2.52425253993178
H           -5.35911531703181        4.94768447172663       -2.46836336063511
H           -4.85923145524205        4.58977557148249       -4.06815305700757
H           -4.09273467574439        5.98199337803265       -3.48338464044351
C           -1.69587264911360        3.47086994755818        2.96771073702890
C           -1.96451722973919        2.37344372316874        3.68679472958974
C           -1.00459595367899        1.72833017790645        4.55785609207549
C            0.29059248514026        2.28461030203291        4.54656506198598
C            0.50973096608720        3.58069569395040        3.90607953626989
C           -0.45197848301217        4.15661936102618        3.08331472831231
C           -1.20224242157772        0.64856164560761        5.46186793110096
C           -0.01679234977235       -0.01551457596547        5.80134182935498
C            1.25433772670531        0.59536825016503        5.75186435056357
N            1.43664157402011        1.77452888658480        5.18410000128461
C           -2.46670968204083        0.00634388460754        5.87260121546522
C           -2.39922191526493       -1.37158129283937        6.05893500017772
N           -1.29163370403120       -1.98101952137836        6.40789775596620
C           -0.15617101264448       -1.28593564034991        6.37392130701422
C            0.99143925631719       -1.88261616577438        6.93823562704911
C            2.26379659358848       -1.31936008907501        6.92307706856430
C            2.36823643803303       -0.08211346321663        6.30996889961214
C           -3.66811718509781        0.78776568247189        6.12022540530489
C           -4.84356445473269        0.07370842072982        5.98725769309096
C           -4.92229839343344       -1.33371723449655        5.78797712139733
C           -3.71358357244404       -2.01073527856463        5.94921525277012
O           -3.62547898055075        2.15742169287628        6.30869510663082
O           -3.16913903111618        1.66424652344649        3.66332881840696
C           -0.16844534885837        5.32411427841665        2.17815477821626
C           -6.19894085682411       -2.06997076427677        5.62354753512078
H            1.51981532498447        3.90615226385688        3.89673406271986
H           -2.43554284580115        3.91074920451303        2.44008054245599
H            3.30693158747793        0.34567313926828        6.49970147936434
H            0.87638139690023       -2.72816470170952        7.54682987473211
H           -3.67423858278489       -3.13599930407709        6.02546157528088
H           -5.67241728507871        0.68505253100063        5.93211175643438
O            0.90651679215217        5.90310564403187        2.21309295391179
O           -1.22284221469488        5.51998356615385        1.30174092064172
C           -0.96476668071200        6.55641446910409        0.50130423389762
C            3.44402431235748       -1.69347908379391        7.79436992890896
O            3.46452198931859       -2.90254799399193        7.97697765631911
O            4.54391789838820       -0.95225349959454        8.04546728074126
C            5.51238853552908       -1.64446039776264        8.82897121952967
O           -6.81394557792722       -1.69063633457437        4.62013665252380
O           -6.66095503860470       -2.99765032274011        6.53275084061835
C           -8.04645685303445       -3.37508483543648        6.24130322109023
C           -4.81436796174305        2.69201474685978        6.74423119250317
C           -4.30586506785108        1.99418659603116        2.81468582988431
H           -8.06906466272185       -4.41535575213254        6.41365553103040
H           -8.19517021606508       -3.24794255852582        5.07101244663069
H           -8.74205253788594       -2.71737528150088        6.85734380633413
H            6.09825039574405       -2.49899228929833        8.40572214571749
H            4.87773073435028       -2.18945643957854        9.62924824086354
H            6.44948118853523       -0.96255923265152        9.01396203490532
H           -5.07906806079633        2.76478458058361        2.98550435445425
H           -4.90642298130020        1.10151776482426        2.93961501583412
H           -4.01460815606897        1.86156711573069        1.81385486059312
H           -4.59625919181155        3.08208474185522        7.74677341848085
H           -5.48166868097488        1.83218307371594        6.96561408288966
H           -5.18124446296337        3.24765951855169        5.96380076819337
H           -0.77641127264984        6.24732140265578       -0.59757217181296
H           -0.00184073070515        7.13229166027036        0.71614129538654
H           -1.97877164625273        7.06495074403034        0.34892804800073
116
 energy: -22.761593335643 gnorm: 0.427661467456 xtb: 6.6.1 (8d0f1dd)
C           -3.18601951925335        0.38145845118102       -1.12463023212867
C           -2.41949661776627       -0.50983316539372       -0.43039141421318
C           -1.35335975943170        0.11964411207050        0.48835227882061
C           -1.10306420215784        1.52227085874520        0.48640350985607
C           -1.88922034970402        2.32536941655503       -0.36159044959786
C           -2.91838196904465        1.78635623967214       -1.11114054409287
C           -0.64607471593965       -0.53031973199928        1.51178955611633
C            0.63364223384729       -0.03175013668596        1.83533323568869
C            1.13887542962945        1.20024991879939        1.24814715519988
N            0.16618836926723        2.03447278730044        0.71183610946776
C           -1.13397319344783       -1.42113853061794        2.49562019421047
C           -0.21864499472821       -2.22461175270281        3.25682068055722
N            1.09390120497806       -1.84111517804117        3.40853404457134
C            1.43832791003160       -0.66219979012740        2.81966066955318
C            2.70313097180322       -0.21973305415164        3.02745953913312
C            3.18740791065468        0.86750212631693        2.33151761310312
C            2.46779184636456        1.57098504814341        1.45146187680865
C           -2.52763565013734       -1.85925893274628        2.55995500282041
C           -2.82984520937405       -3.14168070265047        2.95693914401969
C           -1.95687360504898       -3.97060781142291        3.61596058414427
C           -0.60513474232247       -3.56523625223939        3.69219801223319
O           -3.46023165869209       -0.99310853098139        2.03826577456867
O           -2.33475698686522       -1.89240070398924       -0.97330781831017
C           -3.70079499531249        2.68357227024095       -2.05254095140818
C           -2.42750403434906       -5.21943642771322        4.26760080205097
H           -1.42541164625637        3.30228817268323       -0.38330302998428
H           -4.13715119746175        0.11668430333467       -1.47946767069717
H            2.95693729962355        2.35208183394799        0.94704800637797
H            3.31240838713112       -0.49631962845294        3.80832987471931
H            0.19258686964786       -4.05675902489679        4.18973506317277
H           -3.87899291506179       -3.39948332916699        2.97566879357696
O           -4.03585777508571        2.13216189278357       -3.08367694299154
O           -3.72097200077820        3.94217369928137       -1.71666244131909
C           -4.78272259136121        4.59510120373403       -2.43907177438978
C            4.56128010121945        1.44035077541241        2.52227548405285
O            5.27487514776215        0.92008036658749        3.39805777268009
O            4.93370141397089        2.46947135951700        1.77444970994899
C            6.31609136588883        2.82676518787226        1.91332969519369
O           -3.63410643661343       -5.28388651341654        4.43357615142806
O           -1.42720369629680       -6.18290755328158        4.68031993319064
C           -1.99818539807955       -7.54418411255859        4.57763271195662
C           -4.85167627388191       -1.32363796386085        2.18263271887993
C           -3.36656440847829       -2.31622930302022       -1.91467686040413
H           -2.11027292302024       -7.93274620711395        5.65412377680328
H           -1.27748083562676       -8.16274415313679        4.07200105529060
H           -2.89701164019950       -7.45014723637869        3.88549612915048
H            6.50709147591272        3.87926004358354        2.08931088884793
H            6.67445179291541        2.36330962570435        0.96044390530534
H            6.61820121252488        2.20055997904985        2.73739633839659
H           -3.31813044051550       -3.44325182319387       -1.86039503171733
H           -3.02204750932261       -2.17963098201236       -2.93833056569446
H           -4.32609896577052       -2.11527135200160       -1.50809481094743
H           -5.12550282210805       -2.21041082537819        1.77373014770359
H           -5.28194583672622       -0.51278350542436        1.60428795045979
H           -5.11288903363562       -1.38249915577020        3.29711003416514
H           -5.76741188934960        3.96767787231803       -2.38335424670058
H           -4.38981690350145        4.67198950846154       -3.50515341394543
H           -4.83070204371411        5.60327278036654       -2.05979866821251
C           -1.43756971048244        3.62763653487656        2.98973359678838
C           -1.82450953957906        2.54798618104954        3.86052622736842
C           -1.01682033341782        2.23520901432735        4.97576759880763
C            0.22599840878420        2.87146565702524        5.17056518245999
C            0.49079563006028        4.02106632055170        4.35554647648622
C           -0.30807412913066        4.43037867358255        3.26342714587815
C           -1.40806725400213        1.23112279005019        6.02588202114275
C           -0.37648958834557        0.57616262561384        6.71028998495311
C            0.89974370929531        1.08930568521805        6.57519903574116
N            1.21678387326126        2.24515293818452        5.89184681821595
C           -2.72012467237945        0.63887068204126        6.27052928144746
C           -2.70500487420498       -0.72390261208346        6.66901244415609
N           -1.63729617382311       -1.36637037101112        7.14032493989568
C           -0.54014828250661       -0.68331656710962        7.27461908602992
C            0.50662253721142       -1.45333036446601        7.67830212323831
C            1.82180604478875       -0.94328548168819        7.61261984445381
C            1.95391921182006        0.39041985104161        7.14676115447205
C           -3.94920588556018        1.28972196476426        6.04212496488822
C           -5.05762837537572        0.46882080212144        5.88411653314249
C           -4.90632171801877       -0.95295944383623        5.94905405545750
C           -3.76062721454377       -1.51659703154944        6.31353145149653
O           -3.78192456254018        2.64558625500309        5.98100488782925
O           -3.07520933860436        1.91924505466730        3.62693355138304
C            0.08339844664971        5.60254355164474        2.41074809930033
C           -5.93685083105684       -1.97551130767494        5.52993931083220
H            1.36532606421540        4.57132631564100        4.49409261734267
H           -1.87102771822415        3.71730246207177        2.06387715572230
H            2.86264104667238        0.86959393111026        6.81440660160553
H            0.39319140713134       -2.43836450602738        8.12961073872398
H           -3.58773064873271       -2.65421330333331        6.24318281804642
H           -5.97422913273166        0.95842658828283        5.74021290047917
O            0.69025675412759        6.66787043595449        2.66769289626162
O           -0.48185486892468        5.36241951381728        1.11667358325083
C           -0.00672842818136        6.50597801329079        0.34449736870049
C            3.03311752891774       -1.99798837306807        7.67054780284584
O            2.90727486148838       -3.05407287077278        8.23419643126650
O            4.13145113541786       -1.42593093384791        7.10972398775958
C            5.31825100346304       -2.05954754239338        7.59098465467321
O           -7.11232430047795       -1.67628988569274        5.39187583018784
O           -5.51536470644822       -3.26721377868223        5.50641758620619
C           -6.62296652403327       -4.16481814083574        5.46417844092737
C           -5.13099095245211        3.17953457478466        6.33454480263481
C           -4.03281627229797        2.50605408172462        2.80879150427304
H           -6.86872164058478       -4.40668569096407        4.43822328585873
H           -7.58974514683345       -3.69231894205671        5.69675364832471
H           -6.55435121523199       -5.08803451356035        5.85161733823325
H            6.23032792050064       -1.45200888936720        7.71835772737192
H            5.72126686263011       -2.63439792950803        6.70015487725150
H            5.34948749628282       -2.76201809852029        8.34746129483502
H           -4.37012504507172        3.61376121427740        2.95247487600671
H           -4.91735502478568        1.86621854229457        2.73533467595558
H           -3.55682302730513        2.13068521296148        1.82515572872009
H           -5.82657759941707        2.48871345518240        5.79292574284674
H           -5.45235075708516        4.14720604246090        5.82854292350147
H           -5.20378416106224        3.25905036785820        7.39802851419205
H            0.91739813810361        6.28998927366881       -0.03235249926383
H            0.15435819019274        7.36816993521847        0.97333509110211
H           -0.78693278652325        6.55117438671311       -0.39149994196489
116
 energy: -22.777665124587 gnorm: 0.443579612827 xtb: 6.6.1 (8d0f1dd)
C           -3.37753879493976        0.28800338477931       -0.81400165582118
C           -2.51903485175749       -0.62954739861638       -0.24092892453999
C           -1.57002238581466       -0.06225110691576        0.66469148851579
C           -1.07904458497455        1.19204465785714        0.30797341508769
C           -1.83121831237195        2.05254161598715       -0.35755959086235
C           -3.07883510357789        1.63343298736006       -0.79809276049413
C           -0.72227844787565       -0.81493464821614        1.58039400681057
C            0.60424088589068       -0.41448080126095        1.89030835937964
C            0.90895229441022        0.83743760294447        1.40414216177875
N            0.12380905409703        1.66522003607367        0.67515323520852
C           -1.18088074790328       -2.04812364487788        2.18360732283299
C           -0.10008063256973       -2.80726641408601        2.85066302363353
N            1.23800537253159       -2.40672941441637        3.06579968086082
C            1.47579080636125       -1.14198935158916        2.67781244220941
C            2.61529005351784       -0.49363267324396        3.18623707909160
C            2.83766529666435        0.81912808637958        2.82895159036973
C            2.04942481640895        1.45500800793260        1.91147687555357
C           -2.49262435903417       -2.48492742467565        2.34076606813706
C           -2.60937263865992       -3.65734318617885        3.00611459000263
C           -1.67196298591434       -4.42757091418279        3.59162108213365
C           -0.38842700209819       -4.03377178620470        3.54091634252731
O           -3.59455568918143       -1.64248499904935        2.08583470257108
O           -2.55445784220582       -2.03508029974790       -0.42020495485361
C           -3.61786949169773        2.53083865690023       -1.89517493976977
C           -2.26215823043481       -5.57903575873460        4.36299154134756
H           -1.50300582197782        2.99788250126562       -0.69768253314942
H           -4.25095251322839       -0.06964027962025       -1.29633734691280
H            2.16195216190019        2.49621538514463        1.83299549129855
H            3.11075032115786       -1.02827134217538        3.93799962415321
H            0.51260034422440       -4.46977525912200        3.90215074758705
H           -3.66498050701529       -4.00899062333988        3.05640300339456
O           -4.57611189452462        1.93271148806877       -2.45047782722674