Optimization of monomers started
      -----------------------------------------------------------      
     |                   =====================                   |     
     |                           x T B                           |     
     |                   =====================                   |     
     |                         S. Grimme                         |     
     |          Mulliken Center for Theoretical Chemistry        |     
     |                    University of Bonn                     |     
      -----------------------------------------------------------      

   * xtb version 6.7.1 (edcfbbe) compiled by 'runner@Mac-1732539442253.local' on 2024-11-25

   xtb is free software: you can redistribute it and/or modify it under
   the terms of the GNU Lesser General Public License as published by
   the Free Software Foundation, either version 3 of the License, or
   (at your option) any later version.
   
   xtb is distributed in the hope that it will be useful,
   but WITHOUT ANY WARRANTY; without even the implied warranty of
   MERCHANTABILITY or FITNESS FOR A PARTICULAR PURPOSE.  See the
   GNU Lesser General Public License for more details.
   
   Cite this work as:
   * C. Bannwarth, E. Caldeweyher, S. Ehlert, A. Hansen, P. Pracht,
     J. Seibert, S. Spicher, S. Grimme, WIREs Comput. Mol. Sci., 2020, 11,
     e01493. DOI: 10.1002/wcms.1493
   
   for GFN2-xTB:
   * C. Bannwarth, S. Ehlert and S. Grimme., J. Chem. Theory Comput., 2019,
     15, 1652-1671. DOI: 10.1021/acs.jctc.8b01176
   for GFN1-xTB:
   * S. Grimme, C. Bannwarth, P. Shushkov, J. Chem. Theory Comput., 2017,
     13, 1989-2009. DOI: 10.1021/acs.jctc.7b00118
   for GFN0-xTB:
   * P. Pracht, E. Caldeweyher, S. Ehlert, S. Grimme, ChemRxiv, 2019, preprint.
     DOI: 10.26434/chemrxiv.8326202.v1
   for GFN-FF:
   * S. Spicher and S. Grimme, Angew. Chem. Int. Ed., 2020, 59, 15665-15673.
     DOI: 10.1002/anie.202004239
   
   for ALPB and GBSA implicit solvation:
   * S. Ehlert, M. Stahn, S. Spicher, S. Grimme, J. Chem. Theory Comput.,
     2021, 17, 4250-4261. DOI: 10.1021/acs.jctc.1c00471
   
   for ddCOSMO and CPCM-X implicit solvation:
   * M. Stahn, S. Ehlert, S. Grimme, J. Phys. Chem. A,
     2023, XX, XXXX-XXXX. DOI: 10.1021/acs.jpca.3c04382
   
   for DFT-D4:
   * E. Caldeweyher, C. Bannwarth and S. Grimme, J. Chem. Phys., 2017,
     147, 034112. DOI: 10.1063/1.4993215
   * E. Caldeweyher, S. Ehlert, A. Hansen, H. Neugebauer, S. Spicher,
     C. Bannwarth and S. Grimme, J. Chem. Phys., 2019, 150, 154122.
     DOI: 10.1063/1.5090222
   * E. Caldeweyher, J.-M. Mewes, S. Ehlert and S. Grimme, Phys. Chem. Chem. Phys.
     2020, 22, 8499-8512. DOI: 10.1039/D0CP00502A
   
   for sTDA-xTB:
   * S. Grimme and C. Bannwarth, J. Chem. Phys., 2016, 145, 054103.
     DOI: 10.1063/1.4959605
   
   in the mass-spec context:
   * V. Asgeirsson, C. Bauer and S. Grimme, Chem. Sci., 2017, 8, 4879.
     DOI: 10.1039/c7sc00601b
   * J. Koopman and S. Grimme, ACS Omega 2019, 4, 12, 15120-15133.
     DOI: 10.1021/acsomega.9b02011
   
   for metadynamics refer to:
   * S. Grimme, J. Chem. Theory Comput., 2019, 155, 2847-2862
     DOI: 10.1021/acs.jctc.9b00143
   
   for SPH calculations refer to:
   * S. Spicher and S. Grimme, J. Chem. Theory Comput., 2021, 17, 1701-1714
     DOI: 10.1021/acs.jctc.0c01306
   
   for ONIOM refer to:
   * C. Plett, A. Katbashev, S. Ehlert, S. Grimme, M. Bursch,
     Phys. Chem. Chem. Phys., 2023, 25, 17860-17868. DOI: 10.1039/D3CP02178E
   
   for DIPRO refer to:
   * J. Kohn, N. Gildemeister, S. Grimme, D. Fazzi, A. Hansen,
     J. Chem. Phys., 2023, just accepted.
   
   for PTB refer to:
   * S. Grimme, M. Mueller, A. Hansen, J. Chem. Phys., 2023, 158, 124111.
     DOI: 10.1063/5.0137838
   
   with help from (in alphabetical order)
   P. Atkinson, C. Bannwarth, F. Bohle, G. Brandenburg, E. Caldeweyher
   M. Checinski, S. Dohm, S. Ehlert, S. Ehrlich, I. Gerasimov, C. Hölzer
   A. Katbashev, J. Kohn, J. Koopman, C. Lavigne, S. Lehtola, F. März, M. Müller,
   F. Musil, H. Neugebauer, J. Pisarek, C. Plett, P. Pracht, F. Pultar,
   J. Seibert, P. Shushkov, S. Spicher, M. Stahn, M. Steiner, T. Strunk,
   J. Stückrath, T. Rose, and J. Unsleber
   
 * started run on 2025/03/11 at 14:48:09.749     
   ID    Z sym.   atoms
    1    6 C      1-21, 25-44, 47, 52-75
    2    8 O      22, 23, 45, 46, 48-51
    3    5 B      24
    4    1 H      76-141

           -------------------------------------------------
          |                Calculation Setup                |
           -------------------------------------------------

          program call               : xtb Katherine2.mol --opt tight --cycles 500 --chrg -2 --uhf 1 --spinpol --tblite
          coordinate file            : Katherine2.mol
          omp threads                :                     8

########################################################################
[WARNING] Please study the warnings concerning your input carefully
-1- prog_main: Charge in sdf/mol input was overwritten
########################################################################
repulsion energy          3.2795660343054E+00 Eh
dispersion energy         2.9951942794630E-03 Eh
interaction energy        0.0000000000000E+00 Eh
number of electrons       3.8300000000000E+02 e
integral cutoff           1.9311100799991E+01 bohr

------------------------------------------------------------
  cycle        total energy    energy error   density error
------------------------------------------------------------
      1     -208.3049667988  -2.1158753E+02   1.0684353E-01
      2     -209.1059433792  -8.0097658E-01   5.1624922E-02
      3     -209.0585752020   4.7368177E-02   2.8933706E-02
      4     -208.9773534006   8.1221801E-02   2.1554433E-02
      5     -209.1006051768  -1.2325178E-01   1.6529056E-02
      6     -209.2003848833  -9.9779707E-02   6.8418056E-03
      7     -209.1916263635   8.7585198E-03   1.0891885E-02
      8     -209.1998436656  -8.2173021E-03   9.1101881E-03
      9     -209.2205544614  -2.0710796E-02   2.6980795E-03
     10     -209.2236159778  -3.0615164E-03   1.1383684E-03
     11     -209.2234347655   1.8121231E-04   1.2755119E-03
     12     -209.2239973350  -5.6256952E-04   3.5722437E-04
     13     -209.2237349998   2.6233521E-04   8.7934411E-04
     14     -209.2238067824  -7.1782612E-05   7.6660995E-04
     15     -209.2240303454  -2.2356305E-04   6.0379472E-05
     16     -209.2240241678   6.1776013E-06   1.4518629E-04
     17     -209.2240307568  -6.5889754E-06   4.4662319E-05
     18     -209.2240308215  -6.4709042E-08   4.2408890E-05
     19     -209.2240314389  -6.1737435E-07   1.4997088E-05
------------------------------------------------------------

electronic energy        -2.1250659266747E+02 Eh
total energy             -2.0922403143889E+02 Eh

 total:                                   2.934 sec
 - repulsion                              0.001 sec (  0%)
 - dispersion                             0.042 sec (  1%)
 - coulomb                                0.009 sec (  0%)
 - hamiltonian                            0.020 sec (  0%)
 - scc                                    2.862 sec ( 97%)

      ----------------------------------------------------------- 
     |                   =====================                   |
     |                        A N C O P T                        |
     |                   =====================                   |
     |               Approximate Normal Coordinate               |
     |                Rational Function Optimizer                |
      ----------------------------------------------------------- 
      ----------------------------------------------------------- 
     |                   =====================                   |
     |                        A N C O P T                        |
     |                   =====================                   |
     |               Approximate Normal Coordinate               |
     |                Rational Function Optimizer                |
      ----------------------------------------------------------- 

          ...................................................
          :                      SETUP                      :
          :.................................................:
          :   optimization level             tight          :
          :   max. optcycles                   500          :
          :   ANC micro-cycles                  20          :
          :   degrees of freedom               417          :
          :.................................................:
          :   RF solver                   davidson          :
          :   write xtbopt.log                true          :
          :   linear?                        false          :
          :   energy convergence         0.1000000E-05 Eh   :
          :   grad. convergence          0.8000000E-03 Eh/α :
          :   maxmium RF displ.          1.0000000          :
          :   Hlow (freq-cutoff)         0.1000000E-01      :
          :   Hmax (freq-cutoff)         5.0000000          :
          :   S6 in model hess.         20.0000000          :
          ...................................................

generating ANC from exact Hessian ...
Using Lindh-Hessian (1995)
 Shifting diagonal of input Hessian by    9.9709797278753984E-003
 Lowest  eigenvalues of input Hessian
    0.000000    0.000000    0.000000    0.000000    0.000000    0.000000
    0.010000    0.010040    0.010062    0.010233    0.010271    0.010384
    0.010390    0.010428    0.010703    0.010728    0.010781    0.010975
 Highest eigenvalues
    2.018941    2.023626    2.188521    2.189969    2.214259    2.215411


........................................................................
.............................. CYCLE    1 ..............................
........................................................................
------------------------------------------------------------
  cycle        total energy    energy error   density error
------------------------------------------------------------
      1     -209.2239384758  -2.1250650E+02   4.7581984E-04
      2     -209.2107828363   1.3155640E-02   5.6638419E-03
      3     -209.2240314162  -1.3248580E-02   1.6964002E-05
      4     -209.2240313189   9.7330656E-08   2.1198021E-05
      5     -209.2240315130  -1.9411866E-07   3.6834622E-06
------------------------------------------------------------

 total:                                   0.762 sec
 * total energy  :  -209.2240315 Eh     change       -0.7410097E-07 Eh
   gradient norm :     0.3037252 Eh/α   predicted     0.0000000E+00 (-100.00%)
   displ. norm   :     0.6449541 α      lambda       -0.1542813E+00
   maximum displ.:     0.1474734 α      in ANC's #154, #84, #296, ...

........................................................................
.............................. CYCLE    2 ..............................
........................................................................
------------------------------------------------------------
  cycle        total energy    energy error   density error
------------------------------------------------------------
      1     -209.3361451134  -2.1253727E+02   5.5486825E-03
      2     -209.3307709588   5.3741546E-03   5.7381902E-03
      3     -209.3006965093   3.0074449E-02   9.7604951E-03
      4     -209.3338415241  -3.3145015E-02   3.8787879E-03
      5     -209.3327565320   1.0849921E-03   4.0692250E-03
      6     -209.3397969710  -7.0404390E-03   5.1793878E-04
      7     -209.3397761007   2.0870317E-05   5.3478302E-04
      8     -209.3398584283  -8.2327580E-05   3.2085793E-04
      9     -209.3398989162  -4.0487986E-05   8.0791941E-05
     10     -209.3399003599  -1.4436190E-06   4.5346494E-05
     11     -209.3399007727  -4.1287817E-07   2.7215651E-05
     12     -209.3399010589  -2.8615599E-07   6.6552219E-06
------------------------------------------------------------

 total:                                   1.500 sec
 * total energy  :  -209.3399011 Eh     change       -0.1158695E+00 Eh
   gradient norm :     0.1475436 Eh/α   predicted    -0.1092696E+00 (  -5.70%)
   displ. norm   :     0.6253053 α      lambda       -0.7226432E-01
   maximum displ.:     0.1827879 α      in ANC's #146, #84, #111, ...

........................................................................
.............................. CYCLE    3 ..............................
........................................................................
------------------------------------------------------------
  cycle        total energy    energy error   density error
------------------------------------------------------------
      1     -209.3902079598  -2.1253783E+02   4.0730740E-03
      2     -209.3902789424  -7.0982618E-05   3.3449085E-03
      3     -209.3730742984   1.7204644E-02   6.4301247E-03
      4     -209.3746351108  -1.5608124E-03   6.0192799E-03
      5     -209.3918189648  -1.7183854E-02   6.4165529E-04
      6     -209.3919530552  -1.3409045E-04   2.1687507E-04
      7     -209.3919617081  -8.6528254E-06   1.1223136E-04
      8     -209.3919642506  -2.5425512E-06   4.4630020E-05
      9     -209.3919642664  -1.5781836E-08   3.0721184E-05
     10     -209.3919644350  -1.6863521E-07   1.4714218E-05
------------------------------------------------------------

 total:                                   1.521 sec
 * total energy  :  -209.3919644 Eh     change       -0.5206338E-01 Eh
   gradient norm :     0.0544056 Eh/α   predicted    -0.5026009E-01 (  -3.46%)
   displ. norm   :     0.6886924 α      lambda       -0.3253286E-01
   maximum displ.:     0.2404479 α      in ANC's #84, #18, #70, ...

........................................................................
.............................. CYCLE    4 ..............................
........................................................................
------------------------------------------------------------
  cycle        total energy    energy error   density error
------------------------------------------------------------
      1     -209.4173758166  -2.1254981E+02   3.1213545E-03
      2     -209.4174242233  -4.8406721E-05   1.9383337E-03
      3     -209.4028450543   1.4579169E-02   5.4554913E-03
      4     -209.4109614575  -8.1164032E-03   3.6186375E-03
      5     -209.4175289934  -6.5675359E-03   3.2842542E-04
      6     -209.4175701769  -4.1183447E-05   9.7875607E-05
      7     -209.4175716167  -1.4398660E-06   4.9705864E-05
      8     -209.4175723145  -6.9771832E-07   1.6756300E-05
------------------------------------------------------------

 total:                                   1.015 sec
 * total energy  :  -209.4175723 Eh     change       -0.2560788E-01 Eh
   gradient norm :     0.0344099 Eh/α   predicted    -0.2398157E-01 (  -6.35%)
   displ. norm   :     0.7244207 α      lambda       -0.2003963E-01
   maximum displ.:     0.2653130 α      in ANC's #18, #84, #70, ...

........................................................................
.............................. CYCLE    5 ..............................
........................................................................
------------------------------------------------------------
  cycle        total energy    energy error   density error
------------------------------------------------------------
      1     -209.4338550028  -2.1255910E+02   2.8110223E-03
      2     -209.4338983947  -4.3391839E-05   1.6528783E-03
      3     -209.4327571271   1.1412675E-03   1.5243868E-03
      4     -209.4294505830   3.3065441E-03   2.9842258E-03
      5     -209.4339092655  -4.4586825E-03   1.5613210E-04
      6     -209.4339172496  -7.9840293E-06   6.4231485E-05
      7     -209.4339183642  -1.1146773E-06   2.4197588E-05
      8     -209.4339184537  -8.9451078E-08   9.0795804E-06
------------------------------------------------------------

 total:                                   1.206 sec
 * total energy  :  -209.4339185 Eh     change       -0.1634614E-01 Eh
   gradient norm :     0.0263191 Eh/α   predicted    -0.1527808E-01 (  -6.53%)
   displ. norm   :     0.7445695 α      lambda       -0.1351731E-01
   maximum displ.:     0.3143584 α      in ANC's #18, #29, #70, ...

........................................................................
.............................. CYCLE    6 ..............................
........................................................................
------------------------------------------------------------
  cycle        total energy    energy error   density error
------------------------------------------------------------
      1     -209.4450206167  -2.1256616E+02   2.5683961E-03
      2     -209.4447675993   2.5301739E-04   1.6931061E-03
      3     -209.4191575652   2.5610034E-02   7.2066340E-03
      4     -209.4449909430  -2.5833378E-02   4.2533628E-04
      5     -209.4449886270   2.3160048E-06   4.0781224E-04
      6     -209.4450617597  -7.3132684E-05   1.2754419E-04
      7     -209.4450674933  -5.7336068E-06   5.6441627E-05
      8     -209.4450674364   5.6916832E-08   5.8557064E-05
      9     -209.4450690928  -1.6564207E-06   7.9737259E-06
     10     -209.4450690987  -5.8791727E-09   5.9823003E-06
------------------------------------------------------------

 total:                                   1.201 sec
 * total energy  :  -209.4450691 Eh     change       -0.1115065E-01 Eh
   gradient norm :     0.0176552 Eh/α   predicted    -0.1050555E-01 (  -5.79%)
   displ. norm   :     0.7527111 α      lambda       -0.9351757E-02
   maximum displ.:     0.3472977 α      in ANC's #18, #29, #70, ...

........................................................................
.............................. CYCLE    7 ..............................
........................................................................
------------------------------------------------------------
  cycle        total energy    energy error   density error
------------------------------------------------------------
      1     -209.4527840288  -2.1257240E+02   2.2923397E-03
      2     -209.4490962623   3.6877665E-03   3.0416666E-03
      3     -209.4376552295   1.1441033E-02   5.6147767E-03
      4     -209.4527184241  -1.5063195E-02   5.6209251E-04
      5     -209.4528032159  -8.4791789E-05   3.4364042E-04
      6     -209.4528590350  -5.5819121E-05   5.0634191E-05
      7     -209.4528596688  -6.3381890E-07   2.4277915E-05
      8     -209.4528596386   3.0197924E-08   2.3600249E-05
      9     -209.4528598480  -2.0939362E-07   1.0004594E-05
------------------------------------------------------------

 total:                                   1.162 sec
 * total energy  :  -209.4528598 Eh     change       -0.7790749E-02 Eh
   gradient norm :     0.0128718 Eh/α   predicted    -0.7325111E-02 (  -5.98%)
   displ. norm   :     0.7562381 α      lambda       -0.6718456E-02
   maximum displ.:     0.3658915 α      in ANC's #18, #29, #28, ...

........................................................................
.............................. CYCLE    8 ..............................
........................................................................
------------------------------------------------------------
  cycle        total energy    energy error   density error
------------------------------------------------------------
      1     -209.4584414609  -2.1257799E+02   1.9987026E-03
      2     -209.4577239116   7.1754937E-04   1.6975359E-03
      3     -209.4369255748   2.0798337E-02   6.5889008E-03
      4     -209.4582758148  -2.1350240E-02   6.5959794E-04
      5     -209.4584395916  -1.6377676E-04   3.0613110E-04
      6     -209.4584836387  -4.4047130E-05   5.9338010E-05
      7     -209.4584851598  -1.5210916E-06   1.7885510E-05
      8     -209.4584849528   2.0702413E-07   2.5896537E-05
      9     -209.4584852323  -2.7953408E-07   7.9333750E-06
------------------------------------------------------------

 total:                                   1.117 sec
 * total energy  :  -209.4584852 Eh     change       -0.5625384E-02 Eh
   gradient norm :     0.0113832 Eh/α   predicted    -0.5280381E-02 (  -6.13%)
   displ. norm   :     0.7493539 α      lambda       -0.4891259E-02
   maximum displ.:     0.3656117 α      in ANC's #18, #29, #4, ...

........................................................................
.............................. CYCLE    9 ..............................
........................................................................
------------------------------------------------------------
  cycle        total energy    energy error   density error
------------------------------------------------------------
      1     -209.4624813061  -2.1258300E+02   1.8496455E-03
      2     -209.4588737970   3.6075091E-03   2.8872195E-03
      3     -209.4532331456   5.6406513E-03   4.4081962E-03
      4     -209.4624717311  -9.2385854E-03   3.9256465E-04
      5     -209.4625317055  -5.9974461E-05   1.5438135E-04
      6     -209.4625419297  -1.0224142E-05   4.8409789E-05
      7     -209.4625428745  -9.4482559E-07   1.4167581E-05
------------------------------------------------------------

 total:                                   0.841 sec
 * total energy  :  -209.4625429 Eh     change       -0.4057642E-02 Eh
   gradient norm :     0.0099593 Eh/α   predicted    -0.3818946E-02 (  -5.88%)
   displ. norm   :     0.7244399 α      lambda       -0.3435722E-02
   maximum displ.:     0.3436380 α      in ANC's #18, #29, #4, ...

........................................................................
.............................. CYCLE   10 ..............................
........................................................................
------------------------------------------------------------
  cycle        total energy    energy error   density error
------------------------------------------------------------
      1     -209.4652884676  -2.1258645E+02   1.6633580E-03
      2     -209.4629712027   2.3172649E-03   2.3557758E-03
      3     -209.4562986825   6.6725202E-03   4.3191508E-03
      4     -209.4652658753  -8.9671927E-03   3.6442105E-04
      5     -209.4653238095  -5.7934291E-05   1.3452394E-04
      6     -209.4653315839  -7.7743258E-06   4.2407452E-05
      7     -209.4653323106  -7.2669869E-07   1.2371415E-05
------------------------------------------------------------

 total:                                   0.958 sec
 * total energy  :  -209.4653323 Eh     change       -0.2789436E-02 Eh
   gradient norm :     0.0082170 Eh/α   predicted    -0.2619417E-02 (  -6.10%)
   displ. norm   :     0.6837079 α      lambda       -0.2312277E-02
   maximum displ.:     0.3007045 α      in ANC's #18, #4, #29, ...

........................................................................
.............................. CYCLE   11 ..............................
........................................................................
------------------------------------------------------------
  cycle        total energy    energy error   density error
------------------------------------------------------------
      1     -209.4671515414  -2.1258879E+02   1.5444722E-03
      2     -209.4648991228   2.2524186E-03   2.2888381E-03
      3     -209.4597362352   5.1628876E-03   3.9283848E-03
      4     -209.4671474656  -7.4112304E-03   2.7112881E-04
      5     -209.4671786473  -3.1181697E-05   9.7540914E-05
      6     -209.4671825568  -3.9094621E-06   3.5241510E-05
      7     -209.4671830572  -5.0040228E-07   9.9452837E-06
------------------------------------------------------------

 total:                                   1.011 sec
 * total energy  :  -209.4671831 Eh     change       -0.1850747E-02 Eh
   gradient norm :     0.0078365 Eh/α   predicted    -0.1696584E-02 (  -8.33%)
   displ. norm   :     0.6467316 α      lambda       -0.1642681E-02
   maximum displ.:     0.2734499 α      in ANC's #4, #18, #29, ...

........................................................................
.............................. CYCLE   12 ..............................
........................................................................
------------------------------------------------------------
  cycle        total energy    energy error   density error
------------------------------------------------------------
      1     -209.4684984271  -2.1259018E+02   1.3063000E-03
      2     -209.4678322397   6.6618736E-04   1.3824881E-03
      3     -209.4592579834   8.5742564E-03   4.3245369E-03
      4     -209.4684781265  -9.2201431E-03   2.7536733E-04
      5     -209.4685108988  -3.2772362E-05   1.0288908E-04
      6     -209.4685156731  -4.7742304E-06   2.8471079E-05
      7     -209.4685159919  -3.1888990E-07   9.1507104E-06
------------------------------------------------------------

 total:                                   1.060 sec
 * total energy  :  -209.4685160 Eh     change       -0.1332935E-02 Eh
   gradient norm :     0.0085686 Eh/α   predicted    -0.1164878E-02 ( -12.61%)
   displ. norm   :     0.6392821 α      lambda       -0.1380203E-02
   maximum displ.:     0.3134430 α      in ANC's #4, #18, #29, ...

........................................................................
.............................. CYCLE   13 ..............................
........................................................................
------------------------------------------------------------
  cycle        total energy    energy error   density error
------------------------------------------------------------
      1     -209.4696562062  -2.1259091E+02   1.2335291E-03
      2     -209.4681111735   1.5450327E-03   1.8834441E-03
      3     -209.4649524876   3.1586859E-03   3.1305014E-03
      4     -209.4696639829  -4.7114953E-03   1.6743780E-04
      5     -209.4696741269  -1.0143925E-05   4.8559686E-05
      6     -209.4696750851  -9.5824333E-07   1.5498599E-05
------------------------------------------------------------

 total:                                   0.912 sec
 * total energy  :  -209.4696751 Eh     change       -0.1159093E-02 Eh
   gradient norm :     0.0074762 Eh/α   predicted    -0.9721363E-03 ( -16.13%)
   displ. norm   :     0.6555941 α      lambda       -0.1324547E-02
   maximum displ.:     0.3566242 α      in ANC's #4, #7, #8, ...

........................................................................
.............................. CYCLE   14 ..............................
........................................................................
------------------------------------------------------------
  cycle        total energy    energy error   density error
------------------------------------------------------------
      1     -209.4707814244  -2.1259137E+02   1.1172539E-03
      2     -209.4692455831   1.5358413E-03   1.8768412E-03
      3     -209.4678243837   1.4211994E-03   2.4900193E-03
      4     -209.4707799631  -2.9555794E-03   2.2835222E-04
      5     -209.4708034048  -2.3441727E-05   4.2447379E-05
      6     -209.4708040093  -6.0452422E-07   2.2918896E-05
      7     -209.4708041706  -1.6122735E-07   1.1127958E-05
------------------------------------------------------------

 total:                                   0.901 sec
 * total energy  :  -209.4708042 Eh     change       -0.1129085E-02 Eh
   gradient norm :     0.0071607 Eh/α   predicted    -0.9469225E-03 ( -16.13%)
   displ. norm   :     0.6653717 α      lambda       -0.1218341E-02
   maximum displ.:     0.3865830 α      in ANC's #4, #7, #8, ...

........................................................................
.............................. CYCLE   15 ..............................
........................................................................
------------------------------------------------------------
  cycle        total energy    energy error   density error
------------------------------------------------------------
      1     -209.4717856282  -2.1259040E+02   1.0502072E-03
      2     -209.4696438200   2.1418082E-03   2.1456389E-03
      3     -209.4697545991  -1.1077905E-04   2.1025483E-03
      4     -209.4717988565  -2.0442575E-03   1.7791638E-04
      5     -209.4718133613  -1.4504730E-05   5.3179429E-05
      6     -209.4718145964  -1.2351859E-06   1.8442459E-05
      7     -209.4718146723  -7.5806270E-08   9.5791218E-06
------------------------------------------------------------

 total:                                   1.008 sec
 * total energy  :  -209.4718147 Eh     change       -0.1010502E-02 Eh
   gradient norm :     0.0063390 Eh/α   predicted    -0.8788636E-03 ( -13.03%)
   displ. norm   :     0.6226890 α      lambda       -0.9357059E-03
   maximum displ.:     0.3783005 α      in ANC's #4, #7, #8, ...

........................................................................
.............................. CYCLE   16 ..............................
........................................................................
------------------------------------------------------------
  cycle        total energy    energy error   density error
------------------------------------------------------------
      1     -209.4725641704  -2.1259012E+02   8.7059358E-04
      2     -209.4722762587   2.8791169E-04   9.2603115E-04
      3     -209.4680212108   4.2550479E-03   3.0194742E-03
      4     -209.4725586994  -4.5374886E-03   1.6469089E-04
      5     -209.4725709575  -1.2258111E-05   3.6534569E-05
      6     -209.4725713790  -4.2149443E-07   1.9691151E-05
------------------------------------------------------------

 total:                                   0.861 sec
 * total energy  :  -209.4725714 Eh     change       -0.7567068E-03 Eh
   gradient norm :     0.0071519 Eh/α   predicted    -0.6492622E-03 ( -14.20%)
   displ. norm   :     0.5396661 α      lambda       -0.6826866E-03
   maximum displ.:     0.3397525 α      in ANC's #4, #8, #7, ...

........................................................................
.............................. CYCLE   17 ..............................
........................................................................
------------------------------------------------------------
  cycle        total energy    energy error   density error
------------------------------------------------------------
      1     -209.4729859246  -2.1258994E+02   8.6363868E-04
      2     -209.4613408242   1.1645100E-02   4.8385624E-03
      3     -209.4730188559  -1.1678032E-02   6.1049370E-04
      4     -209.4731111162  -9.2260258E-05   2.2525101E-04
      5     -209.4731326511  -2.1534960E-05   4.9151002E-05
      6     -209.4731337061  -1.0549401E-06   1.3936926E-05
      7     -209.4731337482  -4.2080188E-08   7.2275985E-06
------------------------------------------------------------

 total:                                   1.011 sec
 * total energy  :  -209.4731337 Eh     change       -0.5623691E-03 Eh
   gradient norm :     0.0061918 Eh/α   predicted    -0.4407615E-03 ( -21.62%)
   displ. norm   :     0.4952538 α      lambda       -0.5791135E-03
   maximum displ.:     0.3177086 α      in ANC's #4, #8, #7, ...

........................................................................
.............................. CYCLE   18 ..............................
........................................................................
------------------------------------------------------------
  cycle        total energy    energy error   density error
------------------------------------------------------------
      1     -209.4736167664  -2.1259265E+02   6.0731976E-04
      2     -209.4736169687  -2.0225039E-07   3.6097013E-04
      3     -209.4731217948   4.9517386E-04   9.9356092E-04
      4     -209.4735571979  -4.3540310E-04   3.5058955E-04
      5     -209.4736183855  -6.1187662E-05   2.6883165E-05
      6     -209.4736186437  -2.5815524E-07   1.2038555E-05
------------------------------------------------------------

 total:                                   0.972 sec
 * total energy  :  -209.4736186 Eh     change       -0.4848955E-03 Eh
   gradient norm :     0.0057948 Eh/α   predicted    -0.3605831E-03 ( -25.64%)
   displ. norm   :     0.5120212 α      lambda       -0.5445374E-03
   maximum displ.:     0.3283299 α      in ANC's #4, #3, #8, ...

........................................................................
.............................. CYCLE   19 ..............................
........................................................................
------------------------------------------------------------
  cycle        total energy    energy error   density error
------------------------------------------------------------
      1     -209.4740735086  -2.1259431E+02   6.4490036E-04
      2     -209.4734105634   6.6294523E-04   1.2112503E-03
      3     -209.4730037725   4.0679091E-04   1.5023524E-03
      4     -209.4740556107  -1.0518383E-03   2.4059390E-04
      5     -209.4740850833  -2.9472594E-05   3.5846638E-05
      6     -209.4740856405  -5.5712795E-07   1.2717877E-05
------------------------------------------------------------

 total:                                   0.782 sec
 * total energy  :  -209.4740856 Eh     change       -0.4669968E-03 Eh
   gradient norm :     0.0057664 Eh/α   predicted    -0.3436487E-03 ( -26.41%)
   displ. norm   :     0.5509368 α      lambda       -0.5388407E-03
   maximum displ.:     0.3509505 α      in ANC's #4, #3, #8, ...

........................................................................
.............................. CYCLE   20 ..............................
........................................................................
------------------------------------------------------------
  cycle        total energy    energy error   density error
------------------------------------------------------------
      1     -209.4745505739  -2.1259569E+02   7.1360502E-04
      2     -209.4743436608   2.0691309E-04   7.7846269E-04
      3     -209.4716536757   2.6899851E-03   2.4094206E-03
      4     -209.4745465732  -2.8928975E-03   1.3233844E-04
      5     -209.4745543435  -7.7702663E-06   2.6329974E-05
      6     -209.4745546052  -2.6171168E-07   1.1038792E-05
------------------------------------------------------------

 total:                                   0.948 sec
 * total energy  :  -209.4745546 Eh     change       -0.4689647E-03 Eh
   gradient norm :     0.0056027 Eh/α   predicted    -0.3511990E-03 ( -25.11%)
   displ. norm   :     0.5867702 α      lambda       -0.5325738E-03
   maximum displ.:     0.3729303 α      in ANC's #4, #3, #8, ...
 * RMSD in coord.:     0.8292214 α      energy gain  -0.2505232E+00 Eh

generating ANC from exact Hessian ...
Using Lindh-Hessian (1995)
 Shifting diagonal of input Hessian by    1.0100702271303299E-002
 Lowest  eigenvalues of input Hessian
    0.010000    0.000000    0.000000    0.000000    0.000000    0.000000
    0.000000    0.010121    0.010135    0.010186    0.010207    0.010364
    0.010429    0.010479    0.010501    0.010591    0.010657    0.010679
 Highest eigenvalues
    2.079401    2.079915    2.199645    2.203076    2.219550    2.222341


........................................................................
.............................. CYCLE   21 ..............................
........................................................................
------------------------------------------------------------
  cycle        total energy    energy error   density error
------------------------------------------------------------
      1     -209.4750104126  -2.1259630E+02   7.7083894E-04
      2     -209.4747478894   2.6252325E-04   8.5061489E-04
      3     -209.4715171770   3.2307124E-03   2.6615430E-03
      4     -209.4750019494  -3.4847724E-03   1.5949865E-04
      5     -209.4750151251  -1.3175688E-05   2.5378579E-05
      6     -209.4750152808  -1.5570808E-07   1.6206297E-05
------------------------------------------------------------

 total:                                   0.933 sec
 * total energy  :  -209.4750153 Eh     change       -0.4606756E-03 Eh
   gradient norm :     0.0049457 Eh/α   predicted     0.0000000E+00 (-100.00%)
   displ. norm   :     0.0970078 α      lambda       -0.1535417E-03
   maximum displ.:     0.0430444 α      in ANC's #4, #7, #10, ...

........................................................................
.............................. CYCLE   22 ..............................
........................................................................
------------------------------------------------------------
  cycle        total energy    energy error   density error
------------------------------------------------------------
      1     -209.4750505872  -2.1259634E+02   4.9628793E-04
      2     -209.4665527240   8.4978631E-03   4.1252460E-03
      3     -209.4751490398  -8.5963158E-03   1.2971751E-04
      4     -209.4751454010   3.6387771E-06   9.6434123E-05
      5     -209.4751493515  -3.9504764E-06   2.5385477E-05
      6     -209.4751495945  -2.4300121E-07   1.2113473E-05
------------------------------------------------------------

 total:                                   0.823 sec
 * total energy  :  -209.4751496 Eh     change       -0.1343137E-03 Eh
   gradient norm :     0.0028610 Eh/α   predicted    -0.7899811E-04 ( -41.18%)
   displ. norm   :     0.3450560 α      lambda       -0.4049367E-03
   maximum displ.:     0.1566017 α      in ANC's #4, #7, #13, ...

........................................................................
.............................. CYCLE   23 ..............................
........................................................................
------------------------------------------------------------
  cycle        total energy    energy error   density error
------------------------------------------------------------
      1     -209.4754105545  -2.1259655E+02   6.4107422E-04
      2     -209.4750249329   3.8562160E-04   9.6329098E-04
      3     -209.4739647463   1.0601866E-03   1.7215992E-03
      4     -209.4753815690  -1.4168227E-03   2.7401632E-04
      5     -209.4754185322  -3.6963219E-05   3.1573109E-05
      6     -209.4754188927  -3.6044750E-07   1.5854663E-05
------------------------------------------------------------

 total:                                   1.013 sec
 * total energy  :  -209.4754189 Eh     change       -0.2692982E-03 Eh
   gradient norm :     0.0050052 Eh/α   predicted    -0.2265868E-03 ( -15.86%)
   displ. norm   :     0.2656502 α      lambda       -0.1836269E-03
   maximum displ.:     0.1317197 α      in ANC's #4, #7, #13, ...

........................................................................
.............................. CYCLE   24 ..............................
........................................................................
------------------------------------------------------------
  cycle        total energy    energy error   density error
------------------------------------------------------------
      1     -209.4755580113  -2.1259621E+02   4.1583210E-04
      2     -209.4746045216   9.5348974E-04   1.3991738E-03
      3     -209.4754846545  -8.8013293E-04   4.6157842E-04
      4     -209.4755644897  -7.9835235E-05   8.6839655E-05
      5     -209.4755675790  -3.0892870E-06   1.6113469E-05
      6     -209.4755676660  -8.6989445E-08   8.9229026E-06
------------------------------------------------------------

 total:                                   0.959 sec
 * total energy  :  -209.4755677 Eh     change       -0.1487733E-03 Eh
   gradient norm :     0.0059158 Eh/α   predicted    -0.9829431E-04 ( -33.93%)
   displ. norm   :     0.3711789 α      lambda       -0.2640751E-03
   maximum displ.:     0.1869619 α      in ANC's #4, #7, #1, ...

........................................................................
.............................. CYCLE   25 ..............................
........................................................................
------------------------------------------------------------
  cycle        total energy    energy error   density error
------------------------------------------------------------
      1     -209.4757831470  -2.1259669E+02   4.9164896E-04
      2     -209.4753771592   4.0598789E-04   9.4833976E-04
      3     -209.4753595131   1.7646076E-05   9.5371578E-04
      4     -209.4757852205  -4.2570738E-04   7.2949171E-05
      5     -209.4757876628  -2.4423139E-06   1.7387250E-05
      6     -209.4757877763  -1.1354348E-07   6.9769199E-06
------------------------------------------------------------

 total:                                   0.935 sec
 * total energy  :  -209.4757878 Eh     change       -0.2201103E-03 Eh
   gradient norm :     0.0045210 Eh/α   predicted    -0.1502381E-03 ( -31.74%)
   displ. norm   :     0.4736519 α      lambda       -0.3020773E-03
   maximum displ.:     0.2462485 α      in ANC's #4, #7, #1, ...

........................................................................
.............................. CYCLE   26 ..............................
........................................................................
------------------------------------------------------------
  cycle        total energy    energy error   density error
------------------------------------------------------------
      1     -209.4760303802  -2.1259736E+02   5.9284813E-04
      2     -209.4759938709   3.6509300E-05   4.4148907E-04
      3     -209.4720142354   3.9796355E-03   2.8251943E-03
      4     -209.4760257900  -4.0115546E-03   1.1604829E-04
      5     -209.4760322415  -6.4515603E-06   2.6263204E-05
      6     -209.4760325128  -2.7130611E-07   8.2756405E-06
------------------------------------------------------------

 total:                                   0.736 sec
 * total energy  :  -209.4760325 Eh     change       -0.2447365E-03 Eh
   gradient norm :     0.0034310 Eh/α   predicted    -0.1849247E-03 ( -24.44%)
   displ. norm   :     0.5030382 α      lambda       -0.2529743E-03
   maximum displ.:     0.2669868 α      in ANC's #4, #7, #1, ...

........................................................................
.............................. CYCLE   27 ..............................
........................................................................
------------------------------------------------------------
  cycle        total energy    energy error   density error
------------------------------------------------------------
      1     -209.4762395879  -2.1259763E+02   6.0545360E-04
      2     -209.4761656613   7.3926617E-05   5.2277828E-04
      3     -209.4728115880   3.3540733E-03   2.6166800E-03
      4     -209.4762360773  -3.4244892E-03   1.0968373E-04
      5     -209.4762417763  -5.6990357E-06   2.4400952E-05
      6     -209.4762420105  -2.3423434E-07   9.2249801E-06
------------------------------------------------------------

 total:                                   0.855 sec
 * total energy  :  -209.4762420 Eh     change       -0.2094977E-03 Eh
   gradient norm :     0.0035939 Eh/α   predicted    -0.1584943E-03 ( -24.35%)
   displ. norm   :     0.4866819 α      lambda       -0.2214528E-03
   maximum displ.:     0.2665116 α      in ANC's #4, #7, #1, ...

........................................................................
.............................. CYCLE   28 ..............................
........................................................................
------------------------------------------------------------
  cycle        total energy    energy error   density error
------------------------------------------------------------
      1     -209.4764263064  -2.1259845E+02   5.9651793E-04
      2     -209.4763698159   5.6490561E-05   4.9094603E-04
      3     -209.4730334244   3.3363915E-03   2.5971232E-03
      4     -209.4764221688  -3.3887444E-03   1.1522747E-04
      5     -209.4764284472  -6.2783958E-06   2.2355496E-05
      6     -209.4764286530  -2.0575547E-07   7.9211778E-06
------------------------------------------------------------

 total:                                   0.895 sec
 * total energy  :  -209.4764287 Eh     change       -0.1866424E-03 Eh
   gradient norm :     0.0040159 Eh/α   predicted    -0.1369530E-03 ( -26.62%)
   displ. norm   :     0.4853509 α      lambda       -0.2113326E-03
   maximum displ.:     0.2715210 α      in ANC's #4, #7, #1, ...

........................................................................
.............................. CYCLE   29 ..............................
........................................................................
------------------------------------------------------------
  cycle        total energy    energy error   density error
------------------------------------------------------------
      1     -209.4766047351  -2.1259890E+02   6.0513681E-04
      2     -209.4761471190   4.5761610E-04   1.0166502E-03
      3     -209.4756263772   5.2074176E-04   1.4314127E-03
      4     -209.4766048291  -9.7845195E-04   1.0609248E-04
      5     -209.4766104527  -5.6235439E-06   1.7767636E-05
      6     -209.4766105698  -1.1710614E-07   7.8065324E-06
------------------------------------------------------------

 total:                                   0.803 sec
 * total energy  :  -209.4766106 Eh     change       -0.1819168E-03 Eh
   gradient norm :     0.0035878 Eh/α   predicted    -0.1305582E-03 ( -28.23%)
   displ. norm   :     0.4925310 α      lambda       -0.2183162E-03
   maximum displ.:     0.2838452 α      in ANC's #4, #7, #1, ...

........................................................................
.............................. CYCLE   30 ..............................
........................................................................
------------------------------------------------------------
  cycle        total energy    energy error   density error
------------------------------------------------------------
      1     -209.4767925364  -2.1259961E+02   6.5272458E-04
      2     -209.4766013243   1.9121212E-04   7.2923467E-04
      3     -209.4743974126   2.2039117E-03   2.1973394E-03
      4     -209.4767893860  -2.3919734E-03   1.1309837E-04
      5     -209.4767958853  -6.4992881E-06   2.7654060E-05
      6     -209.4767962249  -3.3963184E-07   8.1043405E-06
------------------------------------------------------------

 total:                                   0.834 sec
 * total energy  :  -209.4767962 Eh     change       -0.1856551E-03 Eh
   gradient norm :     0.0035856 Eh/α   predicted    -0.1356388E-03 ( -26.94%)
   displ. norm   :     0.4962707 α      lambda       -0.2061854E-03
   maximum displ.:     0.2931210 α      in ANC's #4, #7, #1, ...

........................................................................
.............................. CYCLE   31 ..............................
........................................................................
------------------------------------------------------------
  cycle        total energy    energy error   density error
------------------------------------------------------------
      1     -209.4769656475  -2.1259908E+02   6.8013412E-04
      2     -209.4769526563   1.2991275E-05   4.3373367E-04
      3     -209.4728863478   4.0663085E-03   2.8447577E-03
      4     -209.4769538167  -4.0674689E-03   1.6465208E-04
      5     -209.4769675687  -1.3752084E-05   2.0133411E-05
      6     -209.4769676907  -1.2198910E-07   1.1251585E-05
------------------------------------------------------------

 total:                                   0.862 sec
 * total energy  :  -209.4769677 Eh     change       -0.1714658E-03 Eh
   gradient norm :     0.0024777 Eh/α   predicted    -0.1284885E-03 ( -25.06%)
   displ. norm   :     0.4441235 α      lambda       -0.1578364E-03
   maximum displ.:     0.2697552 α      in ANC's #4, #7, #1, ...

........................................................................
.............................. CYCLE   32 ..............................
........................................................................
------------------------------------------------------------
  cycle        total energy    energy error   density error
------------------------------------------------------------
      1     -209.4770546198  -2.1259918E+02   7.0816414E-04
      2     -209.4733850769   3.6695429E-03   2.7329770E-03
      3     -209.4769168344  -3.5317575E-03   6.9369899E-04
      4     -209.4770895018  -1.7266741E-04   8.1155265E-05
      5     -209.4770918900  -2.3881750E-06   1.9342586E-05
      6     -209.4770920145  -1.2453063E-07   8.1865172E-06
------------------------------------------------------------

 total:                                   0.930 sec
 * total energy  :  -209.4770920 Eh     change       -0.1243238E-03 Eh
   gradient norm :     0.0018623 Eh/α   predicted    -0.9448485E-04 ( -24.00%)
   displ. norm   :     0.5096223 α      lambda       -0.9268347E-04
   maximum displ.:     0.3195587 α      in ANC's #4, #1, #7, ...

........................................................................
.............................. CYCLE   33 ..............................
........................................................................
------------------------------------------------------------
  cycle        total energy    energy error   density error
------------------------------------------------------------
      1     -209.4771629028  -2.1259804E+02   7.6699105E-04
      2     -209.4748291331   2.3337697E-03   2.1993834E-03
      3     -209.4767058498  -1.8767167E-03   1.0576937E-03
      4     -209.4771836792  -4.7782940E-04   8.7148123E-05
      5     -209.4771863955  -2.7162468E-06   1.9356537E-05
      6     -209.4771865168  -1.2133782E-07   9.0072575E-06
------------------------------------------------------------

 total:                                   0.848 sec
 * total energy  :  -209.4771865 Eh     change       -0.9450226E-04 Eh
   gradient norm :     0.0021383 Eh/α   predicted    -0.5169215E-04 ( -45.30%)
   displ. norm   :     0.1401355 α      lambda       -0.3609955E-04
   maximum displ.:     0.0940214 α      in ANC's #4, #2, #1, ...

........................................................................
.............................. CYCLE   34 ..............................
........................................................................
------------------------------------------------------------
  cycle        total energy    energy error   density error
------------------------------------------------------------
      1     -209.4772114364  -2.1259879E+02   2.2611451E-04
      2     -209.4765576253   6.5381103E-04   1.1478751E-03
      3     -209.4772040522  -6.4642691E-04   1.9878704E-04
      4     -209.4772155331  -1.1480881E-05   6.7447873E-05
      5     -209.4772178701  -2.3370143E-06   9.2833045E-06
      6     -209.4772179067  -3.6560266E-08   3.1502721E-06
------------------------------------------------------------

 total:                                   1.012 sec
 * total energy  :  -209.4772179 Eh     change       -0.3138989E-04 Eh
   gradient norm :     0.0014557 Eh/α   predicted    -0.1840631E-04 ( -41.36%)
   displ. norm   :     0.2217340 α      lambda       -0.4817702E-04
   maximum displ.:     0.1507281 α      in ANC's #4, #2, #1, ...

........................................................................
.............................. CYCLE   35 ..............................
........................................................................
------------------------------------------------------------
  cycle        total energy    energy error   density error
------------------------------------------------------------
      1     -209.4772694373  -2.1259973E+02   3.4281569E-04
      2     -209.4768850974   3.8433995E-04   8.9636928E-04
      3     -209.4771289497  -2.4385228E-04   5.6585100E-04
      4     -209.4772701560  -1.4120635E-04   8.0783058E-05
      5     -209.4772734017  -3.2456478E-06   1.0878515E-05
      6     -209.4772734401  -3.8405432E-08   5.5668861E-06
------------------------------------------------------------

 total:                                   0.840 sec
 * total energy  :  -209.4772734 Eh     change       -0.5553340E-04 Eh
   gradient norm :     0.0013228 Eh/α   predicted    -0.2461989E-04 ( -55.67%)
   displ. norm   :     0.1894900 α      lambda       -0.3306865E-04
   maximum displ.:     0.1327533 α      in ANC's #4, #2, #1, ...

........................................................................
.............................. CYCLE   36 ..............................
........................................................................
------------------------------------------------------------
  cycle        total energy    energy error   density error
------------------------------------------------------------
      1     -209.4773142248  -2.1259961E+02   2.6557626E-04
      2     -209.4773133688   8.5600053E-07   1.6380368E-04
      3     -209.4768420014   4.7136746E-04   9.6621412E-04
      4     -209.4773136458  -4.7164440E-04   4.4846727E-05
      5     -209.4773144859  -8.4016776E-07   8.5902453E-06
------------------------------------------------------------

 total:                                   0.848 sec
 * total energy  :  -209.4773145 Eh     change       -0.4104584E-04 Eh
   gradient norm :     0.0012668 Eh/α   predicted    -0.1679849E-04 ( -59.07%)
   displ. norm   :     0.1879420 α      lambda       -0.3367190E-04
   maximum displ.:     0.1302380 α      in ANC's #4, #2, #10, ...

........................................................................
.............................. CYCLE   37 ..............................
........................................................................
------------------------------------------------------------
  cycle        total energy    energy error   density error
------------------------------------------------------------
      1     -209.4773520059  -2.1259977E+02   2.9330976E-04
      2     -209.4767311913   6.2081466E-04   1.1237285E-03
      3     -209.4773236581  -5.9246682E-04   3.0389362E-04
      4     -209.4773554413  -3.1783173E-05   7.4292797E-05
      5     -209.4773582716  -2.8303266E-06   9.5873012E-06
      6     -209.4773582983  -2.6719619E-08   5.3350163E-06
------------------------------------------------------------

 total:                                   0.828 sec
 * total energy  :  -209.4773583 Eh     change       -0.4381238E-04 Eh
   gradient norm :     0.0011972 Eh/α   predicted    -0.1710716E-04 ( -60.95%)
   displ. norm   :     0.2424551 α      lambda       -0.4272887E-04
   maximum displ.:     0.1605918 α      in ANC's #4, #2, #5, ...

........................................................................
.............................. CYCLE   38 ..............................
........................................................................
------------------------------------------------------------
  cycle        total energy    energy error   density error
------------------------------------------------------------
      1     -209.4774054259  -2.1259950E+02   3.7061062E-04
      2     -209.4767479960   6.5742990E-04   1.1627168E-03
      3     -209.4773307948  -5.8279880E-04   4.4762450E-04
      4     -209.4774096778  -7.8883024E-05   6.4622479E-05
      5     -209.4774117980  -2.1202397E-06   9.3522122E-06
      6     -209.4774118166  -1.8528738E-08   5.9410321E-06
------------------------------------------------------------

 total:                                   0.909 sec
 * total energy  :  -209.4774118 Eh     change       -0.5351827E-04 Eh
   gradient norm :     0.0013048 Eh/α   predicted    -0.2192350E-04 ( -59.04%)
   displ. norm   :     0.3038218 α      lambda       -0.4799754E-04
   maximum displ.:     0.1976902 α      in ANC's #4, #2, #5, ...

........................................................................
.............................. CYCLE   39 ..............................
........................................................................
------------------------------------------------------------
  cycle        total energy    energy error   density error
------------------------------------------------------------
      1     -209.4774663358  -2.1259915E+02   4.4369611E-04
      2     -209.4769764261   4.8990968E-04   1.0189173E-03
      3     -209.4772206685  -2.4424243E-04   7.4497410E-04
      4     -209.4774680619  -2.4739338E-04   7.8562119E-05
      5     -209.4774712682  -3.2062970E-06   1.0561434E-05
      6     -209.4774712877  -1.9514601E-08   7.0229160E-06
------------------------------------------------------------

 total:                                   0.668 sec
 * total energy  :  -209.4774713 Eh     change       -0.5947116E-04 Eh
   gradient norm :     0.0014532 Eh/α   predicted    -0.2498529E-04 ( -57.99%)
   displ. norm   :     0.3165488 α      lambda       -0.4386473E-04
   maximum displ.:     0.2035782 α      in ANC's #4, #2, #5, ...

........................................................................
.............................. CYCLE   40 ..............................
........................................................................
------------------------------------------------------------
  cycle        total energy    energy error   density error
------------------------------------------------------------
      1     -209.4775180081  -2.1259935E+02   4.4863256E-04
      2     -209.4765818883   9.3611982E-04   1.3868421E-03
      3     -209.4773898858  -8.0799747E-04   5.7536567E-04
      4     -209.4775241745  -1.3428872E-04   7.6045326E-05
      5     -209.4775271076  -2.9331235E-06   1.1106914E-05
      6     -209.4775271390  -3.1395842E-08   6.6693163E-06
------------------------------------------------------------

 total:                                   0.963 sec
 * total energy  :  -209.4775271 Eh     change       -0.5585129E-04 Eh
   gradient norm :     0.0013551 Eh/α   predicted    -0.2291044E-04 ( -58.98%)
   displ. norm   :     0.3356477 α      lambda       -0.4465851E-04
   maximum displ.:     0.2175445 α      in ANC's #4, #2, #5, ...

........................................................................
.............................. CYCLE   41 ..............................
........................................................................
------------------------------------------------------------
  cycle        total energy    energy error   density error
------------------------------------------------------------
      1     -209.4775769028  -2.1259902E+02   4.5101948E-04
      2     -209.4767652753   8.1162759E-04   1.2937239E-03
      3     -209.4774062249  -6.4094964E-04   6.4480967E-04
      4     -209.4775824281  -1.7620316E-04   6.6877817E-05
      5     -209.4775847340  -2.3059220E-06   1.2264033E-05
      6     -209.4775847859  -5.1970574E-08   5.7110931E-06
------------------------------------------------------------

 total:                                   0.839 sec
 * total energy  :  -209.4775848 Eh     change       -0.5764693E-04 Eh
   gradient norm :     0.0011862 Eh/α   predicted    -0.2344911E-04 ( -59.32%)
   displ. norm   :     0.3825063 α      lambda       -0.5026746E-04
   maximum displ.:     0.2485565 α      in ANC's #4, #2, #5, ...

........................................................................
.............................. CYCLE   42 ..............................
........................................................................
------------------------------------------------------------
  cycle        total energy    energy error   density error
------------------------------------------------------------
      1     -209.4776466464  -2.1259933E+02   4.7927670E-04
      2     -209.4774418079   2.0483856E-04   6.9380520E-04
      3     -209.4768026092   6.3919870E-04   1.3204953E-03
      4     -209.4776473227  -8.4471354E-04   5.9096970E-05
      5     -209.4776489406  -1.6178481E-06   9.7881901E-06
      6     -209.4776489648  -2.4217400E-08   5.5425297E-06
------------------------------------------------------------

 total:                                   0.713 sec
 * total energy  :  -209.4776490 Eh     change       -0.6417883E-04 Eh
   gradient norm :     0.0011392 Eh/α   predicted    -0.2677222E-04 ( -58.28%)
   displ. norm   :     0.4322965 α      lambda       -0.5197177E-04
   maximum displ.:     0.2834008 α      in ANC's #4, #2, #5, ...
 * RMSD in coord.:     0.5327311 α      energy gain  -0.3094360E-02 Eh

generating ANC from exact Hessian ...
Using Lindh-Hessian (1995)
 Shifting diagonal of input Hessian by    1.0132692446205335E-002
 Lowest  eigenvalues of input Hessian
    0.010000    0.000000    0.000000    0.000000    0.000000    0.000000
    0.000000    0.010155    0.010170    0.010221    0.010248    0.010399
    0.010478    0.010507    0.010527    0.010637    0.010681    0.010704
 Highest eigenvalues
    2.079170    2.079216    2.198905    2.199623    2.219314    2.219563


........................................................................
.............................. CYCLE   43 ..............................
........................................................................
------------------------------------------------------------
  cycle        total energy    energy error   density error
------------------------------------------------------------
      1     -209.4777125113  -2.1259923E+02   5.1374233E-04
      2     -209.4777127698  -2.5856454E-07   3.0332100E-04
      3     -209.4777060966   6.6731918E-06   1.1556568E-04
      4     -209.4776418187   6.4277969E-05   3.7627061E-04
      5     -209.4777129890  -7.1170351E-05   9.7725679E-06
      6     -209.4777130061  -1.7067805E-08   6.0045768E-06
------------------------------------------------------------

 total:                                   0.702 sec
 * total energy  :  -209.4777130 Eh     change       -0.6404130E-04 Eh
   gradient norm :     0.0011690 Eh/α   predicted     0.0000000E+00 (-100.00%)
   displ. norm   :     0.0406143 α      lambda       -0.1311872E-05
   maximum displ.:     0.0195706 α      in ANC's #4, #21, #2, ...

........................................................................
.............................. CYCLE   44 ..............................
........................................................................
------------------------------------------------------------
  cycle        total energy    energy error   density error
------------------------------------------------------------
      1     -209.4777262706  -2.1259988E+02   1.1270891E-04
      2     -209.4776760343   5.0236305E-05   3.2306318E-04
      3     -209.4777141951  -3.8160738E-05   1.6947082E-04
      4     -209.4777262556  -1.2060537E-05   3.6168815E-05
      5     -209.4777268827  -6.2706474E-07   5.0730875E-06
------------------------------------------------------------

 total:                                   0.781 sec
 * total energy  :  -209.4777269 Eh     change       -0.1387658E-04 Eh
   gradient norm :     0.0005678 Eh/α   predicted    -0.5839260E-05 ( -57.92%)
   displ. norm   :     0.1331136 α      lambda       -0.2619223E-04
   maximum displ.:     0.0625176 α      in ANC's #4, #2, #21, ...

........................................................................
.............................. CYCLE   45 ..............................
........................................................................
------------------------------------------------------------
  cycle        total energy    energy error   density error
------------------------------------------------------------
      1     -209.4777521592  -2.1260038E+02   2.8751205E-04
      2     -209.4776807723   7.1386934E-05   4.1224743E-04
      3     -209.4774511370   2.2963531E-04   7.8722668E-04
      4     -209.4777515384  -3.0040145E-04   5.6685250E-05
      5     -209.4777531307  -1.5922280E-06   9.1623880E-06
      6     -209.4777531558  -2.5193629E-08   4.7826029E-06
------------------------------------------------------------

 total:                                   0.904 sec
 * total energy  :  -209.4777532 Eh     change       -0.2627319E-04 Eh
   gradient norm :     0.0012670 Eh/α   predicted    -0.1320061E-04 ( -49.76%)
   displ. norm   :     0.1046745 α      lambda       -0.1230374E-04
   maximum displ.:     0.0545690 α      in ANC's #4, #2, #21, ...

........................................................................
.............................. CYCLE   46 ..............................
........................................................................
------------------------------------------------------------
  cycle        total energy    energy error   density error
------------------------------------------------------------
      1     -209.4777631790  -2.1259995E+02   2.0380555E-04
      2     -209.4774763078   2.8687121E-04   7.6460799E-04
      3     -209.4777486590  -2.7235123E-04   2.1446912E-04
      4     -209.4777648066  -1.6147592E-05   5.2823982E-05
      5     -209.4777661049  -1.2983083E-06   6.9863909E-06
      6     -209.4777661196  -1.4729551E-08   3.7713551E-06
------------------------------------------------------------

 total:                                   0.887 sec
 * total energy  :  -209.4777661 Eh     change       -0.1296380E-04 Eh
   gradient norm :     0.0010228 Eh/α   predicted    -0.6197889E-05 ( -52.19%)
   displ. norm   :     0.1087783 α      lambda       -0.1121837E-04
   maximum displ.:     0.0587691 α      in ANC's #4, #2, #10, ...

........................................................................
.............................. CYCLE   47 ..............................
........................................................................
------------------------------------------------------------
  cycle        total energy    energy error   density error
------------------------------------------------------------
      1     -209.4777770392  -2.1259978E+02   1.9683959E-04
      2     -209.4775322712   2.4476803E-04   7.0649409E-04
      3     -209.4777608174  -2.2854619E-04   2.1841147E-04
      4     -209.4777789265  -1.8109098E-05   3.4570328E-05
      5     -209.4777794353  -5.0880226E-07   5.5149163E-06
------------------------------------------------------------

 total:                                   0.781 sec
 * total energy  :  -209.4777794 Eh     change       -0.1331562E-04 Eh
   gradient norm :     0.0006222 Eh/α   predicted    -0.5643086E-05 ( -57.62%)
   displ. norm   :     0.1510569 α      lambda       -0.1536494E-04
   maximum displ.:     0.0838064 α      in ANC's #4, #2, #10, ...

........................................................................
.............................. CYCLE   48 ..............................
........................................................................
------------------------------------------------------------
  cycle        total energy    energy error   density error
------------------------------------------------------------
      1     -209.4777922308  -2.1259954E+02   2.5413447E-04
      2     -209.4773250462   4.6718458E-04   9.7465185E-04
      3     -209.4777676452  -4.4259903E-04   2.7525517E-04
      4     -209.4777944428  -2.6797584E-05   6.9736142E-05
      5     -209.4777970274  -2.5846136E-06   6.2900026E-06
      6     -209.4777970343  -6.8667703E-09   3.9756711E-06
------------------------------------------------------------

 total:                                   1.015 sec
 * total energy  :  -209.4777970 Eh     change       -0.1759900E-04 Eh
   gradient norm :     0.0007160 Eh/α   predicted    -0.7760875E-05 ( -55.90%)
   displ. norm   :     0.1603502 α      lambda       -0.1405573E-04
   maximum displ.:     0.0914443 α      in ANC's #4, #2, #10, ...

........................................................................
.............................. CYCLE   49 ..............................
........................................................................
------------------------------------------------------------
  cycle        total energy    energy error   density error
------------------------------------------------------------
      1     -209.4778095010  -2.1259981E+02   2.6471768E-04
      2     -209.4775154366   2.9406441E-04   7.7949558E-04
      3     -209.4777585632  -2.4312656E-04   3.5643533E-04
      4     -209.4778114312  -5.2868026E-05   4.6904361E-05
      5     -209.4778124897  -1.0584940E-06   6.2492935E-06
      6     -209.4778124984  -8.7158014E-09   3.7261948E-06
------------------------------------------------------------

 total:                                   0.874 sec
 * total energy  :  -209.4778125 Eh     change       -0.1546414E-04 Eh
   gradient norm :     0.0010245 Eh/α   predicted    -0.7109579E-05 ( -54.03%)
   displ. norm   :     0.1298019 α      lambda       -0.1030567E-04
   maximum displ.:     0.0770832 α      in ANC's #4, #2, #10, ...

........................................................................
.............................. CYCLE   50 ..............................
........................................................................
------------------------------------------------------------
  cycle        total energy    energy error   density error
------------------------------------------------------------
      1     -209.4778216522  -2.1260008E+02   1.9203769E-04
      2     -209.4775665014   2.5515083E-04   7.2046781E-04
      3     -209.4778100097  -2.4350827E-04   1.9543741E-04
      4     -209.4778236215  -1.3611826E-05   2.9672567E-05
      5     -209.4778240757  -4.5424275E-07   5.5507104E-06
------------------------------------------------------------

 total:                                   0.748 sec
 * total energy  :  -209.4778241 Eh     change       -0.1157733E-04 Eh
   gradient norm :     0.0008215 Eh/α   predicted    -0.5192046E-05 ( -55.15%)
   displ. norm   :     0.1145798 α      lambda       -0.1002016E-04
   maximum displ.:     0.0693293 α      in ANC's #4, #2, #16, ...

........................................................................
.............................. CYCLE   51 ..............................
........................................................................
------------------------------------------------------------
  cycle        total energy    energy error   density error
------------------------------------------------------------
      1     -209.4778354288  -2.1260044E+02   1.5253749E-04
      2     -209.4777522965   8.3132223E-05   4.1635110E-04
      3     -209.4778150585  -6.2761965E-05   2.2223165E-04
      4     -209.4778348086  -1.9750131E-05   5.9248919E-05
      5     -209.4778366318  -1.8231387E-06   5.4185696E-06
      6     -209.4778366419  -1.0161585E-08   2.3095574E-06
------------------------------------------------------------

 total:                                   0.988 sec
 * total energy  :  -209.4778366 Eh     change       -0.1256620E-04 Eh
   gradient norm :     0.0005244 Eh/α   predicted    -0.5039734E-05 ( -59.89%)
   displ. norm   :     0.1527293 α      lambda       -0.1367097E-04
   maximum displ.:     0.0919526 α      in ANC's #4, #2, #16, ...

........................................................................
.............................. CYCLE   52 ..............................
........................................................................
------------------------------------------------------------
  cycle        total energy    energy error   density error
------------------------------------------------------------
      1     -209.4778529090  -2.1260056E+02   1.8159883E-04
      2     -209.4778059869   4.6922044E-05   3.2490256E-04
      3     -209.4777866935   1.9293454E-05   3.7531144E-04
      4     -209.4778526309  -6.5937371E-05   4.1213883E-05
      5     -209.4778535175  -8.8658567E-07   5.9905298E-06
------------------------------------------------------------

 total:                                   0.833 sec
 * total energy  :  -209.4778535 Eh     change       -0.1687552E-04 Eh
   gradient norm :     0.0006163 Eh/α   predicted    -0.6910097E-05 ( -59.05%)
   displ. norm   :     0.1845260 α      lambda       -0.1472966E-04
   maximum displ.:     0.1116892 α      in ANC's #4, #2, #16, ...

........................................................................
.............................. CYCLE   53 ..............................
........................................................................
------------------------------------------------------------
  cycle        total energy    energy error   density error
------------------------------------------------------------
      1     -209.4778678588  -2.1260030E+02   2.2241013E-04
      2     -209.4776040603   2.6379855E-04   7.3392821E-04
      3     -209.4778290087  -2.2494849E-04   3.1177188E-04
      4     -209.4778677694  -3.8760642E-05   7.3327552E-05
      5     -209.4778707477  -2.9782742E-06   4.6430080E-06
      6     -209.4778707496  -1.9233823E-09   2.8844387E-06
------------------------------------------------------------

 total:                                   0.821 sec
 * total energy  :  -209.4778707 Eh     change       -0.1723213E-04 Eh
   gradient norm :     0.0009481 Eh/α   predicted    -0.7479467E-05 ( -56.60%)
   displ. norm   :     0.1999210 α      lambda       -0.1397916E-04
   maximum displ.:     0.1230082 α      in ANC's #4, #2, #16, ...

........................................................................
.............................. CYCLE   54 ..............................
........................................................................
------------------------------------------------------------
  cycle        total energy    energy error   density error
------------------------------------------------------------
      1     -209.4778871422  -2.1260003E+02   2.1466309E-04
      2     -209.4778786437   8.4985443E-06   1.8051152E-04
      3     -209.4774261746   4.5246909E-04   9.6040085E-04
      4     -209.4778862310  -4.6005648E-04   5.0041771E-05
      5     -209.4778874075  -1.1764375E-06   5.4073923E-06
      6     -209.4778874142  -6.7078929E-09   3.1007090E-06
------------------------------------------------------------

 total:                                   0.873 sec
 * total energy  :  -209.4778874 Eh     change       -0.1666461E-04 Eh
   gradient norm :     0.0009141 Eh/α   predicted    -0.7116724E-05 ( -57.29%)
   displ. norm   :     0.2009135 α      lambda       -0.1265291E-04
   maximum displ.:     0.1260364 α      in ANC's #2, #4, #9, ...

........................................................................
.............................. CYCLE   55 ..............................
........................................................................
------------------------------------------------------------
  cycle        total energy    energy error   density error
------------------------------------------------------------
      1     -209.4779019383  -2.1259967E+02   2.1882330E-04
      2     -209.4778543121   4.7626229E-05   3.2977168E-04
      3     -209.4777176493   1.3666282E-04   6.1794694E-04
      4     -209.4779019624  -1.8431308E-04   3.4572168E-05
      5     -209.4779025192  -5.5684572E-07   5.5917284E-06
------------------------------------------------------------

 total:                                   0.872 sec
 * total energy  :  -209.4779025 Eh     change       -0.1510501E-04 Eh
   gradient norm :     0.0006244 Eh/α   predicted    -0.6440791E-05 ( -57.36%)
   displ. norm   :     0.2012906 α      lambda       -0.1143852E-04
   maximum displ.:     0.1286212 α      in ANC's #2, #4, #9, ...

........................................................................
.............................. CYCLE   56 ..............................
........................................................................
------------------------------------------------------------
  cycle        total energy    energy error   density error
------------------------------------------------------------
      1     -209.4779158438  -2.1259953E+02   2.1580160E-04
      2     -209.4778648196   5.1024186E-05   3.3882203E-04
      3     -209.4777427264   1.2209317E-04   6.0018084E-04
      4     -209.4779141968  -1.7147034E-04   6.9195503E-05
      5     -209.4779167597  -2.5629633E-06   4.8590417E-06
      6     -209.4779167610  -1.2720136E-09   3.6096151E-06
------------------------------------------------------------

 total:                                   0.753 sec
 * total energy  :  -209.4779168 Eh     change       -0.1424181E-04 Eh
   gradient norm :     0.0004009 Eh/α   predicted    -0.5823538E-05 ( -59.11%)
   displ. norm   :     0.2083162 α      lambda       -0.1107630E-04
   maximum displ.:     0.1338141 α      in ANC's #2, #4, #9, ...

........................................................................
.............................. CYCLE   57 ..............................
........................................................................
------------------------------------------------------------
  cycle        total energy    energy error   density error
------------------------------------------------------------
      1     -209.4779299692  -2.1259961E+02   2.2327816E-04
      2     -209.4778699210   6.0048180E-05   3.7348772E-04
      3     -209.4778280084   4.1912642E-05   4.6197134E-04
      4     -209.4779299065  -1.0189807E-04   3.8742093E-05
      5     -209.4779306739  -7.6744095E-07   5.0319331E-06
------------------------------------------------------------

 total:                                   0.623 sec
 * total energy  :  -209.4779307 Eh     change       -0.1391290E-04 Eh
   gradient norm :     0.0005812 Eh/α   predicted    -0.5645320E-05 ( -59.42%)
   displ. norm   :     0.2536468 α      lambda       -0.1302826E-04
   maximum displ.:     0.1633291 α      in ANC's #2, #4, #9, ...

........................................................................
.............................. CYCLE   58 ..............................
........................................................................
------------------------------------------------------------
  cycle        total energy    energy error   density error
------------------------------------------------------------
      1     -209.4779464937  -2.1259981E+02   2.8784920E-04
      2     -209.4778951755   5.1318199E-05   3.5581480E-04
      3     -209.4774929216   4.0225392E-04   9.6272666E-04
      4     -209.4779442790  -4.5135741E-04   7.3530715E-05
      5     -209.4779473781  -3.0991119E-06   5.2575870E-06
      6     -209.4779473812  -3.1454590E-09   3.1733359E-06
------------------------------------------------------------

 total:                                   0.957 sec
 * total energy  :  -209.4779474 Eh     change       -0.1670731E-04 Eh
   gradient norm :     0.0007821 Eh/α   predicted    -0.6703581E-05 ( -59.88%)
   displ. norm   :     0.3109342 α      lambda       -0.1535394E-04
   maximum displ.:     0.2006717 α      in ANC's #2, #4, #9, ...

........................................................................
.............................. CYCLE   59 ..............................
........................................................................
------------------------------------------------------------
  cycle        total energy    energy error   density error
------------------------------------------------------------
      1     -209.4779660063  -2.1260004E+02   3.7469920E-04
[...]
   213   6 C      215   6 C                                       1.5312443
   213   6 C      216   6 C                                       1.5352992
   199   6 C      217   1 H                                       1.0908697
   199   6 C      218   1 H                                       1.0877744
   199   6 C      219   1 H                                       1.0866513
   200   6 C      220   1 H                                       1.0910782
   200   6 C      221   1 H                                       1.0870444
   200   6 C      222   1 H                                       1.0867458
   198   6 C      223   1 H                                       1.0907218
   198   6 C      224   1 H                                       1.0865632
   198   6 C      225   1 H                                       1.0877117
   212   6 C      226   1 H                                       1.0908835
   212   6 C      227   1 H                                       1.0883703
   212   6 C      228   1 H                                       1.0869940
   210   6 C      229   1 H                                       1.0905960
   210   6 C      230   1 H                                       1.0862044
   210   6 C      231   1 H                                       1.0886951
   211   6 C      232   1 H                                       1.0906775
   211   6 C      233   1 H                                       1.0874066
   211   6 C      234   1 H                                       1.0868745
   214   6 C      235   1 H                                       1.0905198
   214   6 C      236   1 H                                       1.0885406
   214   6 C      237   1 H                                       1.0865360
   215   6 C      238   1 H                                       1.0905661
   215   6 C      239   1 H                                       1.0871710
   215   6 C      240   1 H                                       1.0874910
   216   6 C      241   1 H                                       1.0904449
   216   6 C      242   1 H                                       1.0863574
   216   6 C      243   1 H                                       1.0879877
   195   6 C      244   1 H                                       1.0895153
   195   6 C      245   1 H                                       1.0877966
   195   6 C      246   1 H                                       1.0867582
   196   6 C      247   1 H                                       1.0891829
   196   6 C      248   1 H                                       1.0859586
   196   6 C      249   1 H                                       1.0885605
   194   6 C      250   1 H                                       1.0898247
   194   6 C      251   1 H                                       1.0871765
   194   6 C      252   1 H                                       1.0869567
   206   6 C      253   1 H                                       1.0904263
   206   6 C      254   1 H                                       1.0880418
   206   6 C      255   1 H                                       1.0859664
   208   6 C      256   1 H                                       1.0904650
   208   6 C      257   1 H                                       1.0874705
   208   6 C      258   1 H                                       1.0873671
   207   6 C      259   1 H                                       1.0905837
   207   6 C      260   1 H                                       1.0860047
   207   6 C      261   1 H                                       1.0884540
   202   6 C      262   1 H                                       1.0903527
   202   6 C      263   1 H                                       1.0881925
   202   6 C      264   1 H                                       1.0866017
   204   6 C      265   1 H                                       1.0902931
   204   6 C      266   1 H                                       1.0870433
   204   6 C      267   1 H                                       1.0871855
   203   6 C      268   1 H                                       1.0903760
   203   6 C      269   1 H                                       1.0867060
Note: The following floating-point exceptions are signalling: IEEE_UNDERFLOW_FLAG
normal termination of xtb
   203   6 C      270   1 H                                       1.0881794
   156   6 C      271   1 H                                       1.0817553
   158   6 C      272   1 H                                       1.0791980
   146   6 C      273   1 H                                       1.0800424
   142   6 C      274   1 H                                       1.0729915
   162   6 C      275   1 H                                       1.0805654
   160   6 C      276   1 H                                       1.0743079
   183   6 C      277   1 H                                       1.0721160 (min)
   185   6 C      278   1 H                                       1.0806492
   179   6 C      279   1 H                                       1.0815535
   181   6 C      280   1 H                                       1.0796759
   170   6 C      281   1 H                                       1.0786417
   166   6 C      282   1 H                                       1.0763831

 * 4 distinct bonds (by element types)

   Z      Z             #   av. dist./Å        max./Å        min./Å
   1 H    6 C         132     1.0864482     1.0910782     1.0721160
   6 C    6 C         113     1.4427724     1.5358890     1.3759123
   5 B    8 O           4     1.4659936     1.4705795     1.4624361
   6 C    8 O          16     1.3010396     1.3707367     1.2346578


optimized geometry written to: xtbopt.mol


           -------------------------------------------------
          | TOTAL ENERGY             -418.849952154651 Eh   |
          | GRADIENT NORM               0.000679555494 Eh/α |
           -------------------------------------------------

------------------------------------------------------------------------
 * finished run on 2025/03/11 at 15:25:23.830     
------------------------------------------------------------------------
 total:
 * wall-time:     0 d,  0 h, 31 min, 30.104 sec
 *  cpu-time:     0 d,  1 h, 58 min, 17.442 sec
 * ratio c/w:     3.755 speedup
 SCF:
 * wall-time:     0 d,  0 h,  0 min, 10.525 sec
 *  cpu-time:     0 d,  0 h,  0 min, 40.281 sec
 * ratio c/w:     3.827 speedup
 ANC optimizer:
 * wall-time:     0 d,  0 h, 31 min, 19.555 sec
 *  cpu-time:     0 d,  1 h, 57 min, 37.150 sec
 * ratio c/w:     3.755 speedup

      -----------------------------------------------------------      
     |                   =====================                   |     
     |                           x T B                           |     
     |                   =====================                   |     
     |                         S. Grimme                         |     
     |          Mulliken Center for Theoretical Chemistry        |     
     |                    University of Bonn                     |     
      -----------------------------------------------------------      

   * xtb version 6.7.1 (edcfbbe) compiled by 'runner@Mac-1732539442253.local' on 2024-11-25

   xtb is free software: you can redistribute it and/or modify it under
   the terms of the GNU Lesser General Public License as published by
   the Free Software Foundation, either version 3 of the License, or
   (at your option) any later version.
   
   xtb is distributed in the hope that it will be useful,
   but WITHOUT ANY WARRANTY; without even the implied warranty of
   MERCHANTABILITY or FITNESS FOR A PARTICULAR PURPOSE.  See the
   GNU Lesser General Public License for more details.
   
   Cite this work as:
   * C. Bannwarth, E. Caldeweyher, S. Ehlert, A. Hansen, P. Pracht,
     J. Seibert, S. Spicher, S. Grimme, WIREs Comput. Mol. Sci., 2020, 11,
     e01493. DOI: 10.1002/wcms.1493
   
   for GFN2-xTB:
   * C. Bannwarth, S. Ehlert and S. Grimme., J. Chem. Theory Comput., 2019,
     15, 1652-1671. DOI: 10.1021/acs.jctc.8b01176
   for GFN1-xTB:
   * S. Grimme, C. Bannwarth, P. Shushkov, J. Chem. Theory Comput., 2017,
     13, 1989-2009. DOI: 10.1021/acs.jctc.7b00118
   for GFN0-xTB:
   * P. Pracht, E. Caldeweyher, S. Ehlert, S. Grimme, ChemRxiv, 2019, preprint.
     DOI: 10.26434/chemrxiv.8326202.v1
   for GFN-FF:
   * S. Spicher and S. Grimme, Angew. Chem. Int. Ed., 2020, 59, 15665-15673.
     DOI: 10.1002/anie.202004239
   
   for ALPB and GBSA implicit solvation:
   * S. Ehlert, M. Stahn, S. Spicher, S. Grimme, J. Chem. Theory Comput.,
     2021, 17, 4250-4261. DOI: 10.1021/acs.jctc.1c00471
   
   for ddCOSMO and CPCM-X implicit solvation:
   * M. Stahn, S. Ehlert, S. Grimme, J. Phys. Chem. A,
     2023, XX, XXXX-XXXX. DOI: 10.1021/acs.jpca.3c04382
   
   for DFT-D4:
   * E. Caldeweyher, C. Bannwarth and S. Grimme, J. Chem. Phys., 2017,
     147, 034112. DOI: 10.1063/1.4993215
   * E. Caldeweyher, S. Ehlert, A. Hansen, H. Neugebauer, S. Spicher,
     C. Bannwarth and S. Grimme, J. Chem. Phys., 2019, 150, 154122.
     DOI: 10.1063/1.5090222
   * E. Caldeweyher, J.-M. Mewes, S. Ehlert and S. Grimme, Phys. Chem. Chem. Phys.
     2020, 22, 8499-8512. DOI: 10.1039/D0CP00502A
   
   for sTDA-xTB:
   * S. Grimme and C. Bannwarth, J. Chem. Phys., 2016, 145, 054103.
     DOI: 10.1063/1.4959605
   
   in the mass-spec context:
   * V. Asgeirsson, C. Bauer and S. Grimme, Chem. Sci., 2017, 8, 4879.
     DOI: 10.1039/c7sc00601b
   * J. Koopman and S. Grimme, ACS Omega 2019, 4, 12, 15120-15133.
     DOI: 10.1021/acsomega.9b02011
   
   for metadynamics refer to:
   * S. Grimme, J. Chem. Theory Comput., 2019, 155, 2847-2862
     DOI: 10.1021/acs.jctc.9b00143
   
   for SPH calculations refer to:
   * S. Spicher and S. Grimme, J. Chem. Theory Comput., 2021, 17, 1701-1714
     DOI: 10.1021/acs.jctc.0c01306
   
   for ONIOM refer to:
   * C. Plett, A. Katbashev, S. Ehlert, S. Grimme, M. Bursch,
     Phys. Chem. Chem. Phys., 2023, 25, 17860-17868. DOI: 10.1039/D3CP02178E
   
   for DIPRO refer to:
   * J. Kohn, N. Gildemeister, S. Grimme, D. Fazzi, A. Hansen,
     J. Chem. Phys., 2023, just accepted.
   
   for PTB refer to:
   * S. Grimme, M. Mueller, A. Hansen, J. Chem. Phys., 2023, 158, 124111.
     DOI: 10.1063/5.0137838
   
   with help from (in alphabetical order)
   P. Atkinson, C. Bannwarth, F. Bohle, G. Brandenburg, E. Caldeweyher
   M. Checinski, S. Dohm, S. Ehlert, S. Ehrlich, I. Gerasimov, C. Hölzer
   A. Katbashev, J. Kohn, J. Koopman, C. Lavigne, S. Lehtola, F. März, M. Müller,
   F. Musil, H. Neugebauer, J. Pisarek, C. Plett, P. Pracht, F. Pultar,
   J. Seibert, P. Shushkov, S. Spicher, M. Stahn, M. Steiner, T. Strunk,
   J. Stückrath, T. Rose, and J. Unsleber
   
 * started run on 2025/03/11 at 15:25:24.032     
   ID    Z sym.   atoms
    1    6 C      1-21, 25-44, 47, 52-75, 142-162, 166-185, 188, 193-216
    2    8 O      22, 23, 45, 46, 48-51, 163, 164, 186, 187, 189-192
    3    5 B      24, 165
    4    1 H      76-141, 217-282

           -------------------------------------------------
          |                Calculation Setup                |
           -------------------------------------------------

          program call               : xtb opt_dimer.mol --dipro 0.3 --chrg -4 --uhf 2 --spinpol --tblite
          coordinate file            : opt_dimer.mol
          omp threads                :                     8


molecular fragmentation (1/2 indicates fragments):
111111111111111111111111111111111111111111111111111111111111111111111111
111111111111111111111111111111111111111111111111111111111111111111111222
222222222222222222222222222222222222222222222222222222222222222222222222
222222222222222222222222222222222222222222222222222222222222222222
# atoms in fragment 1/2:   141   141
 fragment masses (1/2) :      998.04      998.04
CMA distance (Bohr)    :  34.683
constraining FC (au)   :  0.0500
########################################################################
[WARNING] Please study the warnings concerning your input carefully
-1- prog_main: Charge in sdf/mol input was overwritten
########################################################################
Wavefunction read from restart file
           -------------------------------------------------
          |                    D I P R O                    |
           -------------------------------------------------
Calculation for dimer 
--------------------- 
  
charge of dimer :  -4.
unpaired e- of dimer :  2
repulsion energy          6.2379205214567E+00 Eh
dispersion energy         7.5796085007313E-03 Eh
number of electrons       7.6600000000000E+02 e
integral cutoff           1.9311100799991E+01 bohr

------------------------------------------------------------
  cycle        total energy    energy error   density error
------------------------------------------------------------
      1     -417.1040954473  -4.2334960E+02   1.4816767E-01
      2     -418.5733279831  -1.4692325E+00   7.0695401E-02
      3     -418.0237103891   5.4961759E-01   4.1893271E-02
      4     -414.2550243512   3.7686860E+00   4.9201617E-02
      5     -417.5996881245  -3.3446638E+00   3.0208568E-02
      6     -418.6762928652  -1.0766047E+00   1.8583391E-02
      7     -418.7362895083  -5.9996643E-02   1.1541292E-02
      8     -418.7762048387  -3.9915330E-02   1.0707947E-02
      9     -418.8363603593  -6.0155521E-02   5.8273660E-03
     10     -418.8087277229   2.7632636E-02   7.5300280E-03
     11     -418.8010214786   7.7062443E-03   5.5449367E-03
     12     -418.7682360420   3.2785437E-02   7.9914480E-03
     13     -418.8064253554  -3.8189313E-02   5.8241374E-03
     14     -418.8263289994  -1.9903644E-02   3.8972911E-03
     15     -418.8299037800  -3.5747806E-03   3.7207235E-03
     16     -418.8479039557  -1.8000176E-02   8.5511605E-04
     17     -418.8442413981   3.6625576E-03   1.7580119E-03
     18     -418.8489085018  -4.6671037E-03   1.5756220E-04
     19     -418.8489252130  -1.6711217E-05   1.0347057E-04
     20     -418.8489156604   9.5526932E-06   1.1726801E-04
     21     -418.8489368451  -2.1184757E-05   2.4170598E-05
     22     -418.8489316892   5.1559276E-06   6.3283193E-05
     23     -418.8489372848  -5.5956144E-06   1.1703835E-05
     24     -418.8489374193  -1.3445850E-07   4.6150134E-06
------------------------------------------------------------

electronic energy        -4.2509443754921E+02 Eh
total energy             -4.1884893741926E+02 Eh

 total:                                   6.663 sec
 - repulsion                              0.000 sec (  0%)
 - dispersion                             0.018 sec (  0%)
 - coulomb                                0.007 sec (  0%)
 - hamiltonian                            0.017 sec (  0%)
 - scc                                    6.620 sec ( 99%)

Found 2 fragments!
Fragment 1:  1-141
Fragment 2:  142-282

[Info] Fragment spin read from .UHFfrag
[Info] Fragment charge read from .CHRGfrag
Calculation for fragment 1
 ------------------------------
   
charge of fragment :  -2.
unpaired e- of fragment :  1
------------------------------------------------------------
  cycle        total energy    energy error   density error
------------------------------------------------------------
      1     -208.6078486901  -2.1173098E+02   1.5005375E-01
      2     -209.3472595520  -7.3941086E-01   7.1981657E-02
      3     -209.2861988960   6.1060656E-02   3.9902202E-02
      4     -209.3549022088  -6.8703313E-02   2.3501629E-02
      5     -209.4225686284  -6.7666420E-02   1.3788277E-02
      6     -209.4366901796  -1.4121551E-02   1.0326457E-02
      7     -209.4698195551  -3.3129375E-02   4.7640341E-03
      8     -209.4672008027   2.6187524E-03   4.9163493E-03
      9     -209.4728952016  -5.6943990E-03   3.1723108E-03
     10     -209.4768724531  -3.9772515E-03   1.2030478E-03
     11     -209.4774846110  -6.1215791E-04   1.6319506E-04
     12     -209.4774668882   1.7722813E-05   2.2331577E-04
     13     -209.4774867997  -1.9911444E-05   4.6582386E-05
     14     -209.4774869842  -1.8452107E-07   3.4481898E-05
     15     -209.4774873007  -3.1653542E-07   1.9278510E-05
------------------------------------------------------------

 total:                                   1.277 sec
Calculation for fragment 2
 ------------------------------
   
charge of fragment :  -2.
unpaired e- of fragment :  1
------------------------------------------------------------
  cycle        total energy    energy error   density error
------------------------------------------------------------
      1     -208.6025349931  -2.1172490E+02   1.4622149E-01
      2     -209.3264871371  -7.2395214E-01   6.9705430E-02
      3     -208.9273084345   3.9917870E-01   4.5470911E-02
      4     -208.7436371049   1.8367133E-01   3.7423881E-02
      5     -209.3865694620  -6.4293236E-01   2.0092592E-02
      6     -209.4637970425  -7.7227580E-02   9.5573744E-03
      7     -209.4473368396   1.6460203E-02   9.4378480E-03
      8     -209.4637194030  -1.6382563E-02   6.2298832E-03
      9     -209.4697815099  -6.0621070E-03   4.1447032E-03
     10     -209.4765903747  -6.8088647E-03   1.3467246E-03
     11     -209.4772146578  -6.2428319E-04   7.0300951E-04
     12     -209.4774262432  -2.1158538E-04   1.4530707E-04
     13     -209.4774239121   2.3311340E-06   1.3674631E-04
     14     -209.4774307394  -6.8273004E-06   5.8477320E-05
     15     -209.4774320963  -1.3568686E-06   2.1595384E-05
     16     -209.4774322627  -1.6648238E-07   6.2785955E-06
------------------------------------------------------------

 total:                                   1.273 sec
   
   ::::::::::::::::::::::::::::::::::::::::::::::
   ::     D I P R O      C O U P L I N G S     ::
   ::::::::::::::::::::::::::::::::::::::::::::::
   
energy threshhold for near-degenerate orbitals near HOMO and LUMO considered for DIPRO:  0.300 eV
no. of orbitals within energy window of frag 1         2
no. of orbitals within energy window of frag 2         2
   
  Fragment 1 SOMO   Fragment 2 SOMO 
--------------------------------------
E_mon(orb) frag1 frag2              -2.839    -2.841 eV
J(AB):                0.000 eV
S(AB):            -0.00000001 Eh
|J(AB,eff)|:            0.000 eV
   
  Fragment 1 SOMO   Fragment 2 LUMO 
--------------------------------------
E_mon(orb) frag1 frag2              -2.839    -2.813 eV
J(AB):                0.000 eV
S(AB):            -0.00000001 Eh
|J(AB,eff)|:            0.000 eV
   
  Fragment 1 LUMO   Fragment 2 SOMO 
--------------------------------------
E_mon(orb) frag1 frag2              -2.813    -2.841 eV
J(AB):                0.000 eV
S(AB):            -0.00000001 Eh
|J(AB,eff)|:            0.000 eV
   
  Fragment 1 LUMO   Fragment 2 LUMO 
--------------------------------------
E_mon(orb) frag1 frag2              -2.813    -2.813 eV
J(AB):                0.000 eV
S(AB):            -0.00000001 Eh
|J(AB,eff)|:            0.000 eV
   
..............................................................................
:  total |J(AB,eff)| for hole transport (occ. MOs) :               0.000 eV  :
:  total |J(AB,eff)| for charge transport (unocc. MOs) :           0.000 eV  :
:  total |J(AB,eff)| for charge transfer (CT) :                    0.000 eV  :
..............................................................................
  
 Please remember, DIPRO is not available for restart!
   
normal termination of dipro
----------------------------------------------------------
 * finished run on 2025/03/11 at 15:25:33.303     
----------------------------------------------------------
 dipro:
 * wall-time:     0 d,  0 h,  0 min,  9.245 sec
 *  cpu-time:     0 d,  0 h,  0 min, 39.367 sec
 * ratio c/w:     4.258 speedup
Reorganization energy (electron): 0.10023002764902977 eV
Reorganization energy (hole): 0.09605153875400986 eV
Electron Transfer integral J: 0.0 eV
Hole Transfer integral J: 0.0 eV
