150
 energy: -332.095457511139 gnorm: 0.361545764184 xtb: 6.7.1 (edcfbbe)
C           -1.19710000000000        3.57870000000000       -0.74150000000000
C            2.11230000000000       -1.90410000000000        2.99370000000000
C           -4.41670000000000       -0.22390000000000       -1.24000000000000
C           -3.23840000000000       -0.80340000000000       -0.76770000000000
C           -2.30600000000000        0.04590000000000       -0.07420000000000
C           -2.38110000000000        1.44410000000000       -0.32220000000000
C           -3.56540000000000        1.96350000000000       -0.84120000000000
C           -4.60120000000000        1.14040000000000       -1.20400000000000
C           -1.27060000000000       -0.44590000000000        0.79070000000000
C           -0.15820000000000        0.40140000000000        1.04480000000000
C           -0.16860000000000        1.75480000000000        0.60990000000000
N           -1.27100000000000        2.25850000000000       -0.08280000000000
C           -1.30030000000000       -1.74230000000000        1.41350000000000
C           -0.07820000000000       -2.27960000000000        1.90240000000000
N            1.01720000000000       -1.43790000000000        2.12570000000000
C            0.98020000000000       -0.09820000000000        1.73110000000000
C            2.04490000000000        0.76560000000000        1.98060000000000
C            2.00990000000000        2.08170000000000        1.59040000000000
C            0.92160000000000        2.56500000000000        0.91010000000000
C           -2.50400000000000       -2.50550000000000        1.62150000000000
C           -2.37560000000000       -3.85910000000000        1.93640000000000
C           -1.14730000000000       -4.41990000000000        2.20070000000000
C           -0.02510000000000       -3.63440000000000        2.22540000000000
O           -3.73820000000000       -1.86510000000000        1.58160000000000
O           -2.91220000000000       -2.13770000000000       -0.98680000000000
H           -5.21760000000000       -0.83610000000000       -1.61780000000000
H           -3.72230000000000        3.02680000000000       -0.88580000000000
H           -3.24040000000000       -4.49840000000000        1.98620000000000
H            0.91120000000000       -4.10230000000000        2.47350000000000
H            2.92410000000000        0.42630000000000        2.49840000000000
H            0.93060000000000        3.60280000000000        0.62920000000000
C            3.30840000000000       -2.46480000000000        2.23910000000000
C            4.42450000000000       -2.90730000000000        3.17640000000000
C           -1.67020000000000        4.67960000000000        0.18120000000000
C           -1.67000000000000        6.07030000000000       -0.43810000000000
C           -4.86030000000000       -2.68540000000000        1.80260000000000
C           -3.67620000000000       -2.78530000000000       -1.97520000000000
S           -6.28490000000000        1.90650000000000       -1.61950000000000
F           -5.54670000000000        2.78890000000000       -2.71140000000000
F           -6.49340000000000        0.74370000000000       -2.67580000000000
F           -5.95920000000000        3.00340000000000       -0.51980000000000
F           -7.69600000000000        2.54550000000000       -1.93870000000000
F           -6.87400000000000        0.97790000000000       -0.47350000000000
S           -0.98680000000000       -6.26950000000000        2.59060000000000
F           -1.89180000000000       -6.55480000000000        1.32020000000000
F           -2.27990000000000       -6.11540000000000        3.48730000000000
F           -0.85510000000000       -7.80510000000000        2.94030000000000
F            0.31130000000000       -6.29060000000000        1.67920000000000
F           -0.10200000000000       -5.84880000000000        3.83320000000000
S            3.44330000000000        3.25360000000000        2.01720000000000
F            4.43060000000000        2.17970000000000        1.40090000000000
F            3.25960000000000        3.91770000000000        0.59120000000000
F            4.61260000000000        4.23530000000000        2.41850000000000
F            2.35430000000000        4.23620000000000        2.60420000000000
F            3.52300000000000        2.52230000000000        3.41350000000000
H            1.72010000000000       -2.63580000000000        3.70360000000000
H            2.42010000000000       -1.07650000000000        3.63320000000000
H            3.67910000000000       -1.70840000000000        1.53610000000000
H            2.98210000000000       -3.30170000000000        1.60960000000000
H            4.78180000000000       -2.07110000000000        3.78200000000000
H            5.27880000000000       -3.31960000000000        2.63680000000000
H            4.06910000000000       -3.66630000000000        3.87690000000000
H           -3.20670000000000       -3.74770000000000       -2.18580000000000
H           -3.68600000000000       -2.18260000000000       -2.88540000000000
H           -4.69010000000000       -2.95250000000000       -1.60970000000000
H           -5.74730000000000       -2.05080000000000        1.84850000000000
H           -4.76160000000000       -3.20360000000000        2.75630000000000
H           -4.96490000000000       -3.39790000000000        0.98310000000000
H           -1.79620000000000        3.55310000000000       -1.65510000000000
H           -0.17420000000000        3.75770000000000       -1.08080000000000
H           -1.05710000000000        4.67360000000000        1.09150000000000
H           -2.67720000000000        4.43240000000000        0.53990000000000
H           -0.66680000000000        6.36880000000000       -0.74440000000000
H           -2.03110000000000        6.81520000000000        0.27780000000000
H           -2.31900000000000        6.11600000000000       -1.31350000000000
C            1.10770000000000        2.94960000000000        4.59380000000000
C           -2.03550000000000       -3.43930000000000        6.61910000000000
C           -3.58640000000000        3.50510000000000        3.00530000000000
C           -3.46720000000000        2.15040000000000        3.31630000000000
C           -2.41660000000000        1.75800000000000        4.21810000000000
C           -1.33490000000000        2.65760000000000        4.41570000000000
C           -1.50470000000000        3.99310000000000        4.05330000000000
C           -2.63810000000000        4.41900000000000        3.40910000000000
C           -2.37660000000000        0.48890000000000        4.89230000000000
C           -1.12070000000000        0.00700000000000        5.34580000000000
C            0.02250000000000        0.84830000000000        5.30790000000000
N           -0.10700000000000        2.17430000000000        4.88380000000000
C           -3.53760000000000       -0.31880000000000        5.13220000000000
C           -3.35840000000000       -1.69200000000000        5.45310000000000
N           -2.11420000000000       -2.15410000000000        5.89380000000000
C           -0.99350000000000       -1.32420000000000        5.82560000000000
C            0.26940000000000       -1.79170000000000        6.17270000000000
C            1.37970000000000       -0.99240000000000        6.07670000000000
C            1.25460000000000        0.31740000000000        5.68370000000000
C           -4.87650000000000        0.20620000000000        5.13890000000000
C           -5.93030000000000       -0.70000000000000        5.03150000000000
C           -5.70820000000000       -2.05790000000000        5.07640000000000
C           -4.45720000000000       -2.54280000000000        5.35920000000000
O           -5.06670000000000        1.57390000000000        5.30310000000000
O           -4.26970000000000        1.16820000000000        2.74440000000000
H           -4.42340000000000        3.86580000000000        2.43270000000000
H           -0.76090000000000        4.72720000000000        4.30870000000000
H           -6.94080000000000       -0.35560000000000        4.89490000000000
H           -4.33230000000000       -3.60790000000000        5.44180000000000
H            0.41260000000000       -2.80800000000000        6.49330000000000
H            2.14890000000000        0.91420000000000        5.65510000000000
C           -1.65030000000000       -4.58470000000000        5.70220000000000
C           -1.56550000000000       -5.93390000000000        6.40030000000000
C            1.63320000000000        3.78970000000000        5.74850000000000
C            2.93260000000000        4.50360000000000        5.39210000000000
C           -6.38870000000000        1.98050000000000        5.56000000000000
C           -5.34240000000000        1.63290000000000        1.96200000000000
S           -2.84940000000000        6.26890000000000        3.03580000000000
F           -2.14750000000000        6.58130000000000        4.42280000000000
F           -1.42850000000000        6.20050000000000        2.34740000000000
F           -4.25720000000000        6.19840000000000        3.76110000000000
F           -3.00620000000000        7.80130000000000        2.68170000000000
F           -3.52940000000000        5.83980000000000        1.67710000000000
S           -7.11550000000000       -3.28110000000000        4.73800000000000
F           -6.02540000000000       -4.21610000000000        4.06330000000000
F           -7.29670000000000       -2.54140000000000        3.34560000000000
F           -8.28190000000000       -4.30550000000000        4.43580000000000
F           -6.80070000000000       -3.93420000000000        6.14940000000000
F           -8.10520000000000       -2.24780000000000        5.42050000000000
S            3.09120000000000       -1.73060000000000        6.43210000000000
F            3.59830000000000       -0.95310000000000        5.15310000000000
F            3.39130000000000       -0.45920000000000        7.32790000000000
F            4.51910000000000       -2.35450000000000        6.68310000000000
F            2.45450000000000       -2.47570000000000        7.67620000000000
F            2.66920000000000       -2.93530000000000        5.49570000000000
H           -2.99730000000000       -3.63230000000000        7.10120000000000
H           -1.32760000000000       -3.33940000000000        7.44580000000000
H           -0.69520000000000       -4.35620000000000        5.21220000000000
H           -2.36770000000000       -4.63630000000000        4.87350000000000
H           -0.82110000000000       -5.92170000000000        7.19790000000000
H           -1.28690000000000       -6.72360000000000        5.69670000000000
H           -2.52250000000000       -6.21060000000000        6.84530000000000
H           -5.83420000000000        0.77280000000000        1.50420000000000
H           -4.97510000000000        2.27960000000000        1.16780000000000
H           -6.05360000000000        2.17070000000000        2.58850000000000
H           -6.37570000000000        3.05520000000000        5.75110000000000
H           -6.76620000000000        1.46060000000000        6.44200000000000
H           -7.01790000000000        1.78010000000000        4.69230000000000
H            0.92180000000000        3.57000000000000        3.71530000000000
H            1.87230000000000        2.25300000000000        4.25140000000000
H            1.77980000000000        3.14860000000000        6.62620000000000
H            0.86790000000000        4.51570000000000        6.04830000000000
H            3.71450000000000        3.78650000000000        5.13040000000000
H            3.30510000000000        5.12250000000000        6.20980000000000
H            2.79970000000000        5.14480000000000        4.51750000000000
150
 energy: -332.196976189560 gnorm: 0.245983744669 xtb: 6.7.1 (edcfbbe)
C           -1.19528326504508        3.56504845947760       -0.74497029798669
C            2.10146071343284       -1.90278651756757        2.97923824039725
C           -4.41586180557017       -0.22826521167947       -1.24159952773961
C           -3.24001237277430       -0.79790219002646       -0.75995708350185
C           -2.30185046309523        0.04155939063501       -0.07878118771651
C           -2.37425311855037        1.44005615976181       -0.32628289448718
C           -3.55782109115991        1.97042059143568       -0.84044650689423
C           -4.59056168295477        1.13727522913081       -1.20408590137880
C           -1.27544654656215       -0.44868090875554        0.78931568948269
C           -0.16095504274027        0.40103547446695        1.04463321753779
C           -0.17296530753006        1.75418167183866        0.60618173437468
N           -1.26920002631079        2.25182247649746       -0.08700976768313
C           -1.30532285415993       -1.73793098678850        1.41874450086860
C           -0.08252242235740       -2.27107214886576        1.91062958573612
N            1.01238522881150       -1.43576468648772        2.11947008248373
C            0.97604597795176       -0.10127163641789        1.73357518000386
C            2.04904101118172        0.75791918767735        1.98362106072664
C            2.00408608044591        2.07405087589057        1.58294131765511
C            0.91602183705281        2.57234248624715        0.90570687939035
C           -2.49746735919588       -2.50599578168317        1.61932403997467
C           -2.37976674883011       -3.85801620575765        1.93805502160716
C           -1.14470113025943       -4.41035990059408        2.19231653895197
C           -0.01519816024994       -3.62936649981015        2.22823515972738
O           -3.71305217634967       -1.87134871837004        1.57183441196527
O           -2.91371976982258       -2.11617737930247       -0.98159888020556
H           -5.21538968007220       -0.83896646758693       -1.62111677151353
H           -3.71306929588010        3.03217516081195       -0.89360151162313
H           -3.24266483352569       -4.49756836192050        1.98880980374466
H            0.91806263119860       -4.09856340765058        2.47747841711703
H            2.92957009712178        0.41979700693843        2.49651114254860
H            0.92734709434080        3.60865124665283        0.62743127709440
C            3.30707245487607       -2.46559849212057        2.22803946745574
C            4.42297073803639       -2.90881014562346        3.17140204286608
C           -1.66794490169137        4.67189943919186        0.17775026568670
C           -1.66589810793522        6.06411976854473       -0.44780898325528
C           -4.84793127428557       -2.68045722514203        1.79409156489232
C           -3.67528566071433       -2.77923963586073       -1.96875161443351
S           -6.25705005644514        1.89343386688966       -1.61836964453956
F           -5.54665780129796        2.80945716488595       -2.73263145292770
F           -6.50861927528344        0.73114249998770       -2.69844370128262
F           -5.97984984205930        3.03192208564360       -0.51411082984108
F           -7.67514830007016        2.53405550132104       -1.94128134276427
F           -6.90289374104727        0.97098058539374       -0.46571884684770
S           -0.98839114315133       -6.24244455269978        2.57327476090866
F           -1.90380583474829       -6.57279534439088        1.29551715786729
F           -2.30079299415238       -6.14043725339834        3.48863897501909
F           -0.85543405962092       -7.78638849788519        2.92472620703870
F            0.33282450091955       -6.30505559249514        1.66071993893565
F           -0.07816230266924       -5.86633015023291        3.84038901360211
S            3.42938264709537        3.23146068657468        1.99454432453741
F            4.46063364514237        2.16833873569137        1.38074167612854
F            3.27321553352007        3.93137304355763        0.55985552329110
F            4.60450748336490        4.21879546510470        2.39715167276033
F            2.36031664040491        4.26644366634177        2.58862082447394
F            3.55935581493996        2.51125409871823        3.41858777219914
H            1.70702676292185       -2.64176730135477        3.67613762006223
H            2.41042458228346       -1.07220727534329        3.60739107459103
H            3.68348921224924       -1.70495567465397        1.53791444868490
H            2.98288276611066       -3.30807321402952        1.61103001067875
H            4.78559217164971       -2.07507239267718        3.76750584099974
H            5.27111051282328       -3.31843351070962        2.62701910903436
H            4.06928211282934       -3.66896071288589        3.86514480528724
H           -3.19847269883654       -3.73940020197757       -2.17222520115266
H           -3.69352659067550       -2.18663268333735       -2.88753047946935
H           -4.69365050519827       -2.95674387960449       -1.61602151217999
H           -5.72601379032691       -2.03773479899125        1.83609997550217
H           -4.76021039345341       -3.20071555361654        2.74602911349396
H           -4.96802041447057       -3.40151510954657        0.98290543051762
H           -1.80267363794015        3.54153349614186       -1.65291032359249
H           -0.16963200298834        3.74814830399031       -1.07446540991481
H           -1.04742732217462        4.66613350894718        1.07460386848088
H           -2.67238641298883        4.42425653311406        0.52015777784429
H           -0.66351444959004        6.36188754171793       -0.74774197827119
H           -2.02538648440829        6.80583730161400        0.26379580941815
H           -2.31753442952617        6.10827559975281       -1.31785381858219
C            1.09015734561171        2.94459341818279        4.60395765896121
C           -2.03835130003589       -3.42714088396767        6.61952535137613
C           -3.58925428102146        3.50334824138498        3.00344824180590
C           -3.46458262420464        2.15298318276962        3.32341186523413
C           -2.41720274735957        1.75273034430414        4.21187469597274
C           -1.33237295632397        2.64793616930378        4.40685246331052
C           -1.49443104402373        3.99055768378861        4.05750047469605
C           -2.63808535638835        4.41013083207088        3.41966992994804
C           -2.38192359099085        0.49030062295957        4.89021760638056
C           -1.12337176094346        0.00609645371764        5.34359700647693
C            0.01901308363702        0.84927814243959        5.30118217089705
N           -0.11536197893182        2.16976893881355        4.88847340450297
C           -3.53813368809966       -0.31425552001693        5.13769434438962
C           -3.35619229974344       -1.68692658921358        5.46048628385468
N           -2.11663293025375       -2.14831415499583        5.89668174889973
C           -0.99898976044007       -1.32585507002933        5.82444704961724
C            0.26457872058933       -1.80073969809580        6.17286545023165
C            1.36860353872955       -0.98636444038001        6.08093553292634
C            1.25697156952951        0.32600513547163        5.68175238820189
C           -4.87313532364559        0.20050907873711        5.13286144386920
C           -5.93238024543846       -0.69601018317143        5.03252900062795
C           -5.69988065993018       -2.05244653279239        5.07890461691716
C           -4.44909429511923       -2.54809015217586        5.36269407646853
O           -5.06093570290034        1.55299013091284        5.29960653669542
O           -4.25772622337392        1.18148919567029        2.76619878380715
H           -4.42574108552614        3.86437479507091        2.43257037288151
H           -0.75148828767229        4.72450806786026        4.30892660276117
H           -6.94217665516122       -0.35320839373056        4.89750793734375
H           -4.32708982561190       -3.61154804041996        5.45082281252645
H            0.41096327021464       -2.81434374482505        6.49350229944913
H            2.15052053596161        0.92117843570442        5.65795924500070
C           -1.65061125550211       -4.57741122915115        5.70318420675533
C           -1.56798561351706       -5.92810696004469        6.40680381888179
C            1.62597896582522        3.78965526333629        5.75844124984720
C            2.92830961581786        4.50379483521191        5.39736842102517
C           -6.38318587461881        1.97483557780659        5.55773234106525
C           -5.33526805924796        1.63181239263808        1.97520509973281
S           -2.85130170035918        6.24265496611793        3.05468678651816
F           -2.14631182187617        6.60004894684507        4.45251898917516
F           -1.40662581633277        6.22998881570683        2.36041942739664
F           -4.28310356874869        6.21023968444602        3.78071754760342
F           -3.00959200656626        7.78375902927589        2.70056532331260
F           -3.55827042436375        5.86162615750312        1.66987738308999
S           -7.09514406357759       -3.26128477851493        4.74882218931774
F           -6.03140411808571       -4.24843294694179        4.05213318323268
F           -7.32036660716500       -2.54206259472005        3.32612267066672
F           -8.26852671672165       -4.28945398647679        4.44643064688537
F           -6.80526566216896       -3.95470896555146        6.17064967776506
F           -8.13240312877149       -2.24163990889833        5.43197699493014
S            3.06257278456876       -1.71396942577843        6.44146725298023
F            3.62665996787095       -0.93288306357320        5.15994672369641
F            3.40659574968167       -0.44190310708376        7.35571589896640
F            4.49776260235017       -2.34186676429097        6.69305700652105
F            2.45514579880154       -2.49038303959694        7.70715869867938
F            2.67653586344628       -2.95960799981382        5.50497562179964
H           -3.00372692838939       -3.62493694950340        7.09258014710277
H           -1.32227903991621       -3.32994818399685        7.43998835212493
H           -0.69461192113033       -4.34997027129682        5.22832558731590
H           -2.37371631511817       -4.62970795117813        4.88935529830775
H           -0.82090749104207       -5.91585222457338        7.19867047441589
H           -1.29035623791952       -6.71122244722127        5.70214590599039
H           -2.52510342186263       -6.20467474191234        6.84557951191854
H           -5.81813715558585        0.76586398752927        1.52484333477012
H           -4.97616217548753        2.27584463013771        1.17678909639938
H           -6.05805380031062        2.17358052479786        2.58703698305652
H           -6.35923737093703        3.04919110338461        5.74784376726609
H           -6.77426722170601        1.46151958842047        6.44008726949616
H           -7.02589563075730        1.78305407471880        4.69583331408733
H            0.89251448155125        3.57101950893931        3.73682048704963
H            1.85174018988043        2.24558726006379        4.27370153545467
H            1.78480397341128        3.14628700436627        6.62818583130765
H            0.86771736729620        4.52189792951052        6.04791181639087
H            3.70993264878319        3.79052626762269        5.14576241167130
H            3.29369850152087        5.11837394825069        6.21686314683826
H            2.79437052588742        5.14895247539492        4.53191726929842
150
 energy: -332.274850761115 gnorm: 0.082015266999 xtb: 6.7.1 (edcfbbe)
C           -1.19294311166736        3.55187437736606       -0.74818670627011
C            2.09217295197356       -1.90066983509053        2.97076476535745
C           -4.41815309534739       -0.23287954751579       -1.24418402940144
C           -3.24042704166169       -0.79479232625073       -0.75716710622605
C           -2.29923573351567        0.03765235537490       -0.08173842887975
C           -2.36819057510019        1.43745941977152       -0.32975584607984
C           -3.55142442303484        1.98008796823852       -0.83919016239936
C           -4.57634996760824        1.13290720333235       -1.20103206607480
C           -1.28033305059508       -0.45116487124692        0.78845716053968
C           -0.16239332816508        0.40151682475991        1.04496675651812
C           -0.17769382225989        1.75364814905287        0.60212236754602
N           -1.26676975790172        2.24505412430666       -0.09199048320212
C           -1.30946050330815       -1.73526182056767        1.42255261832839
C           -0.08469955204806       -2.26357491803708        1.91674653134178
N            1.00805369968068       -1.43371432415142        2.11553434837659
C            0.97252120687119       -0.10553245932651        1.73528963654255
C            2.05431149701554        0.75033056894608        1.98681442946934
C            1.99142319148518        2.06257305334361        1.57644546896439
C            0.91072143764403        2.58087970050361        0.90153371038595
C           -2.49452293031432       -2.50579239454441        1.61898058213147
C           -2.38520328756507       -3.85953528694638        1.94047403574861
C           -1.14241279129775       -4.39523085879631        2.18473935422548
C           -0.00365825218900       -3.62541999359017        2.23217045966770
O           -3.68793261157579       -1.88034197163028        1.56471129690847
O           -2.91689943946926       -2.09307650227361       -0.97933354424125
H           -5.21670504396923       -0.83960945531272       -1.62502338961671
H           -3.70941881527244        3.03836858225302       -0.90091637730462
H           -3.24349891855284       -4.50078210249984        1.99162249399941
H            0.92387721028298       -4.09983766787124        2.47971249752806
H            2.93790418727168        0.41746050557279        2.49253567864990
H            0.92803669575964        3.61533604867550        0.62745010864966
C            3.30559673299657       -2.46633270907127        2.21588204697541
C            4.42130979386151       -2.90991786849360        3.16658980954834
C           -1.66754462042986        4.66662964783820        0.17876187991305
C           -1.66163793807383        6.05820909253655       -0.45759772632957
C           -4.83988448247086       -2.67549378592065        1.78740838898518
C           -3.67511566556171       -2.77567288692797       -1.96355814116364
S           -6.21053566404005        1.87238158091601       -1.61226299744358
F           -5.54609977569022        2.83762281121589       -2.76268813718652
F           -6.53130039765705        0.71393023516666       -2.72955269477054
F           -6.00019471164053        3.07186896239186       -0.50200287829088
F           -7.64452649086921        2.51897721885075       -1.93781615439040
F           -6.93907500659702        0.95708825026120       -0.45037821399146
S           -0.99110090706278       -6.19496832360475        2.55314782322855
F           -1.92148196842066       -6.59649662807932        1.26528445347495
F           -2.33368165264659       -6.17066319342352        3.49445575808909
F           -0.85707171706009       -7.75685309278974        2.91054392581593
F            0.36353337883317       -6.32462907474447        1.63808199718791
F           -0.04258986122756       -5.88608538399645        3.85711236854253
S            3.39732663283975        3.19670540336835        1.97019705476996
F            4.49793478839692        2.15313390507645        1.36126991927687
F            3.28701179755052        3.95258171889427        0.52331002618420
F            4.58488491522175        4.19628876405515        2.37831297889241
F            2.35733330406441        4.30972991051927        2.57662417521810
F            3.60158178102232        2.49271053192467        3.43660199051795
H            1.70096556698066       -2.64821563011848        3.65660873417211
H            2.40762074679738       -1.07059185413998        3.59145230526877
H            3.68692399828345       -1.70262420626171        1.53810224038448
H            2.98368678169232       -3.31310425397697        1.61053890325166
H            4.78669223488240       -2.07763360817201        3.75503058271315
H            5.26296053726791       -3.31777892323052        2.61461850380682
H            4.06819054482350       -3.67068616090329        3.85383613442601
H           -3.18810236604961       -3.73169519911968       -2.15671701474391
H           -3.70001799614465       -2.19110928102199       -2.88893650668632
H           -4.69618277241820       -2.96128254107501       -1.62020515449752
H           -5.70783716665107       -2.02278906584564        1.82438557135561
H           -4.76173072259209       -3.19857094559903        2.73817640499902
H           -4.97131724104506       -3.40317210487989        0.98275359342639
H           -1.80606607924739        3.53098130570423       -1.65107166813058
H           -0.16650899343237        3.73855326773164       -1.07076850351115
H           -1.03977918775201        4.66594986300907        1.06397316962553
H           -2.67180859168274        4.42299804543631        0.50635241201893
H           -0.65931761017226        6.35281618348456       -0.75207134960429
H           -2.02037020247074        6.79493968154700        0.25367921800263
H           -2.31546750235494        6.09842422213459       -1.32320242973729
C            1.07900638621317        2.94052641135765        4.60757061219330
C           -2.04094967410530       -3.41450773057887        6.62085544660796
C           -3.59364935111805        3.50379111811501        3.00008784922326
C           -3.46353287233713        2.15408869006040        3.32709354006315
C           -2.41813757327640        1.74915926328763        4.20718582650706
C           -1.32932893800722        2.63978479434177        4.40092162484825