156
 energy: -222.780869024591 gnorm: 0.112431482809 xtb: 6.7.1 (edcfbbe)
C           -2.01560000000000        2.35030000000000       -0.05330000000000
C           -2.16580000000000        0.98360000000000        0.15760000000000
C           -1.21680000000000        0.31330000000000        0.99740000000000
C           -0.02980000000000        1.00480000000000        1.33570000000000
C            0.08390000000000        2.36640000000000        1.05790000000000
C           -0.91850000000000        3.06900000000000        0.41880000000000
C           -1.39460000000000       -1.05310000000000        1.44290000000000
C           -0.24290000000000       -1.79890000000000        1.82530000000000
C            0.98680000000000       -1.14360000000000        2.09320000000000
C            1.09430000000000        0.30500000000000        1.95420000000000
C           -2.68590000000000       -1.70190000000000        1.56080000000000
C           -2.76220000000000       -3.11440000000000        1.50370000000000
C           -1.55560000000000       -3.92080000000000        1.68740000000000
C           -0.31210000000000       -3.20870000000000        1.97750000000000
C            0.81390000000000       -3.90450000000000        2.39530000000000
C            2.01350000000000       -3.26470000000000        2.68950000000000
C            2.07590000000000       -1.88670000000000        2.52170000000000
C           -3.88970000000000       -0.98370000000000        1.86780000000000
C           -5.10530000000000       -1.64240000000000        1.70760000000000
C           -5.18940000000000       -3.00670000000000        1.42550000000000
C           -4.01030000000000       -3.72980000000000        1.37610000000000
O           -3.77250000000000        0.30900000000000        2.40010000000000
O           -3.16230000000000        0.22940000000000       -0.47790000000000
O            2.09890000000000        0.91330000000000        2.32290000000000
O           -1.60260000000000       -5.15060000000000        1.66740000000000
C           -4.99300000000000        0.91660000000000        2.76010000000000
C           -4.18350000000000        0.98110000000000       -1.09570000000000
C           -6.56410000000000       -3.65270000000000        1.16960000000000
C           -6.48110000000000       -5.19310000000000        1.17120000000000
C           -7.57800000000000       -3.22780000000000        2.25350000000000
C           -7.07290000000000       -3.18890000000000       -0.20770000000000
C           -0.82800000000000        4.58300000000000        0.16040000000000
C           -2.11090000000000        5.26980000000000        0.67120000000000
C            0.37360000000000        5.21760000000000        0.89070000000000
C           -0.67390000000000        4.83340000000000       -1.35110000000000
C            3.26690000000000       -4.04510000000000        3.11950000000000
C            4.01780000000000       -3.27670000000000        4.22570000000000
C            4.19240000000000       -4.21910000000000        1.90310000000000
C            2.89910000000000       -5.43660000000000        3.67220000000000
H            3.77900000000000       -5.94200000000000        4.07550000000000
H            2.48460000000000       -6.07860000000000        2.89360000000000
H            2.16520000000000       -5.35410000000000        4.47420000000000
H            4.83110000000000       -3.87590000000000        4.64000000000000
H            3.33890000000000       -3.02140000000000        5.03860000000000
H            4.45440000000000       -2.35030000000000        3.85090000000000
H            5.09800000000000       -4.76690000000000        2.17300000000000
H            4.49220000000000       -3.25020000000000        1.49950000000000
H            3.68750000000000       -4.77050000000000        1.10760000000000
H           -8.04710000000000       -3.62660000000000       -0.43710000000000
H           -6.37660000000000       -3.48180000000000       -0.99580000000000
H           -7.17530000000000       -2.10270000000000       -0.24140000000000
H           -8.53690000000000       -3.73050000000000        2.10740000000000
H           -7.76970000000000       -2.15410000000000        2.22840000000000
H           -7.21970000000000       -3.48110000000000        3.25250000000000
H           -7.46820000000000       -5.63610000000000        1.01970000000000
H           -6.09430000000000       -5.56770000000000        2.12080000000000
H           -5.83680000000000       -5.55610000000000        0.36850000000000
H           -4.78820000000000        1.89820000000000        3.18750000000000
H           -5.51100000000000        0.31390000000000        3.50670000000000
H           -5.62130000000000        1.04710000000000        1.87950000000000
H           -4.97060000000000        0.30260000000000       -1.42430000000000
H           -3.79290000000000        1.50890000000000       -1.96570000000000
H           -4.61030000000000        1.68800000000000       -0.38450000000000
H           -0.59600000000000        5.90140000000000       -1.56700000000000
H           -1.52860000000000        4.44240000000000       -1.90610000000000
H            0.22460000000000        4.34570000000000       -1.73430000000000
H            0.31390000000000        5.04440000000000        1.96710000000000
H            0.39960000000000        6.29810000000000        0.73180000000000
H            1.31970000000000        4.81280000000000        0.52660000000000
H           -2.05930000000000        6.35210000000000        0.53170000000000
H           -2.25540000000000        5.07460000000000        1.73570000000000
H           -2.99550000000000        4.91160000000000        0.14240000000000
H            0.73120000000000       -4.97150000000000        2.49270000000000
H            2.99270000000000       -1.36110000000000        2.71820000000000
H            0.99440000000000        2.86040000000000        1.34220000000000
H           -2.74850000000000        2.87110000000000       -0.63980000000000
H           -6.01560000000000       -1.08480000000000        1.81790000000000
H           -4.03100000000000       -4.79690000000000        1.24960000000000
C            0.72390000000000        1.12600000000000        5.43590000000000
C            0.46700000000000       -0.22540000000000        5.68990000000000
C            1.35360000000000       -0.94230000000000        6.56510000000000
C            2.53240000000000       -0.28040000000000        6.98740000000000
C            2.74290000000000        1.05190000000000        6.67750000000000
C            1.84640000000000        1.77700000000000        5.90670000000000
C            1.16650000000000       -2.33020000000000        6.91460000000000
C            2.32140000000000       -3.10350000000000        7.27860000000000
C            3.52170000000000       -2.46880000000000        7.66340000000000
C            3.59620000000000       -1.00910000000000        7.68390000000000
C           -0.09100000000000       -3.02550000000000        6.79780000000000
C           -0.09550000000000       -4.41970000000000        6.53580000000000
C            1.10270000000000       -5.22290000000000        6.77690000000000
C            2.30330000000000       -4.51550000000000        7.21720000000000
C            3.44680000000000       -5.23200000000000        7.52170000000000
C            4.62620000000000       -4.61200000000000        7.90730000000000
C            4.63690000000000       -3.22590000000000        7.97940000000000
C           -1.36520000000000       -2.38230000000000        6.97710000000000
C           -2.49690000000000       -3.03310000000000        6.47170000000000
C           -2.43890000000000       -4.31260000000000        5.94340000000000
C           -1.25230000000000       -5.02450000000000        6.07780000000000
O           -1.40760000000000       -1.18280000000000        7.66700000000000
O           -0.57410000000000       -0.88930000000000        5.06890000000000
O            4.53030000000000       -0.42610000000000        8.21610000000000
O            1.09050000000000       -6.43910000000000        6.65370000000000
C           -2.68770000000000       -0.60560000000000        7.76980000000000
C           -1.49500000000000       -0.07520000000000        4.38180000000000
C           -3.66620000000000       -4.94970000000000        5.28200000000000
C           -3.22980000000000       -5.92480000000000        4.16850000000000
C           -4.47840000000000       -5.70830000000000        6.34170000000000
C           -4.54830000000000       -3.86330000000000        4.63640000000000
C            2.09540000000000        3.23750000000000        5.50470000000000
C            1.02600000000000        4.13110000000000        6.15530000000000
C            3.48770000000000        3.72010000000000        5.95220000000000
C            2.00880000000000        3.36020000000000        3.97110000000000
C            5.87570000000000       -5.46180000000000        8.17580000000000
C            7.06060000000000       -4.59860000000000        8.64870000000000
C            6.27920000000000       -6.17820000000000        6.87440000000000
C            5.56550000000000       -6.50170000000000        9.26800000000000
H            6.44530000000000       -7.10390000000000        9.49460000000000
H            4.77100000000000       -7.17860000000000        8.95750000000000
H            5.24680000000000       -6.01060000000000       10.18710000000000
H            7.93320000000000       -5.21840000000000        8.85490000000000
H            6.81250000000000       -4.06100000000000        9.56350000000000
H            7.34560000000000       -3.87300000000000        7.88760000000000
H            7.17040000000000       -6.78750000000000        7.02260000000000
H            6.49040000000000       -5.45440000000000        6.08800000000000
H            5.48180000000000       -6.82990000000000        6.52010000000000
H           -5.33570000000000       -4.31670000000000        4.03840000000000
H           -3.95570000000000       -3.22540000000000        3.98170000000000
H           -5.02840000000000       -3.23320000000000        5.38300000000000
H           -5.35880000000000       -6.17330000000000        5.89890000000000
H           -4.81160000000000       -5.03360000000000        7.12980000000000
H           -3.87670000000000       -6.49080000000000        6.80310000000000
H           -4.09060000000000       -6.28810000000000        3.60910000000000
H           -2.71520000000000       -6.79390000000000        4.57380000000000
H           -2.55900000000000       -5.43410000000000        3.46440000000000
H           -2.60160000000000        0.34340000000000        8.29990000000000
H           -3.35170000000000       -1.26490000000000        8.33010000000000
H           -3.09170000000000       -0.41540000000000        6.77520000000000
H           -2.30440000000000       -0.70650000000000        4.01240000000000
H           -1.00670000000000        0.39550000000000        3.53010000000000
H           -1.90760000000000        0.67970000000000        5.05110000000000
H            2.30410000000000        4.35350000000000        3.63580000000000
H            0.99510000000000        3.17950000000000        3.61950000000000
H            2.65320000000000        2.62600000000000        3.48700000000000
H            3.58590000000000        3.68670000000000        7.03670000000000
H            3.66000000000000        4.74930000000000        5.63810000000000
H            4.27200000000000        3.10390000000000        5.51380000000000
H            1.17310000000000        5.17620000000000        5.88410000000000
H            1.06750000000000        4.05310000000000        7.24140000000000
H            0.02580000000000        3.83970000000000        5.83710000000000
H            3.40670000000000       -6.30170000000000        7.42810000000000
H            5.53080000000000       -2.69930000000000        8.25640000000000
H            3.65490000000000        1.50160000000000        7.02300000000000
H            0.05440000000000        1.66950000000000        4.79920000000000
H           -3.43960000000000       -2.52340000000000        6.49370000000000
H           -1.20300000000000       -6.06440000000000        5.81310000000000
156
 energy: -222.797528467586 gnorm: 0.046917156334 xtb: 6.7.1 (edcfbbe)
C           -2.01032710263317        2.35010308606553       -0.05465630901279
C           -2.16515062978787        0.99643853208897        0.17688358992380
C           -1.23070961164210        0.30806685282448        1.00444743896547
C           -0.03739150952699        0.99684878129261        1.32871973796637
C            0.09119974613996        2.35912699523355        1.04687183766591
C           -0.90833619775403        3.07025885950217        0.41932259543148
C           -1.40588463371618       -1.04655156763610        1.43915911540946
C           -0.26115776501264       -1.78839732133089        1.82217304107060
C            0.97471046296091       -1.14586802942667        2.08138621528247
C            1.09462759230979        0.30072708071869        1.94647581749810
C           -2.68234766317976       -1.69071000606977        1.55417996131647
C           -2.75998279337105       -3.10056380613613        1.49955283383846
C           -1.55315046105708       -3.91466017742486        1.66621272127298
C           -0.32113959321869       -3.19551108759467        1.97868932887073
C            0.80706123161374       -3.89790833617716        2.39360723801749
C            2.01242901399844       -3.26696897420679        2.68148431912499
C            2.06911614878244       -1.88903196273065        2.50944476954573
C           -3.89384485052865       -0.99304154707692        1.83569057302290
C           -5.10362680450412       -1.64672925852252        1.69852269258439
C           -5.18507892837676       -3.01402185976123        1.41004805058634
C           -4.00438501295139       -3.72794280879700        1.37380515075237
O           -3.78812484502160        0.30053591691295        2.34057593745346
O           -3.16305810936811        0.25012305282682       -0.44230575061186
O            2.12381098165540        0.90393655608903        2.27551568141238
O           -1.59682850082302       -5.15153280387592        1.61897776182178
C           -4.98864661299886        0.91078902030649        2.74130200338915
C           -4.17854392802174        0.97879094063558       -1.08346738860217
C           -6.55738398328748       -3.65339277169302        1.16896626924164
C           -6.48355204594061       -5.18706178401496        1.16865911805691
C           -7.57358777027664       -3.23069352033447        2.24585173956030
C           -7.06986010894100       -3.18941809137861       -0.20413034663162
C           -0.82593451145853        4.57816416047476        0.16421213432835
C           -2.10591916624849        5.26566510175721        0.67009359100795
C            0.36815822796370        5.21744483080796        0.88682188569886
C           -0.67545051175178        4.83204571670294       -1.34454627167921
C            3.25891329010262       -4.04325683199053        3.11980259768063
C            4.01183458621994       -3.27710172379297        4.21859123389562
C            4.18381361240617       -4.21553319399758        1.90354746082243
C            2.89998426693345       -5.43163883917969        3.66722498569538
H            3.78604493775504       -5.92241118520185        4.07078518366302
H            2.49131900293380       -6.07488642388399        2.88925149984149
H            2.16988834154693       -5.34887593456872        4.46785606588316
H            4.81823662438304       -3.88502605445589        4.62961056564127
H            3.33445709001955       -3.02381568594605        5.02887119848436
H            4.45144124586402       -2.35462456389748        3.84443492020671
H            5.08631762704553       -4.76261627869579        2.18127020609488
H            4.48186985496351       -3.24668315449621        1.50367773998033
H            3.67886081465135       -4.76805583489645        1.11107144901214
H           -8.04389048967941       -3.62852983260814       -0.42812338335000
H           -6.37131474930085       -3.48367382136490       -0.98617887138556
H           -7.16853332730301       -2.10498840361479       -0.23374939008591
H           -8.52817851522460       -3.73821415421501        2.09473914726581
H           -7.76467534217028       -2.15959187670380        2.22019094869865
H           -7.20878554925823       -3.48287420094378        3.23971680251988
H           -7.47591427425839       -5.61709966053667        1.02013015633833
H           -6.09357655724408       -5.55564908339367        2.11566326180260
H           -5.84125270199243       -5.54705016965058        0.36755996739819
H           -4.74186493514748        1.88427110969194        3.16972921896723
H           -5.50430384418145        0.31371567851772        3.50176529757038
H           -5.65028936797334        1.06078501729492        1.88217478243991
H           -4.94455983141905        0.26968925833272       -1.40283508498134
H           -3.79755075119533        1.50320446659104       -1.96705647246148
H           -4.62719665381880        1.70055895971096       -0.39402987325172
H           -0.59841043800997        5.90025391253331       -1.55517764067186
H           -1.52824993520400        4.43888670741526       -1.89620721558810
H            0.22187939764908        4.34287109050765       -1.72124834062411
H            0.30807110166168        5.03946221368132        1.95865791828274
H            0.38069079847803        6.29625817377911        0.72131911141318
H            1.31007904083608        4.81337007989473        0.52152595850366
H           -2.04824658980177        6.34637415974329        0.52840393325597
H           -2.24502520396322        5.06671818982400        1.73171022186591
H           -2.98757886415354        4.90663248824230        0.14216804975790
H            0.71262704001532       -4.96715791321697        2.49144996626675
H            2.98073360213996       -1.35069355685637        2.71760495389265
H            1.00771378958224        2.83940307347598        1.34264367061985
H           -2.74531459750866        2.87446996133752       -0.64422812281309
H           -6.01907470914023       -1.09178588501899        1.82555821957710
H           -4.00788795685749       -4.79936655993142        1.26639594480089
C            0.73356902185143        1.12143209381799        5.44212250015317
C            0.47877057234481       -0.21628207269527        5.70736681626303
C            1.35010507356230       -0.94673323333701        6.56974641353068
C            2.52964979175357       -0.28556377599797        6.98835050037508
C            2.75400785216009        1.05295697653599        6.67562800125646
C            1.86442158665447        1.77994097032993        5.91170125222104
C            1.16017919991829       -2.32748300242743        6.91380700650739
C            2.30252144218357       -3.08996068924782        7.26751040447507
C            3.51184429229614       -2.45972238111371        7.65249015954478
C            3.59521721255132       -1.00149520038108        7.69198065530111
C           -0.08667443695545       -3.02104240618921        6.79472429380385
C           -0.09532403688310       -4.41336594334902        6.54048620800721
C            1.09739095569425       -5.22609264005778        6.77448425964008
C            2.28894285958372       -4.50801678065624        7.22334721955960
C            3.43960860091258       -5.22463552636943        7.52278506550248
C            4.62548126076172       -4.60644992527336        7.90311961585402
C            4.62997990853245       -3.21879159646815        7.97250401693268
C           -1.35746215642258       -2.39439179600972        6.95343482021321
C           -2.48682930801544       -3.03899779818671        6.47508132413100
C           -2.43522498305761       -4.32494462927190        5.94082398648940
C           -1.25600965073607       -5.03000599813667        6.08443461022563
O           -1.40572899969989       -1.19688437690902        7.64198393134679
O           -0.56294830284736       -0.87559954385197        5.10021293452215
O            4.54488841172528       -0.41460672804795        8.22699431050667
O            1.08597100230281       -6.45790437779287        6.65217525434795
C           -2.67644806823826       -0.60999931078425        7.76479454866044
C           -1.48763824102983       -0.07941846617313        4.40203106081897
C           -3.66303362694154       -4.95088415140080        5.28468970409131
C           -3.24039392634111       -5.93026405163736        4.18083140932891
C           -4.47813105558250       -5.70677675805527        6.34357968525312
C           -4.54685845897071       -3.86960211209163        4.64608319910793
C            2.10069527300672        3.23682811317584        5.51246100911597
C            1.03045440668532        4.12918183151589        6.15953197449857
C            3.48506771678781        3.72586809035194        5.95448092015813
C            2.01136554307623        3.37079012888132        3.98583465094925
C            5.87059416089340       -5.45453176697495        8.17587217047769
C            7.05866429371320       -4.60436584475235        8.64772121136855
C            6.27612837751288       -6.17503306204524        6.87993629177823
C            5.56591509642639       -6.49674483498896        9.26401220395993
H            6.44932144149731       -7.09753042278949        9.48654644841175
H            4.77039355544920       -7.16894959534823        8.95108977536399
H            5.24746210480932       -6.00219192173140       10.18042995338018
H            7.92466770762880       -5.23598518878223        8.85131001880138
H            6.80897983723080       -4.06725939467851        9.56092879546523
H            7.34272410296997       -3.88115242207524        7.88605306216578
H            7.16833090421142       -6.78426637588389        7.03292851129091
H            6.48691624417314       -5.44845179818095        6.09686057541128
H            5.47606668815774       -6.82281119272069        6.52832443945213
H           -5.32777801217258       -4.33041787096234        4.04492155492848
H           -3.95130341240758       -3.23562111389700        3.99390252044570
H           -5.03228581975648       -3.24260641031661        5.39268821296874
H           -5.35827475376193       -6.17078547405677        5.89638129627136
H           -4.80826347018273       -5.02964047553633        7.13107435181001
H           -3.87198412036476       -6.48693475781271        6.80091811902905
H           -4.10902460215700       -6.28589564443234        3.62745851284663
H           -2.72901005831457       -6.79820328273777        4.58804336097656
H           -2.56942993900098       -5.44815184164013        3.47682238158866
H           -2.55779285142692        0.33319332204182        8.30167087633502
H           -3.35382963364016       -1.25849276121930        8.33262541732957
H           -3.10674649722777       -0.40519483526132        6.78036617057201
H           -2.27892895042435       -0.73733868366519        4.04713448220753
H           -1.02462741677701        0.39842733317209        3.53783124977887
H           -1.91779660286241        0.68695693841250        5.05493921979081
H            2.30945437556814        4.36761943644006        3.65764412263327
H            0.99801150364794        3.18840702542304        3.63790685990573
H            2.64968366030092        2.63388788326965        3.50491831212608
H            3.58353442096322        3.69094986081739        7.03794294017965
H            3.64530794921291        4.75550857193656        5.63212186648816
H            4.26233295307070        3.10674585826741        5.51172091327783
H            1.17884698261264        5.17415677764869        5.88311497788450
H            1.07319993318341        4.04900982574307        7.24497563052137
H            0.03399138459908        3.83161032125514        5.83794465675775
H            3.39207159084878       -6.29932883552563        7.42699412910512
H            5.51957583226994       -2.68195248718645        8.25910025214580
H            3.67093451231774        1.49146362667918        7.03066891599925
H            0.06007040215691        1.66475654378343        4.80234393356557
H           -3.43431575033679       -2.52885823465320        6.50404526580958
H           -1.19692549164308       -6.07316321529759        5.82403699019569
156
 energy: -222.804361232223 gnorm: 0.016370685736 xtb: 6.7.1 (edcfbbe)
C           -2.00632171708800        2.35678159525474       -0.05064181152967
C           -2.16411013279691        1.01358459589311        0.19363042323251
C           -1.23904274860124        0.30832061273819        1.01030163454513
C           -0.04023492780459        0.99335937208682        1.32051126862047
C            0.09830939033486        2.35738662455197        1.04088191845632
C           -0.89767936903447        3.07659952725371        0.42291665769133
C           -1.41619534319735       -1.03911402030546        1.43279048999147
C           -0.27643778258635       -1.77948600343405        1.81573676032372
C            0.96398474072235       -1.14649684625338        2.06980745881926
C            1.10583748695630        0.29538922898071        1.91414823115620
C           -2.68171822833308       -1.68406356555003        1.53788352308855
C           -2.76009856689466       -3.09180635053062        1.49089124868375
C           -1.55357716199322       -3.90966537552086        1.64526517241949
C           -0.33064482863990       -3.18524377604496        1.97430121114160
C            0.79682146218557       -3.89147595475621        2.39069328912262
C            2.00508932955944       -3.26729294498409        2.67899895721175
C            2.05762351202465       -1.88956075799249        2.50443285685010
C           -3.90103828291828       -1.00276450897141        1.80021284640081
C           -5.10546463226147       -1.65352415719336        1.68337951009422
C           -5.18452402095305       -3.02656843334173        1.40049695052650
C           -4.00152004324290       -3.73077890381046        1.37390255134400
O           -3.80243517366928        0.29603414597278        2.27071385399349
O           -3.16611860226707        0.27270442306894       -0.40544288412357
O            2.15050102118563        0.89466610739091        2.21184052521168
O           -1.59081146650411       -5.14849830881474        1.55223204246778
C           -4.97852647414097        0.91013429718102        2.71739892372855
C           -4.17822825939413        0.97096744103928       -1.07034764165664
C           -6.55297162291872       -3.65700506591810        1.16463653931849
C           -6.48386626048937       -5.18583171540862        1.16379687840116
C           -7.56597464309647       -3.23366178309113        2.24046910096101
C           -7.06445460175737       -3.18892522271589       -0.20647125009799
C           -0.82193506495716        4.57651700859678        0.16567538501671
C           -2.10176846069912        5.25888705249944        0.67236349845580
C            0.36652344648371        5.21837761033621        0.88433404053949
C           -0.67464334541780        4.82887642526012       -1.34227051536446
C            3.24777249968512       -4.03934075112858        3.11517931677567
C            4.00105094772591       -3.27576938493482        4.21053116136056
C            4.17301540839464       -4.20923085635359        1.89847253612268
C            2.89748771730500       -5.42555751697070        3.66112826529786
H            3.79053677214463       -5.90320947207771        4.06321998498283
H            2.49548836924270       -6.07105985543883        2.88348057949565
H            2.17005671949083       -5.34803021056463        4.46249099099486
H            4.80221105066982       -3.89158676618031        4.61800765471319
H            3.32663155010975       -3.02193982087640        5.02093795239215
H            4.44497458800348       -2.35749161774489        3.83568912638800
H            5.07328952318100       -4.75520223496747        2.18289012287197
H            4.46826785511342       -3.23976977401865        1.50212129724480
H            3.66794598237229       -4.76324424484957        1.10883823824370
H           -8.03891933528488       -3.62747061858506       -0.42550133396565
H           -6.36542241603906       -3.48444910537571       -0.98535346218237
H           -7.15987336497056       -2.10549878811095       -0.23050586801144
H           -8.51536686300223       -3.74692747925022        2.08367879520903
H           -7.76088097860509       -2.16497042795965        2.21232605387775
H           -7.19782042428059       -3.48480095583528        3.23165266122812
H           -7.48030722630254       -5.60484723166508        1.01805854918747
H           -6.09297101155888       -5.55128666989322        2.10953119110942
H           -5.84371370967864       -5.54458904576531        0.36319276214838
H           -4.68608079538686        1.87316928927357        3.14433221409682
H           -5.48356586696273        0.31831059777127        3.49413310337101
H           -5.68327085085935        1.08298422670952        1.88937732634671
H           -4.92036765926436        0.22893600036326       -1.37555267678771
H           -3.80626127452417        1.48592539426479       -1.96855137182972
H           -4.65273630731437        1.71016860214052       -0.41006495522461
H           -0.60011427751848        5.89736932657359       -1.54746663820525
H           -1.52727790287306        4.43411955864184       -1.88988980708360
H            0.22261774828043        4.33985369832683       -1.71476394718143
H            0.30740879771447        5.03774692219245        1.95367972044445
H            0.36686175647851        6.29567755343262        0.71448128555975
H            1.30638336672083        4.81703205774791        0.51688333291967