116
 energy: -22.928061455056 gnorm: 0.329736929581 xtb: 6.6.1 (8d0f1dd)
C           -3.31122850772930        0.79849766164622       -0.92477639677520
C           -2.44380812530352       -0.12270372891954       -0.27661132624697
C           -1.41337090092821        0.39579727573559        0.56335275196199
C           -0.89266158675590        1.65801491088749        0.27377586709581
C           -1.72665675402493        2.51431363229076       -0.49448366572522
C           -2.95444148494349        2.13954154133227       -1.01494489940871
C           -0.74098268209890       -0.43411532818871        1.49825021926784
C            0.56872586496315        0.03782116815119        1.86248088067890
C            1.03782416582094        1.29402317993033        1.50887470833621
N            0.31238977034758        2.07067427098208        0.65193736800696
C           -1.29695700510141       -1.39996043042223        2.41574187746061
C           -0.38243517664656       -2.18060797534842        3.13232615520648
N            0.91308504082021       -1.90366887689689        3.30325166013478
C            1.37712470144904       -0.74872102533751        2.81811050966982
C            2.52149331701875       -0.17739833758153        3.39379298866852
C            2.95849061756259        1.02681208890480        2.95105897606587
C            2.24288949469137        1.78498308775960        2.03503020483770
C           -2.74860936222260       -1.74497937691422        2.38401158947411
C           -3.09416315450955       -2.91614440870436        3.00571134491758
C           -2.16786021984049       -3.77788778654213        3.63251872101904
C           -0.85708937311598       -3.40495313382985        3.68547234358092
O           -3.71994433332149       -0.94984598373544        1.67726658385724
O           -2.55702603277562       -1.47241711578389       -0.57241635275616
C           -3.84297843593025        3.13357444054366       -1.60938954875544
C           -2.68769581069131       -5.03867041417370        4.30484659386931
H           -1.39666850744143        3.51251503834900       -0.76806311868865
H           -4.27662633836220        0.55105838579656       -1.33106614114542
H            2.66329581305412        2.73912661909249        1.72562431984580
H            3.05775395548473       -0.69369546277216        4.16536137542516
H           -0.24710966264510       -4.12034095424229        4.22946223699121
H           -4.11477991332403       -3.04712728052358        3.03244694615357
O           -4.21824883374556        4.03433712717988       -0.87713382485991
O           -4.44510595673734        2.90643496899600       -2.81853501752979
C           -5.44216520282800        3.83300025693726       -3.02488532025093
C            4.23586651889298        1.50004220933226        3.59165660008449
O            5.05927614697201        0.66079890002952        3.91714215179376
O            4.47001334453535        2.86385149488593        3.72605651435371
C            5.79457498613219        3.08584475587818        4.15829123132174
O           -3.82227255313510       -5.27347675879771        4.16636005494405
O           -1.85023202017753       -5.79767454267276        5.06656077253571
C           -2.55119635829503       -6.86252441382958        5.62930343183426
C           -5.07197156564436       -1.42399175670916        1.58830531863830
C           -1.33089900128490       -2.23622472573986       -0.99264499351172
H           -2.54510546830388       -7.76426885143998        4.99136022291012
H           -3.57194749219491       -6.44405511486021        5.74196173723541
H           -2.09133598235598       -7.02043774843818        6.64022264233588
H            5.72707967266424        3.46798026205549        5.10135971236643
H            6.34060091246885        3.78468702308830        3.50069950143490
H            6.17933064298187        2.03010500085905        4.19342358084693
H           -0.91862729772622       -2.57650129080332       -0.01361370304871
H           -0.49769766914251       -1.60651221708571       -1.34094446550576
H           -1.52632419730509       -2.94569707152159       -1.75361447637286
H           -5.11788846557077       -2.41810833635233        1.17520213188926
H           -5.67929807973498       -0.69619639428435        1.04301666067831
H           -5.57598832326623       -1.42383358739762        2.57928294206544
H           -6.13050215934830        3.76035386975488       -2.23272855695873
H           -5.86615610071888        3.45938329385866       -4.02668959924245
H           -5.13479557532099        4.87790991548477       -2.98314551356402
C           -1.38192942069774        3.73616555005018        2.91232598411686
C           -1.84821468128685        2.59982427735607        3.49755545445181
C           -1.05946531454833        2.05730632010638        4.60922730982276
C            0.19893954712228        2.69376791964407        4.86302140881997
C            0.50425395911860        3.94630308659851        4.28768785650746
C           -0.26031777722226        4.46998310053134        3.25072669343212
C           -1.20488993561782        0.74454293276906        5.14851520323437
C           -0.06287609782692        0.02744069315890        5.60930570802864
C            1.19208754369866        0.71421540266195        5.78882868583885
N            1.19428660993148        2.06344359410476        5.62744624321596
C           -2.41361422770794        0.07928500213936        5.25249410304426
C           -2.45851584031083       -1.32662100968547        5.60237876023992
N           -1.29466212405906       -1.98318595734370        5.89916817085159
C           -0.14475655767527       -1.32117560077092        5.98824682881008
C            0.97209270935794       -1.98958449505532        6.53157704134458
C            2.21982707914082       -1.36973967291181        6.68703967237737
C            2.30561929262884       -0.09745313075593        6.26436900324455
C           -3.73018485967715        0.71367583494582        5.25810242262992
C           -4.89964478833448       -0.06184623426677        5.21204641615509
C           -4.82617965800088       -1.39228978090841        5.46901303780036
C           -3.67144193418464       -1.98914944386360        5.67265433266067
O           -3.75568638935321        2.07705011038914        5.52067969627343
O           -2.94192434743730        1.91263938797883        3.01658762327703
C            0.21273512614467        5.50086066357994        2.34765104514621
C           -6.06660304520411       -2.17604633098929        5.80641622556876
H            1.41756699010566        4.38133362238595        4.66974005703471
H           -1.82880610647429        4.11982501512100        2.06992133318584
H            3.26888037378556        0.32655662585251        6.31721410015598
H            0.87146188387207       -3.08471526305024        6.57830423410869
H           -3.67716811065157       -3.05999292755990        5.83019634570050
H           -5.77379677507622        0.43595144608221        4.71017130754348
O            1.34459852619901        5.82615848916894        2.44941456579099
O           -0.74718748219123        6.07961784856304        1.59848183464284
C           -0.21473095568964        7.24015934882472        1.05753806029483
C            3.53228080814219       -2.00967610361154        7.02506769044485
O            3.64093082622715       -3.14437803815732        7.50071391725347
O            4.56565258381079       -1.22937033368332        6.69086985080897
C            5.72579357310716       -1.80692399125161        7.22246151275881
O           -7.04801223588612       -1.95726935745904        5.14194115322235
O           -6.01514389321278       -2.93743591896022        6.94765316328794
C           -7.21292732384718       -3.62681918543340        7.15115816329978
C           -4.95459780685163        2.65960679932188        5.86868674392943
C           -3.68284113682406        2.59129188358641        2.05479246020704
H           -7.43119628931628       -4.22607794725959        6.20622607140901
H           -8.06548455146707       -2.91765848248592        7.29781126410398
H           -7.07314693247270       -4.33087306029711        7.91223421050944
H            6.57332189837178       -1.29353136199234        6.78341268688262
H            5.74663761932316       -2.84282155125561        6.88089468184451
H            5.69426191474290       -1.72781984964892        8.29460302186842
H           -4.10481209541493        3.44288266176275        2.60483747673152
H           -4.49244774344916        1.87419893016926        1.82433103764650
H           -3.18901540870812        2.85154642679373        1.06781919454921
H           -5.55414326821421        2.76698137191684        4.93950725322359
H           -4.78658370641210        3.62090640967288        6.25983200635257
H           -5.43485580473958        1.97242995129449        6.65265772412460
H            0.89164886030839        7.38838561720231        1.13776105146914
H           -0.62894889903848        8.04195665205089        1.64837664327952
H           -0.59282546386754        7.45699159724320        0.03719083132488
116
 energy: -22.532232188415 gnorm: 0.557922194235 xtb: 6.6.1 (8d0f1dd)
C           -3.19172102793905        0.45185652777265       -2.08165531265916
C           -2.69779852289778       -0.43358104375842       -1.13506431673973
C           -1.72308547093057        0.05071421496145       -0.21093737116906
C           -1.08146491134838        1.35918101956118       -0.43266393857758
C           -1.49685952668631        2.07915683897418       -1.54123570343003
C           -2.64560401298879        1.64347153806305       -2.24080323503181
C           -1.19640761353647       -0.45175533001169        1.10383890363884
C            0.23355201131275       -0.20798719330802        1.36542356916179
C            0.85679380101245        0.79684100195171        0.62089401301282
N            0.20262882663405        1.61038369386124       -0.24040820638861
C           -1.64042927322000       -1.62494862437924        1.74878708740149
C           -0.67527821427554       -2.44756284791452        2.48632392459203
N            0.62492669181782       -2.10833066721597        2.85650572771465
C            1.08938445711959       -0.97217184298671        2.23589595369148
C            2.51202007492836       -0.71555995316397        2.38936219348116
C            3.07663113666047        0.22397746099034        1.56408450629477
C            2.27636713806493        0.97289067636842        0.72744532705279
C           -2.94949967702990       -2.28102825120641        1.90979222011943
C           -3.11739754729682       -3.64991312314050        2.32558377115414
C           -2.03534754823875       -4.44537702309472        2.90702557812317
C           -0.92071141112839       -3.68927983778858        3.08010332619274
O           -3.96070696560906       -1.27941715601885        1.96181905807800
O           -2.95361079516747       -1.79959457760856       -1.50854800185135
C           -3.11243981539274        2.51807754479438       -3.26207138012214
C           -2.40594207084712       -5.90902691598166        3.20265266463949
H           -0.86618392409634        2.79889713723341       -1.93251680731725
H           -4.02423523210580        0.00511319204914       -2.61364863534728
H            2.88849618424067        1.78255913502114        0.14810637230720
H            3.00867096278116       -1.28027622157458        3.01432972104726
H           -0.07604573031602       -4.08064389594472        3.79749163612082
H           -4.04257628668173       -4.10581775129807        2.45968246041857
O           -2.39765097149248        3.56662409923788       -3.37973790119629
O           -4.20418240538130        2.09680264682454       -3.94939842661118
C           -4.70354771777645        2.95669506500297       -5.14085451143242
C            4.57696161840218        0.26644436702826        1.62800570736309
O            5.27513572321512       -0.67347279781999        2.04044708236463
O            5.18991573275069        1.33301755886751        0.70716765194114
C            6.42861381434943        1.17363339101093        0.28713856929940
O           -3.21012798581460       -6.54554196238361        2.51804293094120
O           -1.89999262276581       -6.44667010054264        4.33365451122379
C           -2.68661223188837       -7.70926666233928        4.57297538992733
C           -5.11080561978117       -1.36375189518674        1.15740077475709
C           -1.88793458591478       -2.68068258749978       -1.22434229061301
H           -3.71322296423353       -7.42122786544962        4.65951721064066
H           -2.14621458479434       -8.55262482195055        5.10331430973296
H           -2.96295537657687       -8.41275493854848        3.77462574944064
H            7.27706317001145        1.14996117833599        0.94517554758660
H            6.50767716187345        2.14383613388628       -0.18619409607415
H            6.27957310626532        0.24714279251349       -0.40055393810386
H           -2.35289425366754       -3.70079546085191       -1.05450047152633
H           -1.54429621151622       -2.38748500295583       -0.31897082748866
H           -0.99307641291994       -2.55465230696527       -1.81192130469528
H           -4.78376444082256       -0.92986969665825        0.08739236476387
H           -5.94642635508825       -0.73012881265732        1.41239757783260
H           -5.19055395712468       -2.42194829884052        1.71219100587882
H           -5.11432131698041        4.00285798043659       -4.88253469554583
H           -5.39691825431512        2.33857091536116       -5.53274617527641
H           -3.91030627921433        3.24662097854409       -5.82618438314255
C           -2.03465151480255        4.72661267287643        4.91654286234686
C           -2.08300401236194        3.34079280299985        5.27933072178986
C           -1.18586578476713        2.72615078553969        6.21840052211806
C           -0.02586767579229        3.57358247148498        6.63031451577210
C            0.05004051261202        4.98555091391769        6.22637865964091
C           -1.03190288517144        5.54784447735133        5.57027137253978
C           -1.28560649805369        1.46144195706967        6.61857515777425
C           -0.10304000285151        0.99005548004441        7.17924419536720
C            1.07879101276778        1.75897203911473        7.28795624281842
N            1.16970526069998        3.05716848659854        7.11196281912616
C           -2.49753207598346        0.69722286094698        6.68502156086982
C           -2.38004026180691       -0.74494794073066        6.55907658941776
N           -1.13885709653705       -1.21037239220559        6.90536122423136
C            0.02451618211320       -0.47528568349629        7.22475660915543
C            1.21070117463143       -1.10528910421428        7.65421102291418
C            2.25079054294753       -0.25167603722870        7.96323727597588
C            2.20055769150161        1.09259950956058        7.86242978554920
C           -3.82417613146012        1.23751235363155        6.71082906013101
C           -4.81351480255860        0.49004935433996        5.94244766077326
C           -4.63973548363011       -0.88326971396875        5.54780855920728
C           -3.40993309523008       -1.51206200714333        5.91781198186935
O           -3.90949399620145        2.54489964614922        7.31978526844270
O           -2.88724696249765        2.52967608204681        4.45678313182027
C           -0.78979150459038        6.93948273656876        5.12550763433357
C           -5.84658050338041       -1.68837619358770        5.19233438663391
H            0.82959828296847        5.56058440947810        6.51785610264998
H           -2.54112919684999        5.12938251108143        4.03227955868476
H            3.20580202419927        1.55413316797870        7.89967154789612
H            1.63021727770035       -2.16903845382838        7.56785726161351
H           -3.14983163700491       -2.51417329157157        5.91125213574986
H           -5.71661435818364        0.95061624805250        6.04261056867636
O           -0.00676778324898        7.67372552338563        5.65435375630641
O           -1.45164949697571        7.17644134132546        3.96339207172003
C           -1.25529515456385        8.23853802762847        3.13142419183306
C            3.45476835716289       -0.94327963332223        8.14755036286461
O            3.57914859338840       -1.89411396149720        8.90927278271172
O            4.63245287658822       -0.63888834570056        7.54295274830003
C            5.26537400600650       -1.99310241609062        7.36333821963653
O           -6.84566899345644       -1.19422454169979        4.71653993691074
O           -5.79342310969699       -3.03137654186992        5.54303075573245
C           -6.92130612547405       -3.82213268914240        5.04768619123000
C           -5.09806609229575        2.96095419843101        8.00251656611934
C           -2.28601598979505        1.39366050125517        3.82111320038785
H           -7.04858658427236       -4.69190611303777        5.74924757470713
H           -6.61094499554403       -4.13368968093720        4.02972063418532
H           -7.84375977151939       -3.05121524700054        5.27527117224497
H            5.35836549508557       -2.34226063490773        8.40142914407798
H            6.06716348386129       -2.00151163829292        6.75679273927094
H            4.45192121249656       -2.52334260375750        6.85594478297883
H           -1.97191984517562        1.47925922985781        2.73766760806346
H           -2.79603286767111        0.36670465784512        3.86683204344297
H           -1.30485527695762        1.62725703589159        4.26925031930450
H           -5.16199548752699        2.53485723285384        8.97756374278920
H           -5.98711291756775        2.46205597921665        7.33382115796764
H           -5.24407118671319        3.93983322762832        7.91845110429314
H           -0.73129911675163        8.08867099759306        2.04965640450283
H           -0.66801116593458        8.83694598343037        3.90320165952198
H           -2.27156449225792        8.87913351016733        3.20542330356471
116
 energy: -22.613686488259 gnorm: 0.521100426906 xtb: 6.6.1 (8d0f1dd)
C           -3.14854419926986       -0.58252057453276       -2.46138564595706
C           -2.43636733919193       -1.31415483717113       -1.46071806129336
C           -1.27217815550938       -0.78621968667404       -0.89902030391716
C           -0.72832963939157        0.48051368424186       -1.42898128861034
C           -1.44261783063167        1.10797681345122       -2.45493746185342
C           -2.65614022859110        0.60507795277713       -2.87181717724438
C           -0.55298822961771       -1.34916100932941        0.20246874148260
C            0.77254925532994       -1.02177582978205        0.44987052545551
C            1.29674633582253        0.09503758069665       -0.29400116149843
N            0.52973674846985        0.87618474529053       -1.11975246205682
C           -1.25319869628663       -2.14781334969940        1.15810539946793
C           -0.39574210133601       -3.00153916053651        1.90002965301984
N            0.87584591073022       -2.77180843674903        2.13865893808073
C            1.44234944585933       -1.83925425990044        1.33481406408632
C            2.82951624601715       -1.57148331788433        1.47047303642413
C            3.22024595080509       -0.36755526812990        0.89445709956640
C            2.62733086223463        0.29004321294424       -0.13437389030662
C           -2.54736068610768       -1.99587564112125        1.64400803236470
C           -3.21937979031430       -3.04561014450688        2.23105201380164
C           -2.28449713071138       -4.13727447350943        2.72913172038820
C           -0.91434086286818       -4.03495178333996        2.57213392998559
O           -3.26006482808221       -0.78926504782567        1.55081793850288
O           -2.91176544774581       -2.47673353244052       -0.83130636218226
C           -3.25050022739600        1.16440857207768       -4.24084184745275
C           -3.02108171266458       -5.21115328442374        3.53673904647432
H           -1.22656175997106        2.05043884526055       -2.78955437203048
H           -4.20439616181712       -0.59398730611128       -2.81652544386059
H            3.08510218798261        1.00962942835026       -0.77953424298922
H            3.49059890022745       -2.17854016780149        1.93614071579193
H           -0.13727366035182       -4.62840504665660        3.19659942547337
H           -4.23182546140055       -2.95028059258269        2.47193567976483
O           -2.70241144681187        2.22561685228779       -4.48035905284147
O           -4.33432179696609        0.51277619745217       -4.95004034688657
C           -4.85942063760007        1.41493159469096       -5.76637254928145
C            4.60126369880882        0.03272023369871        1.23924559127534
O            5.28503560027492       -0.61757243916975        2.01708786486161
O            5.23527886237607        1.01408031882083        0.50195651782599
C            6.50578983589348        1.35475193857314        1.11779613146452
O           -3.25823485550202       -4.98136797610004        4.76383031678962
O           -3.12689905051898       -6.48300480478230        2.96346351766756
C           -3.41416773680624       -7.41614028338941        3.89821326887781
C           -2.65323300463254        0.44220936228263        1.57328439146295
C           -4.10163830328316       -3.07462382102932       -1.39969217825967
H           -3.20550864809595       -7.08188528590944        4.98828669649983
H           -2.39100341308278       -7.99045978269331        3.91803564839929
H           -4.09786254499235       -8.14804506811654        3.40361466840911
H            6.12109531175689        1.78235777015266        2.06229614682032
H            6.97767008828564        2.09813904732522        0.56644515646933
H            7.26637258615716        0.64721899091903        1.22661937715404
H           -4.30365625168123       -3.85643770927157       -0.60848376042581
H           -3.84407320991952       -3.28315264182122       -2.44833736092058
H           -4.75461920369984       -2.18513403134876       -1.32989555532278
H           -2.71482612148085        1.15838447335574        2.54621192042632
H           -3.03266683793018        0.63563416150237        0.58109438000030
H           -1.61684903356010        0.51041863357235        1.08491949764828
H           -5.38454249976350        2.26995342838645       -5.37664489588051
H           -5.68430253316943        1.03673892842140       -6.38188429339967
H           -4.08109211500351        1.90353046018021       -6.37907751081156
C           -1.98205403837993        5.30202109156366        5.68081218730095
C           -1.93253780002099        3.92140578178680        5.29375341592827
C           -1.05827706145114        3.01817871583292        5.99390221424052
C            0.01579232803589        3.68193925960340        6.77836151694370
C           -0.12025390323537        4.98692998602279        7.26541779194594
C           -1.03226891809093        5.80645902939448        6.55006740729525
C           -1.08077509460654        1.55815414086610        5.77472303537094
C            0.04036359091424        0.84472287528513        6.39641337797179
C            1.07988885042672        1.63921292959652        6.90118895524986
N            1.22622128904156        3.03351298513035        7.08795563341234
C           -2.29335278721957        0.87142905413774        5.88947166118976
C           -2.21892280243637       -0.56639189631212        5.85260363356132
N           -1.06860763514523       -1.23535094111522        6.05738471834936
C           -0.13790649740749       -0.54094027363771        6.59398503847386
C            0.99403428667313       -1.16251943138256        7.13444124536725
C            2.09031682378653       -0.45181089145026        7.62393481016696
C            2.01040183440140        0.90264756301301        7.50949952736498
C           -3.67713925783691        1.43870263588361        6.02734732881093
C           -4.68560222730242        0.54393116586823        5.87506164184763
C           -4.59670805703768       -0.87463582349317        5.67845735526176
C           -3.31852938080497       -1.37160921373491        5.79381308245060
O           -4.01128353870294        2.79229075706819        6.41688412725629
O           -2.52361591967870        3.36474300113726        4.15472509523826
C           -1.07972777596403        7.22740243238698        6.97798693045504
C           -5.74573472306079       -1.79660088908442        5.66831191687093
H            0.65127699660372        5.21341376665751        7.87577784774458
H           -2.58127438799927        6.09516112940933        5.20419383743268
H            2.80070521542227        1.49523198995069        7.86998173368176
H            0.88774666701011       -2.25613479035189        6.87592116972467
H           -3.27308621842841       -2.35784267269345        5.49576545119018
H           -5.74395240949649        0.62932797139104        5.82053291691801
O           -0.12526449006085        7.95677245463916        7.11772510967669
O           -2.37366047715489        7.64658522665415        7.00269297029470
C           -2.26333694070911        9.12803509032346        7.85672669785416
C            3.29920391323187       -0.93042840710374        8.18134567991377
O            3.82354628291191       -1.99730444929378        7.99670985016011
O            3.93495019360154        0.04407173534016        8.96824161498876
C            4.62722983821575       -0.66450504653216        9.91103990705947
O           -6.62392132182830       -1.67842949498331        6.49760726015718
O           -5.72568141468291       -2.84278178846052        4.77182222047667
C           -6.70149571070437       -3.74402586305218        5.03808342134340
C           -4.11397642697551        2.88162625798842        7.80350904353176
C           -2.58092164575570        4.35773791247921        3.03624519584172
H           -6.91216144086802       -3.87398938784312        6.16940872740446
H           -6.33311009551594       -4.69021857917488        4.71366443190513
H           -7.55948007013529       -3.61918195403112        4.36347457377379
H            5.42902042601771        0.00390992792689       10.41460878388372
H            5.08020411110093       -1.54318422742507        9.35340821245377
H            3.84186024486285       -1.15528292185044       10.59654801336671
H           -2.68919792889398        5.40315247505353        3.44096781864985
H           -3.53164559112287        4.21391476140395        2.53633745524434
H           -1.69093322009985        4.33105241303957        2.37305145803181
H           -5.14704527123674        3.31311551443647        8.00139003948356
H           -3.41971909810500        3.57395588539185        8.24881509729076
H           -3.73805052852292        1.91098877520333        8.38525934707686
H           -3.04463951678360        9.75220647179816        7.59347495073374
H           -1.36903163808910        9.40916383742076        7.39812336902354
H           -2.01281231206776        8.71621860423891        8.92210113040759
116
 energy: -22.568749514416 gnorm: 0.520515092914 xtb: 6.6.1 (8d0f1dd)
C           -2.95005486412272       -0.96491863496202       -2.55895321708027
C           -2.43912465899987       -1.47816664205162       -1.36096988389272
C           -1.13451970271417       -0.88219564191343       -0.87649510860894
C           -0.57634405050168        0.11615537522400       -1.74721720640666
C           -1.20158953913824        0.67194456195298       -2.92387490427951
C           -2.35401297989416        0.10399155070050       -3.25900407999312
C           -0.45445767755052       -1.59905678131788        0.22756048383239
C            0.92034368016650       -1.29937955409224        0.21267814843224
C            1.46802097615007       -0.23377616046149       -0.55537899635005
N            0.72039641676581        0.39111461175262       -1.49362735813649
C           -1.03835131394182       -2.12807746946411        1.40296899081707
C           -0.02611489475807       -2.74833301229184        2.30665513187419
N            1.29930678352707       -2.86377578935859        2.06866582017684
C            1.81040077298274       -2.01999026427554        1.05875083774668
C            3.14823255856986       -1.80691485668707        1.20823869980776
C            3.65295983671094       -0.62064005274349        0.53622027159682
C            2.81902295419646        0.04361315081969       -0.39834858251431
C           -2.39772435342829       -1.98581150225922        1.95034099682743
C           -2.89763175957610       -3.01086619544694        2.73780393630572
C           -1.95409357175021       -3.92010422207934        3.31037137095837
C           -0.58270467008188       -3.58813784665739        3.26105375711859
O           -3.31947057401747       -0.92478651040511        1.65825270641899
O           -3.03640272176338       -2.44707818952517       -0.69845430825588
C           -3.08878422985238        0.46190630494273       -4.45228650246947
C           -2.26553754051658       -5.12426105991061        4.19289696474774
H           -0.70751768868270        1.27333840395976       -3.65270848572457
H           -3.92355750021244       -1.37973259695570       -2.96240521774098
H            3.17425669528389        0.92394558680885       -0.78791910231923
H            3.73050544980743       -2.42238016165943        1.79746495857120
H            0.29892047240024       -4.24018194652102        3.66997957654109
H           -3.83691660657333       -3.20940280719865        2.90796978942085
O           -2.38524753387735        0.29384554120736       -5.45270785204203