116
 energy: -22.928061455056 gnorm: 0.329736929581 xtb: 6.6.1 (8d0f1dd)
C           -3.31122850772930        0.79849766164622       -0.92477639677520
C           -2.44380812530352       -0.12270372891954       -0.27661132624697
C           -1.41337090092821        0.39579727573559        0.56335275196199
C           -0.89266158675590        1.65801491088749        0.27377586709581
C           -1.72665675402493        2.51431363229076       -0.49448366572522
C           -2.95444148494349        2.13954154133227       -1.01494489940871
C           -0.74098268209890       -0.43411532818871        1.49825021926784
C            0.56872586496315        0.03782116815119        1.86248088067890
C            1.03782416582094        1.29402317993033        1.50887470833621
N            0.31238977034758        2.07067427098208        0.65193736800696
C           -1.29695700510141       -1.39996043042223        2.41574187746061
C           -0.38243517664656       -2.18060797534842        3.13232615520648
N            0.91308504082021       -1.90366887689689        3.30325166013478
C            1.37712470144904       -0.74872102533751        2.81811050966982
C            2.52149331701875       -0.17739833758153        3.39379298866852
C            2.95849061756259        1.02681208890480        2.95105897606587
C            2.24288949469137        1.78498308775960        2.03503020483770
C           -2.74860936222260       -1.74497937691422        2.38401158947411
C           -3.09416315450955       -2.91614440870436        3.00571134491758
C           -2.16786021984049       -3.77788778654213        3.63251872101904
C           -0.85708937311598       -3.40495313382985        3.68547234358092
O           -3.71994433332149       -0.94984598373544        1.67726658385724
O           -2.55702603277562       -1.47241711578389       -0.57241635275616
C           -3.84297843593025        3.13357444054366       -1.60938954875544
C           -2.68769581069131       -5.03867041417370        4.30484659386931
H           -1.39666850744143        3.51251503834900       -0.76806311868865
H           -4.27662633836220        0.55105838579656       -1.33106614114542
H            2.66329581305412        2.73912661909249        1.72562431984580
H            3.05775395548473       -0.69369546277216        4.16536137542516
H           -0.24710966264510       -4.12034095424229        4.22946223699121
H           -4.11477991332403       -3.04712728052358        3.03244694615357
O           -4.21824883374556        4.03433712717988       -0.87713382485991
O           -4.44510595673734        2.90643496899600       -2.81853501752979
C           -5.44216520282800        3.83300025693726       -3.02488532025093
C            4.23586651889298        1.50004220933226        3.59165660008449
O            5.05927614697201        0.66079890002952        3.91714215179376
O            4.47001334453535        2.86385149488593        3.72605651435371
C            5.79457498613219        3.08584475587818        4.15829123132174
O           -3.82227255313510       -5.27347675879771        4.16636005494405
O           -1.85023202017753       -5.79767454267276        5.06656077253571
C           -2.55119635829503       -6.86252441382958        5.62930343183426
C           -5.07197156564436       -1.42399175670916        1.58830531863830
C           -1.33089900128490       -2.23622472573986       -0.99264499351172
H           -2.54510546830388       -7.76426885143998        4.99136022291012
H           -3.57194749219491       -6.44405511486021        5.74196173723541
H           -2.09133598235598       -7.02043774843818        6.64022264233588
H            5.72707967266424        3.46798026205549        5.10135971236643
H            6.34060091246885        3.78468702308830        3.50069950143490
H            6.17933064298187        2.03010500085905        4.19342358084693
H           -0.91862729772622       -2.57650129080332       -0.01361370304871
H           -0.49769766914251       -1.60651221708571       -1.34094446550576
H           -1.52632419730509       -2.94569707152159       -1.75361447637286
H           -5.11788846557077       -2.41810833635233        1.17520213188926
H           -5.67929807973498       -0.69619639428435        1.04301666067831
H           -5.57598832326623       -1.42383358739762        2.57928294206544
H           -6.13050215934830        3.76035386975488       -2.23272855695873
H           -5.86615610071888        3.45938329385866       -4.02668959924245
H           -5.13479557532099        4.87790991548477       -2.98314551356402
C           -1.38192942069774        3.73616555005018        2.91232598411686
C           -1.84821468128685        2.59982427735607        3.49755545445181
C           -1.05946531454833        2.05730632010638        4.60922730982276
C            0.19893954712228        2.69376791964407        4.86302140881997
C            0.50425395911860        3.94630308659851        4.28768785650746
C           -0.26031777722226        4.46998310053134        3.25072669343212
C           -1.20488993561782        0.74454293276906        5.14851520323437
C           -0.06287609782692        0.02744069315890        5.60930570802864
C            1.19208754369866        0.71421540266195        5.78882868583885
N            1.19428660993148        2.06344359410476        5.62744624321596
C           -2.41361422770794        0.07928500213936        5.25249410304426
C           -2.45851584031083       -1.32662100968547        5.60237876023992
N           -1.29466212405906       -1.98318595734370        5.89916817085159
C           -0.14475655767527       -1.32117560077092        5.98824682881008
C            0.97209270935794       -1.98958449505532        6.53157704134458
C            2.21982707914082       -1.36973967291181        6.68703967237737
C            2.30561929262884       -0.09745313075593        6.26436900324455
C           -3.73018485967715        0.71367583494582        5.25810242262992
C           -4.89964478833448       -0.06184623426677        5.21204641615509
C           -4.82617965800088       -1.39228978090841        5.46901303780036
C           -3.67144193418464       -1.98914944386360        5.67265433266067
O           -3.75568638935321        2.07705011038914        5.52067969627343
O           -2.94192434743730        1.91263938797883        3.01658762327703
C            0.21273512614467        5.50086066357994        2.34765104514621
C           -6.06660304520411       -2.17604633098929        5.80641622556876
H            1.41756699010566        4.38133362238595        4.66974005703471
H           -1.82880610647429        4.11982501512100        2.06992133318584
H            3.26888037378556        0.32655662585251        6.31721410015598
H            0.87146188387207       -3.08471526305024        6.57830423410869
H           -3.67716811065157       -3.05999292755990        5.83019634570050
H           -5.77379677507622        0.43595144608221        4.71017130754348
O            1.34459852619901        5.82615848916894        2.44941456579099
O           -0.74718748219123        6.07961784856304        1.59848183464284
C           -0.21473095568964        7.24015934882472        1.05753806029483
C            3.53228080814219       -2.00967610361154        7.02506769044485
O            3.64093082622715       -3.14437803815732        7.50071391725347
O            4.56565258381079       -1.22937033368332        6.69086985080897
C            5.72579357310716       -1.80692399125161        7.22246151275881
O           -7.04801223588612       -1.95726935745904        5.14194115322235
O           -6.01514389321278       -2.93743591896022        6.94765316328794
C           -7.21292732384718       -3.62681918543340        7.15115816329978
C           -4.95459780685163        2.65960679932188        5.86868674392943
C           -3.68284113682406        2.59129188358641        2.05479246020704
H           -7.43119628931628       -4.22607794725959        6.20622607140901
H           -8.06548455146707       -2.91765848248592        7.29781126410398
H           -7.07314693247270       -4.33087306029711        7.91223421050944
H            6.57332189837178       -1.29353136199234        6.78341268688262
H            5.74663761932316       -2.84282155125561        6.88089468184451
H            5.69426191474290       -1.72781984964892        8.29460302186842
H           -4.10481209541493        3.44288266176275        2.60483747673152
H           -4.49244774344916        1.87419893016926        1.82433103764650
H           -3.18901540870812        2.85154642679373        1.06781919454921
H           -5.55414326821421        2.76698137191684        4.93950725322359
H           -4.78658370641210        3.62090640967288        6.25983200635257
H           -5.43485580473958        1.97242995129449        6.65265772412460
H            0.89164886030839        7.38838561720231        1.13776105146914
H           -0.62894889903848        8.04195665205089        1.64837664327952
H           -0.59282546386754        7.45699159724320        0.03719083132488
116
 energy: -22.593560765697 gnorm: 0.568138770282 xtb: 6.6.1 (8d0f1dd)
C           -3.57995312574268       -0.10911499675348       -1.46614853858367
C           -2.65937303532681       -0.73822830998842       -0.66974811840799
C           -1.78117307894714       -0.14271932677610        0.17214896705901
C           -1.35832272985861        1.22640660021113       -0.13033326397889
C           -2.34643455201955        2.01308198550268       -0.88963132587902
C           -3.51724879031061        1.29907290566665       -1.42982908655421
C           -1.18774100370748       -0.73170995546481        1.34227761585445
C            0.08854794976873       -0.19155342589032        1.60247798249213
C            0.32525431352610        1.09952009343276        1.23363781715908
N           -0.53539836162127        1.95575754200746        0.60236846520356
C           -1.66112986678574       -1.94155782269209        1.97838258687089
C           -0.49959491182552       -2.64874546406176        2.53751143443578
N            0.86235525880335       -2.36276217847998        2.47579378893348
C            1.05738179781821       -1.01429769078554        2.24884137769608
C            2.28196372132957       -0.51044388113203        2.69484186190798
C            2.60079711960406        0.71909130761048        2.12666782238890
C            1.68530972429952        1.52601261398025        1.37513120610474
C           -2.91860107593167       -2.47267647823087        2.32838628670271
C           -3.14777483288654       -3.70451578263572        2.82612502347592
C           -1.96923835657090       -4.49323009738400        3.12548634504308
C           -0.63268553019098       -3.91560783020110        2.95035844311294
O           -4.05136620801340       -1.83142976399336        1.78065067376604
O           -2.56565818480912       -2.19818691825135       -0.79290344564902
C           -4.68588099864342        2.01276867043330       -1.77229576612440
C           -1.91001681594129       -5.79830477941372        3.96721942164204
H           -2.41126042226002        3.04028598853218       -0.78247913740751
H           -4.40335296970635       -0.69445498474576       -1.56731483313501
H            2.03238501349099        2.52279272912613        1.03749493007091
H            2.78783366939594       -0.74346816549474        3.73337439291935
H            0.18545058586316       -4.23380356943579        3.70176033465235
H           -4.09891556091417       -4.22756042370701        2.95206199337401
O           -4.48173163132283        3.16780866921889       -2.09131621503146
O           -5.85858531325589        1.25151093575832       -1.90529559438092
C           -7.07770278390895        2.07209275029050       -1.94151468069214
C            3.80976257371724        1.17361872863018        2.79451830352970
O            4.36901400748858        0.49603857982159        3.68017782112052
O            4.61626112239266        2.20350327393270        2.27082663037560
C            5.89774055973084        2.29236365746680        2.56018822391875
O           -2.88026946880195       -6.56773404454663        3.99544241732376
O           -0.67479128537894       -6.02924098113840        4.41438010592377
C           -0.82948693120170       -7.10029079041196        5.26090748720069
C           -4.04606566475556       -0.42737152510755        2.15788010232445
C           -1.83555559420331       -2.60094716508550       -1.95358730162175
H           -1.47691318287168       -7.87540118293726        4.86288629827792
H           -1.37721239683339       -6.52125719720592        5.98899666086935
H            0.15987598591504       -7.26527775012634        5.53651154368853
H            6.51460825970196        3.06069602050433        1.96285127227962
H            6.14967123183648        1.23062989231202        2.90242343765619
H            5.85399430609076        2.65351417636238        3.59288456576678
H           -1.01947439953292       -3.27986455621215       -1.72615321511179
H           -1.78164513334131       -1.64929036511682       -2.53057842275868
H           -2.44865673015786       -3.06755480234337       -2.60231892165883
H           -4.14040358238706        0.08752444016426        1.20169941493920
H           -3.06088347610669       -0.10627230939135        2.68458167713877
H           -4.86012905907963       -0.26266815203284        2.63602835348743
H           -7.54383788272477        2.19774126244584       -0.89922965134565
H           -7.75621262205380        1.80271857863903       -2.77147813644013
H           -6.76562097656987        3.18393069863259       -2.09493838946980
C           -0.89534810282644        4.14481388573252        3.20006042919158
C           -1.29900668989341        2.89967093210627        3.67758661894927
C           -0.50835749516178        2.22553698917402        4.69838653218379
C            0.79135360968219        2.67693669954501        4.78817488847595
C            0.98415948653107        4.13277685146477        4.68262390239795
C            0.21869458294571        4.75328550998271        3.71262846793527
C           -0.88166295105107        1.15554970595304        5.54608429692574
C            0.15838125453413        0.28278978618695        5.95151630881340
C            1.45477801627975        0.75453152993338        5.88954003760974
N            1.79078593515152        1.96424214638461        5.33274069547902
C           -2.23456672068169        0.55658530370206        5.76982936345238
C           -2.26592031063960       -0.85248365259296        5.83584636876738
N           -1.25368960000554       -1.69837716611270        5.90470880673310
C           -0.05970383951002       -1.14008844554503        6.24605711719921
C            1.00200368274113       -1.76100580313838        6.93990981400012
C            2.19195562521319       -1.13101505398276        7.22132060015315
C            2.56268823485874        0.09420465036310        6.66892486546356
C           -3.36458174534247        1.35363305586476        5.60312051653546
C           -4.58603052947365        0.78725528742116        5.61884099539711
C           -4.79585233475654       -0.56098272297102        5.60607585810871
C           -3.60957973502479       -1.32250211612151        5.73631371048298
O           -3.04103883323339        2.68129700056070        5.60125833523587
O           -2.27382006022101        2.21081156935769        2.94078335159373
C            0.36516138956199        6.21229622094266        3.46004685708427
C           -6.07121423129197       -0.81865243367891        4.82800063274913
H            1.86907785957212        4.62697267071471        4.94995757205379
H           -1.45313578598993        4.77985067624490        2.56752309969180
H            3.51124109614639        0.51784535111531        6.90279207768931
H            0.90290240197384       -2.67051484066483        7.54598682000194
H           -3.54793844149621       -2.29067350162951        5.20064586772672
H           -5.41708097249790        1.39421607821918        5.10230399730809
O            1.38927764052624        6.86620100983860        3.01837158671627
O           -0.80523546993332        6.93258548721998        3.51352856542013
C           -0.72274609348192        8.23274625734316        3.04112485198253
C            2.82218599364110       -1.69017460071954        8.40270014836609
O            2.21707086608898       -2.54798113853224        9.02032837011831
O            4.02107227186298       -1.09980792107033        8.65214930833024
C            4.68604981643417       -1.79468610720074        9.72480179133182
O           -6.68144461059977        0.07281475547836        4.21508445877085
O           -6.32075554415528       -2.08311043651433        4.61994708938237
C           -7.49477042264259       -2.21347678755425        3.98595428170172
C           -2.85727947515955        3.03233544642973        6.98629178061437
C           -3.32571819624825        2.97229554950864        2.71659333943541
H           -7.57177426257146       -1.43238903490084        3.24573522786108
H           -8.29912405808671       -2.15227958480037        4.66315495738823
H           -7.65164586397811       -3.26327413450081        3.63330875756249
H            5.66488405399239       -1.95994371213227        9.37478075736799
H            4.52994589051948       -2.75995247137861        9.74052428398804
H            4.79975679177031       -1.13918138356584       10.64823425977560
H           -3.65971611463189        3.36049086729268        3.63947358839154
H           -4.30096630336968        2.41932222871475        2.51199986274686
H           -3.37645085675873        3.86758109956883        2.04999706409822
H           -2.76591382150624        1.99345614797484        7.62627744911745
H           -3.67860238177993        3.81713704302797        7.07865462600007
H           -1.87426846126128        3.54967137192468        7.07635128014325
H           -1.61405014636978        8.68919514517976        3.02178203920049
H           -0.31253903248368        8.33646348958391        2.02560217547363
H            0.01659899673854        8.69215688142122        3.75270561635866
116
 energy: -22.597521227474 gnorm: 0.609650126393 xtb: 6.6.1 (8d0f1dd)
C           -3.53874206513321       -0.58760518263098       -1.37586262566754
C           -2.62366213271176       -1.20584033316629       -0.46756466313442
C           -1.78132528577136       -0.22794305304191        0.18770182579505
C           -1.47262046769116        1.05270878578679       -0.31888780709737
C           -2.18016888962698        1.52550289210167       -1.46213428105277
C           -3.18648679224218        0.62795609563989       -2.05904422728425
C           -1.01121152245468       -0.69679931242165        1.25148392051586
C            0.17007988995648        0.08830562128437        1.65464810102148
C            0.60931961212028        1.23162611296596        0.95200017916273
N           -0.37353701403370        1.70905228224015       -0.01414653051058
C           -1.42404909566638       -1.62871980633768        2.23745501491999
C           -0.34892826015534       -2.26990345140616        2.82970232283523
N            0.82638441978219       -1.75878085273887        3.12983278802668
C            1.12922024192073       -0.51667684718832        2.50612985718044
C            2.21156833866819        0.14097066179448        2.89993564769581
C            2.36731523976329        1.46636974203179        2.32197532088219
C            1.63011171412856        2.04502280022106        1.37258494359445
C           -2.77562172796737       -2.14051808442549        2.50776904832901
C           -2.96895302980945       -3.38937930528967        3.13907032986041
C           -1.88775792913796       -4.20677539680162        3.44901617093334
C           -0.61351368247404       -3.48389130207609        3.36084132754463
O           -3.90462835921591       -1.35495119726445        2.21844122549247
O           -2.46261900630566       -2.52548713701545       -0.62592330251827
C           -4.20447541301885        1.29554836945771       -2.92625022048353
C           -1.93197359430108       -5.76795119211033        3.71787124929597
H           -2.03608965732217        2.42086975023766       -1.84666683474607
H           -4.34762150713579       -1.15060886285457       -1.72214128304339
H            1.84360129844700        3.05312278481374        0.97487325895390
H            3.14690144405284       -0.39368575369301        3.41071233856493
H            0.17254395421189       -4.05803742993090        3.80894004647256
H           -3.98024182265502       -3.69019554286474        3.32758480972877
O           -4.19053783986317        2.47398192722153       -3.20163348780454
O           -5.24132774694587        0.47024685369302       -3.36216105617988
C           -6.43077294142188        1.03325647143096       -3.87791978540026
C            3.50920864191824        2.34055007533588        2.91236710576061
O            4.12259212408533        1.73774073185115        3.74272594151361
O            3.73388843897052        3.65576771299647        2.46907535959711
C            4.96589055563253        4.18056558300935        2.73879900235897
O           -3.03459339559328       -6.42009793820427        3.82300340084155
O           -0.71813584408089       -6.21417684349365        3.90834897392679
C           -0.68428268766202       -7.61054809218908        4.27048814092749
C           -3.73413175511857        0.10017455950665        2.42399969855552
C           -3.74142376023414       -3.17315647990396       -0.83718830654169
H           -1.28542630244875       -8.06846909496527        3.50424167915736
H           -1.25607671043166       -7.73977678674935        5.21639088539103
H            0.37314939084307       -8.01003854727217        4.37661107218454
H            5.49184084196161        4.21815384824341        1.66750096267905
H            5.75493548462223        3.54106652489015        3.14480345047999
H            4.66287460123517        5.14440697507542        3.30838184552184
H           -4.39094514997692       -3.31012408457706        0.05462635881230
H           -3.38016867390559       -4.34103187581074       -1.38022633335822
H           -4.03242516097117       -2.68105139132080       -1.83175142143535
H           -3.34481671539080        0.61974510672251        1.47994975414429
H           -2.75056674006118        0.07361500153673        2.99577705457055
H           -4.52834242419992        0.53314382543430        2.98525685752696
H           -6.71550121474815        0.46463680854648       -4.74336393276799
H           -6.09992298159728        2.09397243940176       -4.29695041385121
H           -7.19034117213837        0.85706353368136       -3.11781040209314
C           -0.68339919943548        4.42203105468821        3.62447644267344
C           -1.13982229458313        3.17285051529263        4.08112793168897
C           -0.67656639057150        2.53245409604695        5.24345165373273
C            0.50881248690066        3.05748388547787        5.85453673251310
C            1.03096382198812        4.24426165307810        5.48437839463088
C            0.41722773646102        4.91175047746886        4.39191940928003
C           -1.13848884712007        1.20683471224749        5.68091446067872
C           -0.03749970558699        0.44199147283924        6.04414122792747
C            1.28243961708329        0.96778710532177        6.52351275207322
N            1.35893623351271        2.28649010975024        6.68046225675923
C           -2.46876062216295        0.63834479848874        5.55275203290530
C           -2.59846315706162       -0.71528435858917        5.45490809458371
N           -1.59525745930674       -1.48667799395307        5.85255315842994
C           -0.33619194091871       -0.95176466522740        6.03636862351300
C            0.60162924752572       -1.79297440578902        6.68379090320480
C            1.71063442856097       -1.26424793156954        7.25657462078491
C            2.16752030189425        0.04754773424066        6.98106585870398
C           -3.70832449053538        1.47017086755821        5.75286877153436
C           -4.93969249724149        0.84499103486613        5.50546056292191
C           -4.87737352368637       -0.51671379563885        5.44322972828186
C           -3.79746975837759       -1.40493052676515        5.41643562138415
O           -3.69487295487747        2.81593645434394        5.97158885109797
O           -2.21789766679626        2.65942889882359        3.42817087617395
C            0.87521174495019        6.28761623541822        4.00100967258321
C           -6.24635256653495       -1.15265961612079        5.50429426319118
H            1.81187823998313        4.84220035354925        5.91609714650382
H           -1.20356757791835        4.96175413366070        2.82074219317253
H            3.18664563750947        0.43918807751710        6.90610405169498
H            0.22023976439045       -2.84222756081376        6.88309270963851
H           -4.04016527845302       -2.42616494641261        5.64715490955188
H           -5.86956354357041        1.50700535648107        5.94560328251589
O            1.06552525177688        7.11117331110688        4.88023255331278
O            0.99575090025485        6.54249182629064        2.54689208971236
C            1.93769637977858        7.47484949530569        2.18597746962701
C            2.64094863771146       -2.34721068387835        7.74033722397991
O            2.05876067540119       -3.35092789768825        8.17930851205578
O            4.00350463715045       -2.03474226323627        7.55793406579263
C            4.85276973041918       -2.99541500445994        8.05660117425854
O           -7.22087243794248       -0.63614599510180        4.99337543662768
O           -6.19328050653011       -2.39177850436633        5.97594636653981
C           -7.52568767815777       -2.93207922066550        5.96914744767874
C           -3.18991616699646        3.23492862460109        7.07870545386841
C           -2.93625168749740        3.38724114246385        2.36840580959997
H           -7.61683387551738       -3.73266334114235        6.55053387854352
H           -7.93245987103930       -3.01647306545586        4.99517623476157
H           -8.18312591590946       -2.08776077796568        6.33354602052313
H            4.82341704447933       -3.88986285945795        7.38696370701896
H            4.42821692627067       -3.20498208306062        8.92143507463926
H            5.94857640578389       -2.73927336209585        8.00362819024868
H           -3.52625928876648        4.15417002730091        2.65006173355147
H           -3.65845728083568        2.77438241307997        1.94562221536135
H           -2.20152342358505        3.47691003609933        1.63204888386720
H           -2.10899629815824        3.19070048698112        6.97440091236458
H           -3.47752811714249        2.47087950074089        7.99280198159272
H           -3.28997396823543        4.33261129607540        7.15980112019995
H            2.30640040982500        7.70324894945007        1.13218765957198
H            2.74886876621557        7.28989332926673        2.72939850196677
H            1.38228683813017        8.41388632701350        2.10186245221462
116
 energy: -22.656920340011 gnorm: 0.545982987270 xtb: 6.6.1 (8d0f1dd)
C           -2.83310639369474       -0.19461614364765       -1.98830177472923
C           -2.47677412545602       -0.60068829815901       -0.79199940374611
C           -1.82231124514398        0.15520465233235        0.21158030320370
C           -1.68385179845623        1.57712116770997       -0.17391339184751
C           -2.28673502004660        2.01890400676206       -1.41021387565373
C           -2.75398800556355        1.15495198731821       -2.33731161141407
C           -0.86536382948580       -0.40007035896873        1.27395293149644
C            0.19690124814221        0.54009307216347        1.65384690351331
C            0.16352666051757        1.85061568375479        1.10764246983449
N           -0.85672064524018        2.49825257221012        0.37919583319306
C           -1.16616621155541       -1.53479206552576        2.19331165846914
C            0.04191742478869       -1.83419627887349        2.98652157355567
N            1.15165018553071       -1.16004043763954        3.16518031722385
C            1.22866618552313        0.08798748081383        2.57239546812442
C            2.23257206563472        1.00732963505312        2.99059005990971
C            2.29501481123876        2.17075154183557        2.33970686261935
C            1.36562038744430        2.57150462544401        1.43558755022484
C           -2.45971851337274       -2.11468736165112        2.22568447191804
C           -2.66506826277262       -3.30806291190968        2.97058382979825
C           -1.41602052811601       -3.84888892920549        3.44709006043250
C           -0.20466576017077       -3.13741704927812        3.53766191077737
O           -3.66666924018846       -1.61210090060099        1.68955334842886
O           -2.25277742620487       -1.88466798340939       -0.33623668614926
C           -3.09518024110160        1.82551995814553       -3.64106936042452
C           -1.66588623519017       -4.90681588918524        4.55026276427126
H           -2.43426426999178        2.95007851423903       -1.68724874769952
H           -3.36711016134403       -0.82107818542461       -2.64650975679411
H            1.91590636464114        3.14806524491756        0.67243681819663
H            3.10157725973470        0.54778309861049        3.55005569703585
H            0.60883411966233       -3.61020670910806        3.97546952252696
H           -3.66478785565435       -3.80428353527747        3.08946272475837
O           -3.19223131135224        3.08977824361522       -3.83209912194053