116
 energy: -22.853319400722 gnorm: 0.425219411243 xtb: 6.6.1 (8d0f1dd)
C           -0.58902160652011        2.51912538385972        0.16174908726760
C           -1.19794911565676        2.54465788917142        1.38674957442031
C           -0.29442841939153        2.14172506110869        2.45083988578701
C            0.86885057791913        1.41145510524467        2.18936118857969
C            1.26854722210328        1.29425061757472        0.88972333203511
C            0.68145359689919        1.98485040734422       -0.13028044631024
C           -0.62917032599784        2.20770975987732        3.88546102452013
C            0.00561113223160        1.34879868078799        4.73599221290348
C            1.26507524893926        0.74094769873891        4.31100431899872
N            1.71186871493559        0.75429572310208        3.08068542029371
C           -1.62633233260476        3.10186458011621        4.42823534386723
C           -2.29781301316165        2.52643685828287        5.54729804942888
N           -1.66094699567462        1.65338992968923        6.43102941031868
C           -0.49117789721198        1.07961551312102        6.02722573369596
C            0.17195815728654        0.28806540438038        6.93123835907806
C            1.45702676002765       -0.27051538485431        6.58715543361621
C            1.93860891450836       -0.00238373535036        5.27834328140076
C           -2.02878152355694        4.32959670415907        3.95923507908361
C           -3.28749771078069        4.83901904863332        4.29964713134000
C           -4.02806777266453        4.18436573183715        5.31318158345746
C           -3.52747205796547        3.06885893945107        5.96422512975779
O           -1.35295444090059        5.05927767961933        2.94607492526889
O           -2.43995100109154        3.08375848360299        1.58155260003884
C            1.07497482313284        1.64479633703837       -1.50446600720758
C           -5.18145391889253        4.86795465224882        5.68833337692621
H            2.03083775177340        0.70731987768713        0.45153321224426
H           -1.17665440255973        2.85247030747762       -0.65504544757066
H            2.84293027707807       -0.46437832605456        4.94324836232355
H           -0.31030824695576       -0.03714437042212        7.77224076276750
H           -4.16257723750596        2.65730108097491        6.73799519770984
H           -3.70551415048220        5.65934601770658        3.82078182122931
O            0.31076680650641        1.97591700802039       -2.41789894932118
O            2.34911555356540        1.05285096218957       -1.79397765193933
C            2.55311730646041        0.59907198432895       -3.16986401610256
C            2.33034741588411       -1.05705423368869        7.46596823296645
O            3.38122243697158       -1.53967862625694        6.98101312599990
O            1.87590220652632       -1.10132002577897        8.81239116310846
C            2.80099140834957       -1.74035352587226        9.59689691297584
O           -6.09579166030702        4.37568233146618        6.35834110597658
O           -5.27737020863901        6.17149045054555        5.24227714714505
C           -6.40835084306616        6.82740568532883        5.83406441608673
C           -0.03797506902418        5.55097200811884        3.31778522844113
C           -3.16685695431495        3.69964383553648        0.51196033612991
H           -6.76075204482316        7.81075209724145        5.44398817575624
H           -6.06449308737456        6.93642494532284        6.89789220862127
H           -7.31377389201803        6.19588051545773        5.95164473953238
H            3.79222180784353       -1.30483486424067        9.30303345712676
H            2.86228990119395       -2.87190561261381        9.47846369348304
H            2.54106542862946       -1.57625754927045       10.66181644504920
H           -2.87951783133308        4.76248283037108        0.30071417560522
H           -4.20113813609808        3.77249764794117        0.75596810567825
H           -2.97973158314389        3.25193267072670       -0.40885175188669
H            0.01995245800783        6.64384851455793        3.48560985653373
H            0.56532700427359        5.47296749768679        2.29822283510217
H            0.52861497529788        5.06115494476073        4.06874872188602
H            3.50692460780131        1.02536246118436       -3.58979485785009
H            1.65044519537781        0.80172957357070       -3.77393861783610
H            2.82172919814228       -0.47572387802967       -3.11379704320775
C            1.28831795834673       -2.53410416546238        0.78741003188605
C            0.51733566277574       -2.33009355716324        1.94122051526944
C           -0.80872796368657       -1.95531752221973        1.70803125646304
C           -1.16327607129285       -1.36174852179964        0.42951351553574
C           -0.29558906297457       -1.53589609417114       -0.71186043072260
C            0.91433923956404       -2.16687847024952       -0.46873220796076
C           -1.72538473256802       -1.82736117740600        2.84436514662358
C           -2.77841365569043       -0.87992174635171        2.66083479189581
C           -2.94110693058591       -0.15887654441047        1.39256046336138
N           -2.15973829880126       -0.46523140458703        0.35379033019545
C           -1.61291877506955       -2.48916588649836        4.11544287018923
C           -2.15642049528981       -1.70984617690551        5.16640616194840
N           -3.10883700031442       -0.73464537014429        5.06747854482618
C           -3.54570552203485       -0.48662752708734        3.83340088617751
C           -4.67174050365242        0.33535094168753        3.56679209206315
C           -4.88192933552904        0.92180099573052        2.32260662316767
C           -3.99358025426513        0.68260726067684        1.23465828252990
C           -1.39485770750278       -3.84489945172758        4.34179755128732
C           -0.98978530336516       -4.24254044427662        5.62427814057836
C           -1.17933229476917       -3.39574500198843        6.66310141036999
C           -1.77529540559902       -2.07986260268702        6.45723824681987
O           -1.46847001879715       -4.78302287796707        3.32343605042718
O            0.89612933084962       -2.65791380607833        3.28600927775062
C            1.74803895805830       -2.52847874621497       -1.66716690235542
C           -0.88011515102834       -3.96656725502664        8.01150706926712
H           -0.44788984614232       -0.91927474404947       -1.65635101173249
H            2.31572803684897       -2.84879139498352        0.92974810168047
H           -4.15273692352478        1.19014293390937        0.26998046050670
H           -5.28866154390962        0.62606872325543        4.40746524461455
H           -1.92445716953771       -1.42135992395933        7.30584681727944
H           -0.81348871097343       -5.32292326565218        5.87004178685636
O            1.44397518229570       -2.06422721534850       -2.68947521571663
O            2.88462583214299       -3.24923011390695       -1.33559760066878
C            3.51630698472603       -3.59587554486666       -2.41974816463418
C           -6.09114258885828        1.85884725158552        2.32801855482778
O           -6.05207625029158        2.78940571914136        1.53733442730332
O           -7.00383899369158        1.75758240510478        3.28723085223514
C           -7.95320939112251        2.78712024674311        3.29284132212914
O           -0.14467907422580       -4.86444437906287        8.17719876730592
O           -1.48486392099587       -3.12666930536606        8.91160908342970
C           -1.30143677196611       -3.55064143519358       10.18619193320015
C           -2.47260060101794       -4.76826307740307        2.35712868179001
C            2.21889165175307       -2.93833784507195        3.66378136216194
H           -0.76149691853173       -4.47564458568362       10.17608425860918
H           -2.10775506076315       -4.02686541961635       10.67147377627801
H           -0.90549741664513       -2.64928093876310       10.75879409032095
H           -8.18257874802509        3.11453128869560        2.22761750234986
H           -7.51935275917471        3.71355947454469        3.74581949348079
H           -8.96886225477316        2.71912953553545        3.78833573737123
H            2.27103536605699       -2.56413865025609        4.66400904045937
H            2.93643652673063       -2.43969077404684        2.95113311251557
H            2.36698759730062       -4.02916873793360        3.59111992939781
H           -3.43368160871136       -4.73954366029830        2.90388660768814
H           -2.39222496002304       -5.48037152422914        1.52691887767065
H           -2.66190010681691       -3.74466750284942        1.82006957768532
H            2.74351294068289       -3.75576069301590       -3.23962775837250
H            4.10741525202389       -4.45911792442341       -2.01509531921945
H            4.15123937377352       -2.65126997496079       -2.45882641309566
116
 energy: -22.698461335955 gnorm: 0.527874910716 xtb: 6.6.1 (8d0f1dd)
C           -0.86658180039510        2.86140951975972       -0.30501633931923
C           -1.32971954800376        2.82007032144288        0.99692938900192
C           -0.47667116426247        2.28955439840431        1.99460683024106
C            0.68788483728502        1.53612803909020        1.60631283239655
C            1.05157812321593        1.73035322056716        0.24301316089130
C            0.26864579957785        2.33839662858445       -0.70610082008281
C           -0.88190785623431        2.37467830249308        3.40828645880613
C           -0.20212584754899        1.47015617590906        4.22847717467217
C            0.99073712492526        0.75970941271454        3.86611430129368
N            1.28511889938003        0.72081083659728        2.53457992337739
C           -1.70484868876057        3.37072981265238        4.15398791089466
C           -1.98751419210767        3.08779048168319        5.52170380190904
N           -1.37769001242386        2.11250116299514        6.22677398510777
C           -0.54198636142638        1.30875619984837        5.62085130505227
C            0.05107559693420        0.38274295063138        6.41307351391039
C            1.13034380992519       -0.30908197400072        5.96741386357709
C            1.63394326837283       -0.11719426444849        4.71659013379643
C           -2.08861758611657        4.68459493736726        3.55167566266961
C           -3.19660753552556        5.27920434938683        4.15067707855465
C           -3.59285028719853        4.88408835287658        5.41384538769055
C           -2.96122455206842        3.94586204396592        6.16956973236221
O           -1.36201975325079        5.29688188093223        2.50731415078576
O           -2.57997099014063        3.36647411648343        1.29017249016272
C            0.66956362026843        2.72183921962605       -2.13049885770874
C           -4.95281371219747        5.41797197683603        5.79734985568985
H            2.13383602764091        1.53310581151763       -0.02859248054412
H           -1.38381792285892        3.33580725708187       -1.13296435812515
H            2.14556554756284       -0.94843503916000        4.19341442241447
H           -0.47554401801663        0.01820620897126        7.25935361826926
H           -3.40604505436534        3.70885520789691        7.05493359150514
H           -3.73975458163132        6.04891431008856        3.72712369398385
O           -0.10999562617369        2.62509549087111       -3.03156940588380
O            1.88516066422378        2.98355942375919       -2.53481992613169
C            2.14129868270146        2.78389477226870       -3.94882016904100
C            1.62135866300635       -1.54197585192004        6.79330318933938
O            2.41436566262891       -2.25326257402367        6.29722377559553
O            1.03007726076678       -1.84897212750599        7.97385219315950
C            1.63868277252371       -3.04120319717740        8.58978069604964
O           -5.31390615562013        5.30153245433424        6.90778774353610
O           -5.71976082316187        6.10780295165507        4.87673418639838
C           -6.99011645987388        6.42317469299858        5.17461259476360
C           -0.04591509017144        5.25051849550252        2.52024738320574
C           -3.14670103378869        4.21837361713994        0.28307263789784
H           -6.93939685226689        6.89064649473305        6.14952644986395
H           -7.57322360149611        5.40525394302448        5.23260875380341
H           -7.38958820897033        7.06387193818479        4.41861317996380
H            2.17559739632828       -2.61671571309795        9.40549348750818
H            1.97627996579276       -3.61952348293350        7.78344646012848
H            0.90481640598573       -3.56754087757356        9.13330938529492
H           -2.49745829294943        5.02760384799082        0.03921181970608
H           -4.05174477364638        4.32739203630111        0.74165826710036
H           -3.38285394553931        3.72542904079317       -0.52899913972279
H            0.38955448392588        4.23382267845451        2.31436872462551
H            0.21797533898970        5.53219541346197        3.60116337609944
H            0.15253335091640        5.83414985569937        1.61821097161191
H            1.61803475449370        3.53850263383151       -4.42082419641832
H            1.63881205727596        1.86699765367673       -4.24623514100104
H            3.22019238466018        2.73594713775996       -4.05721573051298
C            1.52401693422761       -3.03888661452475        1.19376839842176
C            0.93456288123381       -2.59137130617768        2.39298978727332
C           -0.31340128299060       -1.94245685580609        2.27664765088662
C           -0.79076672344704       -1.51941517965225        1.00976307735867
C            0.06018570370739       -1.76152331022499       -0.12450168303469
C            1.06412259096875       -2.63795770881818       -0.05385909673060
C           -1.11452389990187       -1.81945758100801        3.46685725889708
C           -2.08777882808325       -0.84508393509738        3.22577200634727
C           -2.41241083828899       -0.28531674397681        2.01298895433099
N           -1.77836261270260       -0.61033085418091        0.89178918699851
C           -1.23674479181567       -2.48674576392093        4.75234262408453
C           -2.17881283833349       -2.05102961949204        5.88075738197444
N           -2.98154495938919       -0.97123428062302        5.60593830999851
C           -3.04534393507222       -0.47788727625089        4.31515975482404
C           -4.13337835749519        0.40805653586941        4.14159936239766
C           -4.43820399949088        0.86548818175539        2.90328986326201
C           -3.55728168757558        0.60411582734281        1.90049194585006
C           -0.71999659322352       -3.82197160131298        4.99261648535108
C           -0.88337175505566       -4.41647045218289        6.22983223796573
C           -1.51707349176406       -3.71594374227272        7.34074601583669
C           -2.29088228046996       -2.63715587630306        7.15457013177217
O           -0.29521819687804       -4.83843569903739        4.20349912761127
O            1.42377708559662       -2.76102223915114        3.65853253911261
C            1.80172868936330       -3.12564608081949       -1.24573923517031
C           -1.47947031078094       -4.28842129290549        8.72020735786317
H           -0.12581014136853       -1.10998895472961       -0.96041459225593
H            2.48387262356180       -3.52991681130462        1.35831691552839
H           -4.13788893842293        0.94386764843808        0.93975149636650
H           -4.72146365609177        0.55979192248871        5.03347028113243
H           -2.55610595193985       -2.14398048501754        8.03336142188664
H           -0.40968431611578       -5.37247787353404        6.36592587483227
O            0.99420066834469       -3.41404762490118       -2.20289903410387
O            3.12652189742404       -3.39089514344282       -1.27855136834275
C            3.54890601583378       -3.07502422516027       -2.64306314423663
C           -5.57550548809867        1.86132210478217        2.52579202221996
O           -5.67825327725164        2.31083272072495        1.45183853073437
O           -6.37738205363444        2.15959265440750        3.65282541275626
C           -7.46695778731591        2.82687895911509        3.20773445610687
O           -0.42377238404183       -4.84652233843661        9.12444592182074
O           -2.61104406943395       -4.39648236875366        9.44391314573270
C           -2.30838901077195       -4.93711179939044       10.72759122837959
C           -1.41728825223254       -5.13092955357035        3.40279953173414
C            2.88711092912810       -3.23757205807990        3.67153678949048
H           -1.84584598840228       -4.15708324461379       11.23520358205030
H           -1.86861755575340       -5.93567312483079       10.16274317464038
H           -3.33859220059234       -5.18844448462111       11.20176730403347
H           -7.77751808647456        3.50097379810725        4.06529757378539
H           -8.10189618069653        2.02722114023696        2.81227160451384
H           -7.02565695493964        3.46038386973256        2.46303275136736
H            3.09348735404965       -3.31316581167651        4.67319298695504
H            3.38615782736405       -2.37651308608233        2.98687895125272
H            3.22355100309881       -4.20040675593167        3.16335654343090
H           -1.43786774733554       -6.13432670408346        2.86852878605107
H           -1.22944085755503       -4.36505620192087        2.53041229918264
H           -2.22914387702375       -4.69934047630186        4.10116414146820
H            3.64938477820688       -1.86214109752478       -2.81687264649377
H            2.77207616044467       -3.36730908944699       -3.47519804958209
H            4.55155556785300       -3.55639788339003       -3.01523726149724
116
 energy: -22.785276759544 gnorm: 0.465450347721 xtb: 6.6.1 (8d0f1dd)
C           -0.97032458702235        3.40988163272707       -0.50138429375745
C           -1.56456967631277        3.18199686447373        0.68377749384635
C           -0.82318254960729        2.52066478036830        1.75488495943893
C            0.50738455028884        2.12920156563348        1.53721407411420
C            1.10076363674438        2.36840941642981        0.28885928380800
C            0.36220074293117        3.01379127336988       -0.69898600520753
C           -1.18871889058838        2.49772888808681        3.14893954036505
C           -0.47854948233337        1.67921057175016        3.99910268076227
C            0.65758055284727        1.01991309785359        3.56571869297165
N            1.32135923010420        1.42145084761926        2.42293832245329
C           -2.26900939047885        3.33951069564243        3.61985346348010
C           -2.78932548182567        2.98270517381357        4.80582831715528
N           -2.16445114860146        2.02531024599735        5.59127271449344
C           -1.10489907879303        1.33053728734188        5.19198058828412
C           -0.53062829069918        0.37773525102504        6.02503175788291
C            0.69903782099784       -0.15027438518825        5.63114112759274
C            1.19944023145697        0.10583220201062        4.39180139159543
C           -2.59340969685546        4.71744315141750        3.25371155771178
C           -3.59763131089961        5.44906946175133        3.83350041500182
C           -4.03697203924724        5.05683137102141        5.07087567686992
C           -3.69413352139029        3.76913318475640        5.56469374117300
O           -1.97535385596550        5.37281336227580        2.16421239892169
O           -2.88696354368384        3.21169811017371        1.16715777181288
C            0.84262551601043        3.03897199121018       -2.09960554658787
C           -4.95323220896174        5.99344505986124        5.81201016044331
H            2.20579900817054        2.13484660765743        0.22745249310600
H           -1.54873007685761        3.94054761958752       -1.25515753807741
H            2.01282184110355       -0.68677512482214        4.15182008387715
H           -0.87974666348951        0.33568054121223        7.05883149185383
H           -4.07798942645576        3.32524517972536        6.41705446394048
H           -3.81598941805144        6.37006643278559        3.42079843361462
O            0.54754539229938        3.86635074317819       -2.95596971841461
O            1.90741056366176        2.16647029069199       -2.40760533716348
C            2.47280997751382        2.31753681252749       -3.68556084105409
C            1.59524562413120       -0.87727777713423        6.48226829021521
O            2.81208042985517       -1.03049779185778        6.27211399516683
O            1.18908331378218       -1.34165848663339        7.68547781944806
C            2.26286990865375       -2.04417294884091        8.26501690747722
O           -5.81137722626877        5.52976006817885        6.57589474727790
O           -4.86510207109981        7.30229410622856        5.54986329027107
C           -5.86353980255132        8.12296827636310        6.23430978354155
C           -0.71896024986874        6.00428117088215        2.59265781965093
C           -3.84615877522491        3.09485205618224        0.13353366221708
H           -6.35008232345538        7.53930753454405        6.99976566332693
H           -6.61992750985908        8.58856968284027        5.61852645739383
H           -5.31963210872472        8.96092491389078        6.67269928537982
H            3.18292224179289       -1.40244733798223        8.52692842856109
H            2.46968384455048       -3.07018040855071        7.76756109880579
H            1.95330710495477       -2.24660690918469        9.36031001527726
H           -3.85768233458047        3.96492224290753       -0.50227005143165
H           -4.80510810869709        3.18684150893745        0.56783756211121
H           -3.66586653712605        2.39717081607527       -0.58145702371445
H           -0.76740355860818        7.09847070090867        2.41235981301111
H            0.03714778408264        5.76124372752922        1.91891959269351
H           -0.48039654947125        5.73535419909755        3.60144076757229
H            3.09287994757979        3.26805393728584       -3.82406518503872
H            1.75190586439637        2.47116947020477       -4.49246320276441
H            3.01642601911164        1.38918481772684       -3.95651778872574
C            1.81922048896902       -3.13890923028727        1.44187168481500
C            0.95198598097681       -2.97475351477956        2.56053522526773
C           -0.31341664024246       -2.25671213071212        2.47930353785100
C           -0.44680378581925       -1.34509016739949        1.37626383711257
C            0.41785174300443       -1.51563755363845        0.24810282138390
C            1.35463419830690       -2.54749472322072        0.29557335760620
C           -1.43196975978162       -2.35300604814802        3.42477292770556
C           -2.36240235284485       -1.31824232670747        3.36429981208347
C           -2.44397522863745       -0.45254752857282        2.22286997082140
N           -1.42247584257150       -0.41456989825878        1.31603457840230
C           -1.64914847582710       -3.28864028987219        4.52825961854697
C           -2.39120363530191       -2.83259558350410        5.67232044997338
N           -3.08907206460870       -1.61266711225114        5.63113400183128
C           -3.34479653316106       -1.04664937202727        4.46768116570312
C           -4.26317424183413       -0.02098063504898        4.36519094175508
C           -4.30894976715226        0.66480560091730        3.15510169748379
C           -3.35520204461203        0.46156090914533        2.13497808720122
C           -0.98161107056365       -4.53770691978144        4.83825312757598
C           -0.60296788956166       -5.01733001891466        6.14895993556257
C           -1.39209474214655       -4.55944640236662        7.15202585520990
C           -2.16710642943415       -3.42224139381580        6.90668036601549
O           -0.63305287447653       -5.28882074907892        3.66997278714554
O            1.34998478164311       -3.47453922645979        3.83641783750702
C            2.08325902719006       -2.84249029066631       -0.92697549845484
C           -1.22375152654197       -5.18723644784408        8.55146327101837
H            0.32223516716343       -0.67609275291343       -0.49095656645331
H            2.69261409867331       -3.76905532788911        1.59126418362600
H           -3.38085854363614        0.93313600223916        1.12048599611177
H           -5.05774943528794        0.12242869050857        5.06907754548659
H           -2.49319585912841       -2.93394912723662        7.74706183490109
H           -0.05739391567953       -5.99043322453787        6.24772642154172
O            1.84910206978438       -2.27751404927596       -1.96636374280385
O            3.12016671840024       -3.76894561949993       -0.66400585727113
C            3.65726089086762       -4.06893478297945       -1.85253716800698
C           -5.22416210651336        1.76527557562166        3.05882773596974
O           -5.39691261259796        2.22760278718612        1.90276623138217
O           -5.90616405899100        2.35800252702008        4.05466426903529
C           -6.79880643967802        3.31858418497497        3.49187404327880
O           -0.65795596356678       -6.21748375983300        8.64445880675578
O           -2.02596961900122       -4.64031580769346        9.60790225829862
C           -1.90659374689436       -5.29774182750492       10.83620549014069
C           -1.50311789213124       -5.24839986624481        2.53189733325693
C            2.60350217000401       -4.19925427106820        3.93934422610453
H           -0.85088093101251       -5.06342391485419       11.28781859877578
H           -1.95767754264459       -6.34412940633775       10.67976369467722
H           -2.73263327361827       -4.98818841401660       11.42565194787647
H           -7.11538687111365        4.12510839150431        4.13730099207964
H           -7.66973667223828        2.85152896091910        3.06493868730759
H           -6.36310594214774        3.78771155598678        2.55127857469706
H            2.48271101382368       -4.80320611049776        4.71042912808660
H            3.56526418005120       -3.61056077831252        4.01236413819800
H            2.72381003755615       -4.81743631829372        3.01851089455333
H           -1.18041141716487       -5.91785790777064        1.73930276634915
H           -1.37587488658843       -4.38155401898968        1.88313786147937
H           -2.66427720369917       -5.31713902937925        2.77652950218943
H            4.45076540642023       -5.00149585117478       -1.54560963746730
H            4.24830319782235       -3.19456460968505       -2.29086902531375
H            2.83918927890631       -4.37615888520521       -2.53300365192984
116
 energy: -22.802306956781 gnorm: 0.412521348862 xtb: 6.6.1 (8d0f1dd)
C           -0.69466287470059        3.14056031119862       -0.57321253767182
C           -1.31393511005759        3.10829052830101        0.64517468258888
C           -0.55675125209752        2.42530449150231        1.67042036249667
C            0.49547282708590        1.61917605248398        1.35877564331241
C            1.14933882967245        1.80149919500853        0.13072288792940
C            0.59153706215756        2.59567828171905       -0.81381271532286
C           -0.96446554614247        2.59001392784071        3.04755439041050
C           -0.42305817144241        1.70485849792542        3.95188248123701
C            0.60852065292604        0.74518325581560        3.47738421395381
N            1.07848270589837        0.70369625352688        2.22759674613250
C           -1.88266550575105        3.48293965963746        3.57160878256229
C           -2.58202079484179        3.09292744861134        4.78633817814505
N           -2.21598552815106        2.10472957607920        5.54159909024335
C           -1.04600434648422        1.54271320813573        5.27160104881101
C           -0.51431725311569        0.50892509456743        6.14785419860355
C            0.61485053566275       -0.25049898285324        5.79245968711942
C            1.04763077050885       -0.20644814882843        4.39170580530110
C           -2.00134766754431        4.88988243948155        3.20935180721278
C           -3.17425281645004        5.54648429802346        3.63815603731163
C           -4.01207938100612        5.03501513231903        4.59124292732138
C           -3.70916141625188        3.80563193748511        5.14816608853405
O           -1.05125414318558        5.60302823760177        2.46919767182907
O           -2.57034479386833        3.76348407200701        0.86587323265328
C            1.23078936553076        2.40578355409964       -2.15597789761951
C           -5.14386051559487        5.96595735120592        5.05687076234979
H            1.86300519819886        1.10175548522482       -0.16134664173779
H           -1.11679533921459        3.67984600853439       -1.39067438381039
H            1.86094726950713       -0.84188707448971        3.99017618335693
H           -1.05879367578951        0.40831436708610        7.10385385987388
H           -4.10630270852508        3.43565985758570        6.06498556587597
H           -3.36678593946342        6.53750494853497        3.29855045391640
O            0.49945354987509        2.61328062099040       -3.11122297219973