116
 energy: -22.928061455056 gnorm: 0.329736929581 xtb: 6.6.1 (8d0f1dd)
C           -3.31122850772930        0.79849766164622       -0.92477639677520
C           -2.44380812530352       -0.12270372891954       -0.27661132624697
C           -1.41337090092821        0.39579727573559        0.56335275196199
C           -0.89266158675590        1.65801491088749        0.27377586709581
C           -1.72665675402493        2.51431363229076       -0.49448366572522
C           -2.95444148494349        2.13954154133227       -1.01494489940871
C           -0.74098268209890       -0.43411532818871        1.49825021926784
C            0.56872586496315        0.03782116815119        1.86248088067890
C            1.03782416582094        1.29402317993033        1.50887470833621
N            0.31238977034758        2.07067427098208        0.65193736800696
C           -1.29695700510141       -1.39996043042223        2.41574187746061
C           -0.38243517664656       -2.18060797534842        3.13232615520648
N            0.91308504082021       -1.90366887689689        3.30325166013478
C            1.37712470144904       -0.74872102533751        2.81811050966982
C            2.52149331701875       -0.17739833758153        3.39379298866852
C            2.95849061756259        1.02681208890480        2.95105897606587
C            2.24288949469137        1.78498308775960        2.03503020483770
C           -2.74860936222260       -1.74497937691422        2.38401158947411
C           -3.09416315450955       -2.91614440870436        3.00571134491758
C           -2.16786021984049       -3.77788778654213        3.63251872101904
C           -0.85708937311598       -3.40495313382985        3.68547234358092
O           -3.71994433332149       -0.94984598373544        1.67726658385724
O           -2.55702603277562       -1.47241711578389       -0.57241635275616
C           -3.84297843593025        3.13357444054366       -1.60938954875544
C           -2.68769581069131       -5.03867041417370        4.30484659386931
H           -1.39666850744143        3.51251503834900       -0.76806311868865
H           -4.27662633836220        0.55105838579656       -1.33106614114542
H            2.66329581305412        2.73912661909249        1.72562431984580
H            3.05775395548473       -0.69369546277216        4.16536137542516
H           -0.24710966264510       -4.12034095424229        4.22946223699121
H           -4.11477991332403       -3.04712728052358        3.03244694615357
O           -4.21824883374556        4.03433712717988       -0.87713382485991
O           -4.44510595673734        2.90643496899600       -2.81853501752979
C           -5.44216520282800        3.83300025693726       -3.02488532025093
C            4.23586651889298        1.50004220933226        3.59165660008449
O            5.05927614697201        0.66079890002952        3.91714215179376
O            4.47001334453535        2.86385149488593        3.72605651435371
C            5.79457498613219        3.08584475587818        4.15829123132174
O           -3.82227255313510       -5.27347675879771        4.16636005494405
O           -1.85023202017753       -5.79767454267276        5.06656077253571
C           -2.55119635829503       -6.86252441382958        5.62930343183426
C           -5.07197156564436       -1.42399175670916        1.58830531863830
C           -1.33089900128490       -2.23622472573986       -0.99264499351172
H           -2.54510546830388       -7.76426885143998        4.99136022291012
H           -3.57194749219491       -6.44405511486021        5.74196173723541
H           -2.09133598235598       -7.02043774843818        6.64022264233588
H            5.72707967266424        3.46798026205549        5.10135971236643
H            6.34060091246885        3.78468702308830        3.50069950143490
H            6.17933064298187        2.03010500085905        4.19342358084693
H           -0.91862729772622       -2.57650129080332       -0.01361370304871
H           -0.49769766914251       -1.60651221708571       -1.34094446550576
H           -1.52632419730509       -2.94569707152159       -1.75361447637286
H           -5.11788846557077       -2.41810833635233        1.17520213188926
H           -5.67929807973498       -0.69619639428435        1.04301666067831
H           -5.57598832326623       -1.42383358739762        2.57928294206544
H           -6.13050215934830        3.76035386975488       -2.23272855695873
H           -5.86615610071888        3.45938329385866       -4.02668959924245
H           -5.13479557532099        4.87790991548477       -2.98314551356402
C           -1.38192942069774        3.73616555005018        2.91232598411686
C           -1.84821468128685        2.59982427735607        3.49755545445181
C           -1.05946531454833        2.05730632010638        4.60922730982276
C            0.19893954712228        2.69376791964407        4.86302140881997
C            0.50425395911860        3.94630308659851        4.28768785650746
C           -0.26031777722226        4.46998310053134        3.25072669343212
C           -1.20488993561782        0.74454293276906        5.14851520323437
C           -0.06287609782692        0.02744069315890        5.60930570802864
C            1.19208754369866        0.71421540266195        5.78882868583885
N            1.19428660993148        2.06344359410476        5.62744624321596
C           -2.41361422770794        0.07928500213936        5.25249410304426
C           -2.45851584031083       -1.32662100968547        5.60237876023992
N           -1.29466212405906       -1.98318595734370        5.89916817085159
C           -0.14475655767527       -1.32117560077092        5.98824682881008
C            0.97209270935794       -1.98958449505532        6.53157704134458
C            2.21982707914082       -1.36973967291181        6.68703967237737
C            2.30561929262884       -0.09745313075593        6.26436900324455
C           -3.73018485967715        0.71367583494582        5.25810242262992
C           -4.89964478833448       -0.06184623426677        5.21204641615509
C           -4.82617965800088       -1.39228978090841        5.46901303780036
C           -3.67144193418464       -1.98914944386360        5.67265433266067
O           -3.75568638935321        2.07705011038914        5.52067969627343
O           -2.94192434743730        1.91263938797883        3.01658762327703
C            0.21273512614467        5.50086066357994        2.34765104514621
C           -6.06660304520411       -2.17604633098929        5.80641622556876
H            1.41756699010566        4.38133362238595        4.66974005703471
H           -1.82880610647429        4.11982501512100        2.06992133318584
H            3.26888037378556        0.32655662585251        6.31721410015598
H            0.87146188387207       -3.08471526305024        6.57830423410869
H           -3.67716811065157       -3.05999292755990        5.83019634570050
H           -5.77379677507622        0.43595144608221        4.71017130754348
O            1.34459852619901        5.82615848916894        2.44941456579099
O           -0.74718748219123        6.07961784856304        1.59848183464284
C           -0.21473095568964        7.24015934882472        1.05753806029483
C            3.53228080814219       -2.00967610361154        7.02506769044485
O            3.64093082622715       -3.14437803815732        7.50071391725347
O            4.56565258381079       -1.22937033368332        6.69086985080897
C            5.72579357310716       -1.80692399125161        7.22246151275881
O           -7.04801223588612       -1.95726935745904        5.14194115322235
O           -6.01514389321278       -2.93743591896022        6.94765316328794
C           -7.21292732384718       -3.62681918543340        7.15115816329978
C           -4.95459780685163        2.65960679932188        5.86868674392943
C           -3.68284113682406        2.59129188358641        2.05479246020704
H           -7.43119628931628       -4.22607794725959        6.20622607140901
H           -8.06548455146707       -2.91765848248592        7.29781126410398
H           -7.07314693247270       -4.33087306029711        7.91223421050944
H            6.57332189837178       -1.29353136199234        6.78341268688262
H            5.74663761932316       -2.84282155125561        6.88089468184451
H            5.69426191474290       -1.72781984964892        8.29460302186842
H           -4.10481209541493        3.44288266176275        2.60483747673152
H           -4.49244774344916        1.87419893016926        1.82433103764650
H           -3.18901540870812        2.85154642679373        1.06781919454921
H           -5.55414326821421        2.76698137191684        4.93950725322359
H           -4.78658370641210        3.62090640967288        6.25983200635257
H           -5.43485580473958        1.97242995129449        6.65265772412460
H            0.89164886030839        7.38838561720231        1.13776105146914
H           -0.62894889903848        8.04195665205089        1.64837664327952
H           -0.59282546386754        7.45699159724320        0.03719083132488
116
 energy: -22.634134478321 gnorm: 0.545383962339 xtb: 6.6.1 (8d0f1dd)
C           -3.41344532979725        0.49829751053615       -2.06094337679295
C           -2.45005279149598       -0.39604381771120       -1.51145106260110
C           -1.47071600787661        0.16976941857521       -0.57150040575371
C           -0.96169311605192        1.45881795116210       -0.76218078218154
C           -1.78308287264319        2.35430038799130       -1.54026239370724
C           -2.99044760515643        1.93550341504933       -1.96562755144933
C           -0.93098338985501       -0.71334063915217        0.42382534631106
C            0.25812011426603       -0.41479967924524        1.12665157469967
C            0.76456107053403        0.90146922116469        0.70368695622625
N            0.25792594285255        1.76826254558405       -0.19196541703118
C           -1.51787178132893       -1.91537379600024        1.00327372930597
C           -0.72675154197256       -2.66208574819878        2.00792273477973
N            0.47233015249829       -2.34615824056650        2.56939814254324
C            0.87199871551939       -1.21627703622955        2.14522369274231
C            2.11095951197949       -0.73244708162687        2.63868459653957
C            2.56738648079860        0.54742376207421        2.14125265667340
C            1.80211391896858        1.46458541853951        1.40520018454518
C           -2.87791067876625       -2.15276101115240        1.04342023065889
C           -3.31165274941484       -3.52688636987517        1.41508187699053
C           -2.57082436016528       -4.17076020340430        2.36762644999612
C           -1.19327661221463       -3.80664472759676        2.66493093674381
O           -3.72649490279937       -1.26037519384251        0.47868051417082
O           -2.19046548951968       -1.63251277725893       -2.19878741628155
C           -4.03823408572443        3.06311992687967       -2.04091664807714
C           -3.17544166133968       -5.14970825774442        3.24382310967882
H           -1.39088518001889        3.37968881921025       -1.58767395048848
H           -4.25847915052713        0.21595519856884       -2.67250910064081
H            2.11809236981940        2.48866011390643        1.22933041558691
H            2.53659818072803       -1.12637650336455        3.66316019658417
H           -1.08446199527224       -3.92121607179446        3.67357073074155
H           -4.24241749675890       -4.10452867690779        1.16623125529052
O           -4.18399810153132        3.73509764490462       -3.04721123634828
O           -4.56326680974434        3.18773346908394       -0.77462798436914
C           -5.48543690589394        4.24423152164013       -0.75833169724646
C            3.77754931962501        1.13732901664477        2.87367199665336
O            4.20759064920021        0.52295014481885        3.85641980068001
O            4.34632219534901        2.26840731835928        2.60090832740670
C            5.32888732800509        2.53547377108393        3.49980995014106
O           -4.29224326292642       -5.66771352998015        2.97376206418351
O           -2.46177545329212       -5.55635364583846        4.33743714208438
C           -3.13035376458834       -6.56621110863776        5.36186750502416
C           -5.09057718700378       -1.45632842027215        0.77804621508718
C           -0.86917101839677       -2.02105180767327       -2.51559261867424
H           -2.37236195077721       -7.21489546470599        5.93422463678606
H           -3.98901839925998       -7.19180738351408        4.96404795599285
H           -3.49192231014874       -5.98723134038614        6.25173147782155
H            5.59085498413091        3.48421413484097        3.46535961923840
H            6.33835031166970        2.08649618444174        3.17709720410735
H            5.07103862638950        2.23459972325136        4.49916404632747
H           -0.73846055671985       -2.55852246133524       -1.58145444110464
H           -0.07046201203237       -1.18606910781489       -2.60884925870572
H           -0.75264925927414       -2.92705359304126       -3.09055732681423
H           -5.37293432473559       -2.40898388756848        1.24895549713433
H           -5.80068450164040       -1.10216300340313       -0.08247678221762
H           -5.38784631312675       -0.71575078848273        1.60949389098977
H           -5.55433027795843        4.65282367730651       -1.79546284637960
H           -4.91818133503510        5.14157199269356       -0.15882951503849
H           -6.30165726417041        3.74248974290139       -0.39942181089397
C           -1.37777232427902        3.52520967704457        3.44807561282957
C           -1.70179084483250        2.51135188473481        4.30854995102169
C           -0.72975653019832        2.27760579702816        5.37460405811113
C            0.44456008013252        3.05706100787543        5.57951294980256
C            0.68038615122612        4.22695955595256        4.75831386468165
C           -0.18939240067311        4.31714925412518        3.71636995919072
C           -0.85546352635742        1.01805891967087        6.07936950807865
C            0.28074319449949        0.44392515142227        6.71598917426611
C            1.34329758454957        1.25544842809329        6.91559443269362
N            1.30604834745243        2.63081745961657        6.59967907300322
C           -2.13000938821049        0.27887320177081        6.26760105829519
C           -2.02874765562848       -1.09403494512655        6.46960861641020
N           -0.88025106511866       -1.60379159088949        6.97832296171710
C            0.23491873549671       -0.88439261590220        7.19144320579035
C            1.46623278187042       -1.32691772784774        7.78689403115280
C            2.63714640498912       -0.56953543937369        7.85035295648812
C            2.58653862949795        0.74016479299018        7.34195070279800
C           -3.34594281733196        0.89943806641043        6.52703512755993
C           -4.50160106356215        0.11837134921456        6.46812309158168
C           -4.44884854243328       -1.29374529056617        6.36071595348523
C           -3.25202380858885       -1.89311571560839        6.35508539815970
O           -3.15271713544129        2.16911144455081        7.04107491871120
O           -2.76093961062777        1.63221738221855        3.94822554555065
C           -0.18757685309004        5.51738672806718        2.87364783498283
C           -5.71567005164953       -1.94601768603318        5.74403834079971
H            1.30015711821892        5.13014669691988        4.83678693676481
H           -2.05199842526000        3.74155048592324        2.66882992048955
H            3.45073411696813        1.13585817643072        7.00878094853835
H            1.32927136769142       -2.39670376417976        7.94611239922693
H           -2.98187412288915       -2.95810957243098        6.57455174866043
H           -5.38007099747659        0.69656689850208        6.40159702718638
O            0.62472429494412        6.45636874786660        3.27089607661854
O           -0.82184503113499        5.31961494092155        1.65896650877943
C           -0.71151220460901        6.55957274327924        1.00337988226149
C            3.98588745621765       -1.01719597897969        8.43309417227806
O            4.13034208733997       -2.09070563631488        8.90130751611708
O            5.04339208779839       -0.28965972905452        8.06068722938272
C            6.19050641874507       -1.05585416137726        8.42370797156120
O           -6.20858454188185       -1.40851244269929        4.83003997527910
O           -6.46834871172815       -2.92697444513730        6.50800676437437
C           -7.79391386726896       -2.97583194596478        5.95373770263516
C           -4.38068567723711        2.70223841890582        7.70592525131334
C           -2.95697157605579        1.30620842516320        2.57056879746298
H           -8.49357735447425       -3.02321156987178        6.76362375585577
H           -7.76583122699383       -3.84694069311144        5.47896715622812
H           -7.91084985207011       -2.13716187826704        5.22917758849065
H            7.14286673397489       -0.43303735316199        8.14335032517694
H            6.22602231135023       -1.98866772191102        7.80177906618054
H            6.10388558094851       -1.34658371036195        9.37711589349375
H           -2.10207948016286        0.99666615804461        2.10953456665399
H           -3.57842796629036        2.08792719654564        1.96880819910343
H           -3.43401555483203        0.32069828035487        2.66015132602063
H           -5.19719085596873        2.97728039006429        7.08525300510445
H           -4.05401809955664        3.78719685885125        7.93347831005404
H           -4.61247822681725        1.94569672397279        8.55698957417076
H           -1.77054968255018        6.84179819321761        0.76155370025645
H            0.01807457743450        6.42997730762633        0.13301920247107
H           -0.59108606364965        7.30023019666935        1.80974058919699
116
 energy: -22.653603927418 gnorm: 0.518836028710 xtb: 6.6.1 (8d0f1dd)
C           -3.82472254262754        0.99411932671455       -0.93473468193435
C           -3.31256809501658        0.03342613624769       -0.02481804566436
C           -2.02697680551491        0.34332854700854        0.63646608794619
C           -1.39642760505171        1.61549564129185        0.30706194149340
C           -2.04204044842038        2.52536792354922       -0.54923374403223
C           -3.27567303633024        2.30204081779939       -1.13199634763564
C           -1.33148963533170       -0.52098277465044        1.61330362254846
C           -0.13462863033590       -0.04615164718665        2.04231908537525
C            0.38677860140538        1.24954215885077        1.64067902644234
N           -0.26706622756768        2.08718168391561        0.87730364376470
C           -1.83161145971808       -1.61213320890709        2.23157660663680
C           -0.75364361359838       -2.47671503963450        2.74620040125475
N            0.31636753740937       -1.96275814743817        3.32516448701874
C            0.76904792568595       -0.84090172174225        2.82393335729688
C            2.10103652249047       -0.42286669145041        3.04038563176759
C            2.63710889468106        0.74672816579840        2.51949435650315
C            1.78806629268289        1.59668920090411        1.87256439232085
C           -3.31914103393806       -2.19283038386189        2.27761497850015
C           -3.52090724018130       -3.54702933994103        2.53491295354796
C           -2.38629107393491       -4.39345037696168        2.87534384306847
C           -1.08756618182597       -3.81737811671798        3.00793489579829
O           -4.43552188556570       -1.34686067146132        2.49653590690258
O           -3.61643775457431       -1.24599671321383       -0.22411716607640
C           -4.14552495278415        3.14250835161614       -2.11275381041903
C           -2.56298174472958       -5.90343655135215        2.84163211806974
H           -1.63788984462146        3.45390443447851       -0.84280232808079
H           -4.67055479393010        0.67017387914745       -1.43796098145699
H            2.12847345986510        2.40841255299560        1.27835712807326
H            2.69769855924018       -1.17793689063437        3.52267471446998
H           -0.28402351505396       -4.45824604245477        3.72516081753694
H           -4.46687097756346       -4.17043905559868        2.32803776715589
O           -4.65264500839847        4.19255175753021       -1.79897120994234
O           -4.40661986449382        2.63060983400873       -3.36063451066008
C           -4.63597111812884        3.56985443239390       -4.42390514670253
C            4.01306825626398        1.08229943744187        2.67383115564095
O            4.44689381450563        1.06098025577139        3.86824357576132
O            4.64753040976775        1.80643387395718        1.60364614297053
C            5.78496617092701        2.58783072411719        2.10238946843963
O           -3.37449315800515       -6.48141745373709        3.49377318079758
O           -1.70403598247255       -6.42123398452882        1.89383267695527
C           -2.09998691892669       -7.66405723832752        1.67746231263690
C           -5.76085750552794       -1.85796574740681        2.72230184787357
C           -2.90342223585738       -1.72343051543610       -1.40693160874463
H           -1.46883952410910       -8.14194611961997        0.92931619334925
H           -3.20210164372019       -7.53385157430210        1.24294554537979
H           -2.01775310749256       -8.37544260663299        2.61731802828824
H            5.98077558852215        1.99430650049445        2.86600595128106
H            5.46247081903769        3.57047669739980        2.48490905018488
H            6.48276504682938        2.43055828582585        1.41146166776937
H           -1.97129735994497       -1.95473578505947       -0.89256995268232
H           -2.75652916715254       -1.10443011864484       -2.33688077778171
H           -3.32115659748996       -2.52792659732522       -1.91808691442978
H           -5.58028366258560       -2.77657212736595        3.33950180320373
H           -6.32593299205750       -2.08329581006928        1.76956535867900
H           -6.18111908583500       -1.06366247763423        3.36641771838276
H           -4.15217224369306        3.06689239520623       -5.27611396920738
H           -4.25782651219681        4.63869556871898       -4.22618224135249
H           -5.66356176792450        3.67136822157291       -4.53593794292891
C           -1.14416028455380        4.21738502183589        3.31377705130850
C           -1.57827791362931        3.05395387676650        3.99559915816457
C           -0.71467438328962        2.58018991631758        5.02111307103048
C            0.63077250503427        2.99430771739548        5.05170764977443
C            1.06528370655530        4.07366392121594        4.33714135366640
C            0.13443771416357        4.71727035549745        3.48933901344169
C           -0.81786208879322        1.29554065694001        5.64550457780110
C            0.24837447775037        0.66201804150690        6.31221873528045
C            1.44808935458066        1.38116939254916        6.56819014533215
N            1.55007038386481        2.62287283641620        5.92409368657861
C           -1.90133031260137        0.40966665516812        5.53532735158943
C           -1.82173140148214       -1.02043156459369        5.69736569108550
N           -0.76941616808186       -1.72522503150692        6.20811525857450
C            0.14602565997403       -0.81184213644058        6.64711452451819
C            1.10158617131516       -1.24417380330306        7.52428335919736
C            2.05138709681821       -0.49204382472014        8.06448519816536
C            2.49654145712453        0.75434505046842        7.43619585538288
C           -3.30431983641659        0.87580141917323        5.76539400502110
C           -4.46475990453093        0.04235320347835        5.67492989860482
C           -4.27323697986821       -1.40878119074105        5.62799624050616
C           -2.99702565140523       -1.79931892416193        5.77194194534905
O           -3.60847810745531        2.20798693993714        6.01088722512347
O           -2.72526042206363        2.32363018676227        3.54066988058499
C            0.64574777062347        5.76433096833634        2.55496729425031
C           -5.38522024955722       -2.40827036134251        5.69170054269544
H            2.18156388099412        4.36605757891783        4.24870957395059
H           -1.58852576328491        4.32990421424010        2.38671563575570
H            3.55395691135193        0.76659582305060        7.09432112725685
H            1.07841663257982       -2.26864286164102        8.04944074198427
H           -2.73987662319116       -2.88790636377411        5.78252814791005
H           -5.37513505973424        0.48395889674910        5.85179673135367
O            1.74984347209314        5.88862263916472        2.00587755291770
O           -0.19025453145539        6.75657761542032        2.20718641631442
C            0.08609709840328        7.84059077645658        1.28411850743617
C            3.07158993311565       -1.26950863077184        8.90503873244361
O            3.18583374495500       -2.48911657950433        8.80917585642985
O            3.99139449115124       -0.61468037998632        9.62445105638033
C            5.00397029541621       -1.49289847124517       10.11184524314422
O           -6.55860671817931       -2.11543487586809        5.84142285635250
O           -4.95875550255366       -3.74101246567336        5.79491853438045
C           -6.05307783066201       -4.57024643548997        6.09015313289290
C           -3.61163163869917        2.44386265912226        7.42140479700452
C           -3.73035424929670        2.81441314803240        2.63884799050562
H           -7.05594159669105       -3.85205563063879        5.98354870566652
H           -6.01976844084941       -5.20112179116799        6.99068833808411
H           -6.30042609876382       -5.39821802872276        5.33115723792098
H            5.73856892622601       -0.84199375757000       10.74362234084403
H            5.62527559369899       -2.13439262389877        9.45773117648811
H            4.29478237976013       -2.02346641829243       10.84638648529463
H           -3.34700186224434        2.79586527837012        1.53907902198635
H           -4.04659913031860        3.82104477111955        2.94932140917958
H           -4.50378311280758        2.07040611301555        2.71575184757329
H           -2.60224065445343        2.97510845961797        7.61891331468088
H           -3.40768770540118        1.57316877072746        8.03743767094077
H           -4.50704328710134        3.05926694535296        7.61275212330846
H           -0.46282262588561        7.65329815727591        0.35575284809630
H            1.17449495243459        7.67133379735346        1.19826047691482
H           -0.10902116805950        8.72351265870178        1.84007755692443
116
 energy: -22.695104494128 gnorm: 0.527253629310 xtb: 6.6.1 (8d0f1dd)
C           -3.39953491721942        0.27165235967214       -1.99035973274411
C           -2.76318689967270       -0.50724301081986       -1.03911483603492
C           -1.78715311545063        0.15937117042477       -0.15682310287408
C           -1.21240482094197        1.45418610583919       -0.45682882711942
C           -1.90394871139310        2.24092034287940       -1.41615230032700
C           -2.97604159705773        1.60297541958716       -2.06829441351545
C           -1.15957274901604       -0.46799597043879        1.00404577020773
C            0.14640400389088       -0.06391049232400        1.52383510289869
C            0.64949774452438        1.20311418588464        1.06982297372480
N           -0.14180713704798        2.05361183704640        0.19190150606670
C           -1.73066514080658       -1.63404233515724        1.73246765796039
C           -0.91210428228348       -2.41182885505543        2.49613963245793
N            0.44486573441424       -2.09396817707605        2.84097985537989
C            0.85661697490539       -0.87530915077317        2.42711116976956
C            2.01983603577133       -0.33991581486982        3.01229197559549
C            2.40941771527037        0.89536870133773        2.69479498846729
C            1.79182080680964        1.64700848840777        1.66759748249857
C           -3.11553782941746       -1.86151368457085        1.72709420270105
C           -3.48255485162028       -3.17603777266488        2.08181901498715
C           -2.60734426154875       -4.16986820617789        2.48921586233675
C           -1.32399708598314       -3.75101979118016        2.89451413689653
O           -4.19370358991817       -0.92079490966645        1.48188905710281
O           -2.54170445160111       -1.82936454303755       -1.25964444462514
C           -3.81930785006810        2.68343620857028       -2.79130552263003
C           -3.21681147169949       -5.47552687021060        2.72603380755165
H           -1.86324910311382        3.27523704876560       -1.09737815492235
H           -4.13772913992470       -0.01222017230747       -2.66494947271743
H            2.32447697402107        2.51659312722892        1.31104101052050
H            2.40982572867027       -0.91629753135974        3.75367939628307
H           -0.65404503374204       -4.22901532838923        3.42418360575356
H           -4.43884438997476       -3.30509773924469        1.93961496630127
O           -3.48611577530109        3.91233645286604       -2.72104670645044