116
 energy: -22.928061455056 gnorm: 0.329736929581 xtb: 6.6.1 (8d0f1dd)
C           -3.31122850772930        0.79849766164622       -0.92477639677520
C           -2.44380812530352       -0.12270372891954       -0.27661132624697
C           -1.41337090092821        0.39579727573559        0.56335275196199
C           -0.89266158675590        1.65801491088749        0.27377586709581
C           -1.72665675402493        2.51431363229076       -0.49448366572522
C           -2.95444148494349        2.13954154133227       -1.01494489940871
C           -0.74098268209890       -0.43411532818871        1.49825021926784
C            0.56872586496315        0.03782116815119        1.86248088067890
C            1.03782416582094        1.29402317993033        1.50887470833621
N            0.31238977034758        2.07067427098208        0.65193736800696
C           -1.29695700510141       -1.39996043042223        2.41574187746061
C           -0.38243517664656       -2.18060797534842        3.13232615520648
N            0.91308504082021       -1.90366887689689        3.30325166013478
C            1.37712470144904       -0.74872102533751        2.81811050966982
C            2.52149331701875       -0.17739833758153        3.39379298866852
C            2.95849061756259        1.02681208890480        2.95105897606587
C            2.24288949469137        1.78498308775960        2.03503020483770
C           -2.74860936222260       -1.74497937691422        2.38401158947411
C           -3.09416315450955       -2.91614440870436        3.00571134491758
C           -2.16786021984049       -3.77788778654213        3.63251872101904
C           -0.85708937311598       -3.40495313382985        3.68547234358092
O           -3.71994433332149       -0.94984598373544        1.67726658385724
O           -2.55702603277562       -1.47241711578389       -0.57241635275616
C           -3.84297843593025        3.13357444054366       -1.60938954875544
C           -2.68769581069131       -5.03867041417370        4.30484659386931
H           -1.39666850744143        3.51251503834900       -0.76806311868865
H           -4.27662633836220        0.55105838579656       -1.33106614114542
H            2.66329581305412        2.73912661909249        1.72562431984580
H            3.05775395548473       -0.69369546277216        4.16536137542516
H           -0.24710966264510       -4.12034095424229        4.22946223699121
H           -4.11477991332403       -3.04712728052358        3.03244694615357
O           -4.21824883374556        4.03433712717988       -0.87713382485991
O           -4.44510595673734        2.90643496899600       -2.81853501752979
C           -5.44216520282800        3.83300025693726       -3.02488532025093
C            4.23586651889298        1.50004220933226        3.59165660008449
O            5.05927614697201        0.66079890002952        3.91714215179376
O            4.47001334453535        2.86385149488593        3.72605651435371
C            5.79457498613219        3.08584475587818        4.15829123132174
O           -3.82227255313510       -5.27347675879771        4.16636005494405
O           -1.85023202017753       -5.79767454267276        5.06656077253571
C           -2.55119635829503       -6.86252441382958        5.62930343183426
C           -5.07197156564436       -1.42399175670916        1.58830531863830
C           -1.33089900128490       -2.23622472573986       -0.99264499351172
H           -2.54510546830388       -7.76426885143998        4.99136022291012
H           -3.57194749219491       -6.44405511486021        5.74196173723541
H           -2.09133598235598       -7.02043774843818        6.64022264233588
H            5.72707967266424        3.46798026205549        5.10135971236643
H            6.34060091246885        3.78468702308830        3.50069950143490
H            6.17933064298187        2.03010500085905        4.19342358084693
H           -0.91862729772622       -2.57650129080332       -0.01361370304871
H           -0.49769766914251       -1.60651221708571       -1.34094446550576
H           -1.52632419730509       -2.94569707152159       -1.75361447637286
H           -5.11788846557077       -2.41810833635233        1.17520213188926
H           -5.67929807973498       -0.69619639428435        1.04301666067831
H           -5.57598832326623       -1.42383358739762        2.57928294206544
H           -6.13050215934830        3.76035386975488       -2.23272855695873
H           -5.86615610071888        3.45938329385866       -4.02668959924245
H           -5.13479557532099        4.87790991548477       -2.98314551356402
C           -1.38192942069774        3.73616555005018        2.91232598411686
C           -1.84821468128685        2.59982427735607        3.49755545445181
C           -1.05946531454833        2.05730632010638        4.60922730982276
C            0.19893954712228        2.69376791964407        4.86302140881997
C            0.50425395911860        3.94630308659851        4.28768785650746
C           -0.26031777722226        4.46998310053134        3.25072669343212
C           -1.20488993561782        0.74454293276906        5.14851520323437
C           -0.06287609782692        0.02744069315890        5.60930570802864
C            1.19208754369866        0.71421540266195        5.78882868583885
N            1.19428660993148        2.06344359410476        5.62744624321596
C           -2.41361422770794        0.07928500213936        5.25249410304426
C           -2.45851584031083       -1.32662100968547        5.60237876023992
N           -1.29466212405906       -1.98318595734370        5.89916817085159
C           -0.14475655767527       -1.32117560077092        5.98824682881008
C            0.97209270935794       -1.98958449505532        6.53157704134458
C            2.21982707914082       -1.36973967291181        6.68703967237737
C            2.30561929262884       -0.09745313075593        6.26436900324455
C           -3.73018485967715        0.71367583494582        5.25810242262992
C           -4.89964478833448       -0.06184623426677        5.21204641615509
C           -4.82617965800088       -1.39228978090841        5.46901303780036
C           -3.67144193418464       -1.98914944386360        5.67265433266067
O           -3.75568638935321        2.07705011038914        5.52067969627343
O           -2.94192434743730        1.91263938797883        3.01658762327703
C            0.21273512614467        5.50086066357994        2.34765104514621
C           -6.06660304520411       -2.17604633098929        5.80641622556876
H            1.41756699010566        4.38133362238595        4.66974005703471
H           -1.82880610647429        4.11982501512100        2.06992133318584
H            3.26888037378556        0.32655662585251        6.31721410015598
H            0.87146188387207       -3.08471526305024        6.57830423410869
H           -3.67716811065157       -3.05999292755990        5.83019634570050
H           -5.77379677507622        0.43595144608221        4.71017130754348
O            1.34459852619901        5.82615848916894        2.44941456579099
O           -0.74718748219123        6.07961784856304        1.59848183464284
C           -0.21473095568964        7.24015934882472        1.05753806029483
C            3.53228080814219       -2.00967610361154        7.02506769044485
O            3.64093082622715       -3.14437803815732        7.50071391725347
O            4.56565258381079       -1.22937033368332        6.69086985080897
C            5.72579357310716       -1.80692399125161        7.22246151275881
O           -7.04801223588612       -1.95726935745904        5.14194115322235
O           -6.01514389321278       -2.93743591896022        6.94765316328794
C           -7.21292732384718       -3.62681918543340        7.15115816329978
C           -4.95459780685163        2.65960679932188        5.86868674392943
C           -3.68284113682406        2.59129188358641        2.05479246020704
H           -7.43119628931628       -4.22607794725959        6.20622607140901
H           -8.06548455146707       -2.91765848248592        7.29781126410398
H           -7.07314693247270       -4.33087306029711        7.91223421050944
H            6.57332189837178       -1.29353136199234        6.78341268688262
H            5.74663761932316       -2.84282155125561        6.88089468184451
H            5.69426191474290       -1.72781984964892        8.29460302186842
H           -4.10481209541493        3.44288266176275        2.60483747673152
H           -4.49244774344916        1.87419893016926        1.82433103764650
H           -3.18901540870812        2.85154642679373        1.06781919454921
H           -5.55414326821421        2.76698137191684        4.93950725322359
H           -4.78658370641210        3.62090640967288        6.25983200635257
H           -5.43485580473958        1.97242995129449        6.65265772412460
H            0.89164886030839        7.38838561720231        1.13776105146914
H           -0.62894889903848        8.04195665205089        1.64837664327952
H           -0.59282546386754        7.45699159724320        0.03719083132488
116
 energy: -22.617300945699 gnorm: 0.508471453411 xtb: 6.6.1 (8d0f1dd)
C           -2.51142573672892        0.49555186428595       -1.81363397916161
C           -1.99635944348517       -0.29767299690605       -0.78507236291197
C           -1.19498526522262        0.34151077831622        0.19682281729081
C           -0.89472789578884        1.72307942282086        0.04443527159348
C           -1.59262981148103        2.62714218716400       -0.77233751228519
C           -2.35804945793247        1.97949484870816       -1.73851126140582
C           -0.64403816737146       -0.33117095012672        1.35330187275402
C            0.55133402736725        0.25372364846903        1.75478953885312
C            0.86814959809499        1.59247345313677        1.47657825741485
N            0.24004127704714        2.27468383934366        0.45761216986026
C           -0.99667095730969       -1.56920674557603        1.85517684091477
C           -0.15052998160189       -2.32333906547246        2.78393863495332
N            0.95110657311339       -1.72058688908901        3.34348071709799
C            1.37701058728701       -0.56030781148916        2.72304565288348
C            2.64958966026814       -0.05174994807846        3.12991713200033
C            2.89553078200460        1.28296744756080        2.74403499686934
C            2.15073080604757        2.02622765960236        1.85054533473217
C           -2.37899442102150       -1.85090597634440        2.03263603828223
C           -2.97165273693604       -3.13247357942574        2.41367573371231
C           -1.98292464881986       -4.06691941357848        2.73181656863176
C           -0.74447051740333       -3.52600452398400        3.21451438273712
O           -3.46803825226396       -0.92752859255761        1.78166433323182
O           -2.00083685753521       -1.69801517657476       -1.16096474638070
C           -3.19596326814549        2.74310042065716       -2.68795915104599
C           -2.28076695317208       -5.52892503646901        3.00286573296888
H           -1.40462229157453        3.72920411503956       -0.92914750770528
H           -3.12994973738636       -0.07448880654343       -2.43933610600101
H            2.38207062569911        3.07752761361224        1.73543673680926
H            3.44542179657886       -0.28960793071686        3.82502080516171
H           -0.20155915700184       -4.03833203802223        3.98431322018624
H           -4.03662044533535       -3.39878063086917        2.41891189753903
O           -2.71682893341276        3.54010031317676       -3.41771112851265
O           -4.61656977662282        2.52151836065270       -2.66196086539395
C           -5.39863919139678        2.84391556120749       -3.79570121007367
C            4.30824356015158        1.59573144426284        3.16593225070649
O            5.14767025230848        1.14117069702767        3.88114981837615
O            4.80324081677821        2.86066735737207        2.78057379341096
C            5.68355763462544        3.49875441579348        3.65090306344714
O           -3.46918860937146       -5.79777363170116        2.81207564030827
O           -1.18837504804188       -6.19895012705755        3.30715642790592
C           -1.39115863864088       -7.42387828919946        4.06294473225044
C           -4.81207446480384       -1.35643659996433        1.92418743361530
C           -1.10691021082294       -2.46049577149046       -0.43878638562069
H           -2.18159097747989       -7.92646943913380        3.55343741342339
H           -1.75597876234085       -7.37697495146287        5.23893193514084
H           -0.40751671466554       -7.93326054002533        3.75449676900829
H            5.36129048206404        4.53669587711734        3.72549546369189
H            6.72825551865650        3.28953585582803        3.29016343524946
H            5.69588943518374        3.36329084524657        4.73657825654023
H           -0.13561477370216       -2.14771937445923       -0.82367135051526
H           -1.30409333641956       -3.35270057414425       -0.88848979222479
H           -1.29824505256782       -2.64318389711219        0.56080234717992
H           -5.00041408213522       -1.68652423137435        2.93788383816292
H           -5.07295364049773       -2.22123407128805        1.22808955536484
H           -5.44529623330625       -0.45233289003782        1.67806876243235
H           -4.81099905052849        2.80376519414839       -4.77289043865332
H           -5.99968466000752        3.72863646140730       -3.56810878285254
H           -6.13957233189286        2.12668829221663       -4.30779831165391
C           -1.80100443813074        4.14394059712688        3.92044454590629
C           -2.13570466360521        2.98488728082684        4.60793179875870
C           -1.32841777120883        2.38812474863833        5.55695487920839
C           -0.03982022536543        2.92600010790288        5.55986991372727
C            0.46733970002046        3.91753120925419        4.66681720890117
C           -0.49982840288126        4.54041910633911        3.82704249379098
C           -1.54722490324503        1.05140735810715        6.08493555546743
C           -0.39757668754849        0.22003246727694        6.27779492283675
C            0.83875209380014        0.89257016593733        6.50863173044934
N            0.95513577498579        2.26902784677931        6.33629545672192
C           -2.84002208140643        0.42691568970994        6.44820322480813
C           -2.91048324069299       -0.96652868640289        6.26552793766913
N           -1.69992641314675       -1.74040910828588        6.28590456527578
C           -0.54229498983460       -1.13329370853545        6.63268795883854
C            0.77541281900899       -1.76409061298672        6.74947720543503
C            2.01799542806176       -1.08661931851324        6.75029094253451
C            2.11965042317574        0.25199253842412        6.81357297960527
C           -4.04675977333215        1.22274187408005        6.76852560286702
C           -5.19883135238447        0.45418070634262        6.80636686328089
C           -5.32469320236439       -0.83721365341288        6.46226024269759
C           -4.15925851993721       -1.59581532585469        6.10019757609134
O           -3.78801580536658        2.54697015267463        7.07669829302471
O           -3.31771223864000        2.28042430987268        4.33917223084971
C           -0.20978484798356        5.40102890669438        2.56977202957342
C           -6.64553003732134       -1.39501603446907        6.29844069427356
H            1.36412193567708        4.51371416902246        4.63669162639555
H           -2.35837114133701        4.39175829532296        3.12630037010069
H            2.97502168161649        0.67127584688400        6.47783000341090
H            0.76118376210086       -2.79216888042451        6.79151336042013
H           -4.40571352488594       -2.51027896552637        5.56468632016363
H           -6.11659925554317        1.06030434925082        7.06153071001389
O            0.66841987999968        6.27231273853700        2.73068709127141
O           -0.48715635135069        4.97090351599450        1.31350087461301
C            0.38340796132086        5.74517364153329        0.46610491825124
C            3.16236782479489       -2.05323877385498        6.58992487420227
O            2.96848765935646       -3.27617720458383        6.59795904529590
O            4.43133184956687       -1.45220412720499        6.32565319938897
C            5.38582557923285       -2.48872771619734        6.24840993484499
O           -7.66790680565927       -0.70414519633179        6.12127757489526
O           -6.68968835674178       -2.63384655571544        6.81906126052511
C           -8.13074717954160       -2.91860702324838        7.09186622477996
C           -4.29068670229459        2.90668750647748        8.32121489843780
C           -3.78299113882428        2.07425052820983        2.98957843966485
H           -8.38334012632893       -3.26986435748061        7.97503044504404
H           -8.47068078544417       -3.76210119950106        6.48564413960346
H           -8.68684038335358       -2.05778498783674        6.71986772307189
H            6.41269365904674       -2.21236609834365        6.14935943342190
H            5.13371759997665       -3.07560845775177        5.25587523843183
H            5.09026692823840       -3.12461184395408        7.18008105896165
H           -4.25052262497608        3.01701691850434        2.64438196704826
H           -4.47598393054105        1.24854987995215        2.89837129061458
H           -2.87136158074626        1.81274586049273        2.44329168024212
H           -4.21759948636112        4.04745054184453        8.39572735526078
H           -4.03375893467958        2.18130119371857        9.03423001889248
H           -5.39560772329562        2.78260537357631        8.33359973627115
H            1.41404922483944        6.10796603954536        0.86342796674279
H           -0.33149344232082        6.50708752491244        0.29075250117976
H            0.57457449963875        5.13080001719983       -0.47405758548450
116
 energy: -22.607944739261 gnorm: 0.524222839416 xtb: 6.6.1 (8d0f1dd)
C           -3.01534482146199        0.87496949634356       -1.89146305079304
C           -2.21597876288199        0.07403619578014       -1.15531068235896
C           -1.23549832070313        0.69710929746420       -0.24233868195136
C           -0.91874466590424        2.10951630844559       -0.57583775755901
C           -1.81540768125177        2.85199872634825       -1.38644412793847
C           -2.89935962556791        2.29992972229721       -1.89569229285537
C           -0.52703812073499       -0.11225208450614        0.71000081282013
C            0.74807507846171        0.40611155089204        1.01878223119265
C            1.01211621242143        1.67731597606798        0.60480403459379
N            0.31172122082630        2.53679960403166       -0.17745212157041
C           -0.76388456214326       -1.37306704166489        1.42691257600184
C            0.30975292609875       -2.06012119533271        2.11925499433187
N            1.55210141914123       -1.58467439314702        2.26634319912544
C            1.69276140341171       -0.23858903347864        1.91825152963426
C            2.65832274947377        0.52821455757015        2.40285952766773
C            2.90993767423990        1.89437761622880        2.24105253103154
C            2.04077760132111        2.44796791612712        1.30957862648235
C           -2.11922432572966       -1.85287903560204        1.65225881593343
C           -2.39116697782315       -3.03451844230595        2.42907135948513
C           -1.30822442805616       -3.86363249030891        2.95229565392105
C            0.00040679784297       -3.25317204140297        2.91748468962105
O           -3.08207974007991       -0.93883413837651        1.33385610113462
O           -2.18353334817958       -1.26238602549815       -1.61187660418611
C           -3.64769926958845        3.07539639567349       -2.90120116533608
C           -1.62631296946025       -5.11608441494132        3.54352452870517
H           -1.65039396828432        3.80997687543799       -1.79613843052339
H           -3.83391160687916        0.56239525800473       -2.43621005351733
H            2.19395371607010        3.52283587527983        0.94311692571247
H            3.34072469130461       -0.08832386477109        3.09334265213698
H            0.76699758727316       -3.51351173659160        3.64400582867832
H           -3.41684466727235       -3.18735443842116        2.74315769427268
O           -3.95017562051146        4.25125777383500       -3.08654749401879
O           -3.33264450399670        2.12931066208387       -3.94687973957232
C           -4.01030712611394        2.41216162527102       -5.24948218608727
C            4.03666269144719        2.53553200029180        3.04637923755707
O            4.97734110260808        1.84384864577518        3.37638125302269
O            3.89603620982466        3.95420804433591        3.34521476826511
C            5.10562866182229        4.60110869320961        3.18190828261285
O           -2.82972526212030       -5.23477419809920        4.02573546157072
O           -0.46776924726849       -5.78817215375482        4.00332947930884
C           -0.67207137031897       -6.53080692923838        5.11718777164432
C           -4.16036893308349       -1.68761295557945        0.82349072770064
C           -1.09174274513219       -1.20025806782493       -2.52773123677872
H           -1.46154596822756       -6.19698281069419        5.70219004011413
H            0.34845823200741       -6.49112614734779        5.43030309018357
H           -0.94685905883870       -7.59363209964320        4.96014744395426
H            5.45259784224744        4.91317786587461        4.13351315955354
H            4.83558302533617        5.51676523427764        2.59864882389025
H            5.96879353403136        3.93339432972773        2.57259342217186
H           -1.37477096948378       -0.22152356915629       -3.11748825850412
H           -0.89594976958004       -2.22847557386412       -3.02707280879879
H           -0.14533650322205       -1.08014794650900       -2.02342172806880
H           -4.18088107458153       -2.69128268700369        1.28921143986964
H           -3.83114258657145       -1.79889387609285       -0.20986457861263
H           -5.20648185736124       -1.25698379562057        0.82282878539083
H           -4.01453523612370        3.48596330086923       -5.66894569662439
H           -4.86450327080113        2.02681968436194       -4.92198125194066
H           -3.46316692563272        1.61659474794049       -5.76338686350810
C           -1.67083008342559        3.20947253735033        3.26517877993443
C           -2.12371074240202        2.00481869281215        3.82263611826939
C           -1.29474773100574        1.26574220505603        4.72781340747208
C            0.09810888289887        1.56117559420093        4.63779261670024
C            0.62303139751355        2.77443097129615        3.95779155061878
C           -0.25526661720150        3.54499573044896        3.22089264489996
C           -1.70114334284994        0.07627784644057        5.44110184955375
C           -0.56890894515267       -0.83053892934687        5.80865927087260
C            0.72165405435889       -0.36531999277617        5.71889665290928
N            1.03840110305828        0.79543807818066        5.15858610529206
C           -2.93142853433239       -0.08286182363297        6.08375827610365
C           -3.16394839226573       -1.26905809545836        6.65119884012649
N           -2.25177742845704       -2.26313844299992        6.74931201502041
C           -0.98266282604568       -1.99830111107292        6.50504946296257
C            0.02846456069178       -2.74580039311326        7.13905529260868
C            1.33275941550493       -2.29567902371620        6.97744865641362
C            1.77845883539200       -1.22407433624649        6.24749754211628
C           -3.96042003231335        1.08347108902561        6.17119914755719
C           -5.18946232361554        0.83310522567398        6.66035137290274
C           -5.51786320812595       -0.47313888026142        7.04190726827746
C           -4.53970806036417       -1.54097466813114        6.88211004682343
O           -3.33862883564499        2.41611444280046        6.01315781005985
O           -3.37752782783470        1.45845365810228        3.71074361994820
C           -0.08790430341306        5.00897882459049        3.03514200486334
C           -6.77894176895721       -0.79003563183013        7.80877762822428
H            1.56242860323904        3.17414904936760        4.25488735193886
H           -2.37181384234622        3.67171779984235        2.72583698128558
H            2.86915141422046       -1.22570555656231        6.19448667045454
H           -0.15998200242893       -3.74625462931678        7.54492633893876
H           -4.87638743421839       -2.50017050644086        7.24146506481338
H           -5.96169125213789        1.57678695449930        6.79145225437829
O            0.75571884981985        5.31739437936778        2.19917742952711
O           -0.70211134416417        6.02296627988121        3.80573177841697
C           -0.77945734049725        7.27738610579197        3.00307662630768
C            2.47429009192780       -3.00364371442525        7.57180372997669
O            2.23027902821493       -4.21451403971781        7.67386742520882
O            3.50712713378588       -2.57393902395416        8.36386676906044
C            4.07523499506400       -3.58935925703420        9.21874586271079
O           -7.32061740155714        0.07571925638360        8.40853843974368
O           -6.99837954479463       -2.20940904757446        7.98968300662058
C           -7.93885349747469       -2.28747737970557        8.98951223548575
C           -2.68416257328876        2.88263158724026        7.13838159320925
C           -4.35307025572028        2.31076046027969        3.29000021036351
H           -7.74432577510419       -3.27664369223757        9.45620821901184
H           -8.94420775458037       -2.15582921331248        8.72483021963091
H           -7.63717876594484       -1.60636256107600        9.65100929744469
H            3.78259700563771       -3.21981177278907       10.14314282615269
H            5.21525618000140       -3.44410460759623        9.08618714249393
H            3.63083493432670       -4.56612058215380        9.31417249056974
H           -4.12128777229312        3.39315683958662        3.51787689490799
H           -5.24559926608343        2.09125959402511        3.97316796558570
H           -4.43752913777239        2.22492047837443        2.22766691702313
H           -2.00335859370377        2.02598922304839        7.36862267610653
H           -3.21258463548861        3.29028385902772        8.05295841584175
H           -2.25364232726465        3.75852480622748        6.53977762093730
H            0.20625872894587        7.55575664978088        2.55568838139651
H           -1.21563526224433        8.26493847581280        3.36623162805416
H           -1.61340566200094        6.85623685188716        2.35546147860836
116
 energy: -22.615992654272 gnorm: 0.516507400911 xtb: 6.6.1 (8d0f1dd)
C           -2.83749138118517        0.40667829547177       -1.98718206406341
C           -1.92079684339565       -0.15868100616656       -1.09088005840374
C           -0.87214496599206        0.63916809729914       -0.47082145639670
C           -0.68817725844161        2.01850840983634       -0.94078157163865
C           -1.45072239013101        2.38828925156044       -2.04292948732861
C           -2.51544664368659        1.66685599624799       -2.52288031195555
C           -0.21281157261538        0.21360245448655        0.71690770163749
C            0.88140114919907        1.08885757576567        1.11100269448683
C            1.03758605964630        2.32314993278547        0.44771310821818
N            0.17261145940315        2.91006473340250       -0.44640060837711
C           -0.46657790345689       -0.85618349913123        1.64899487389674
C            0.65341546136658       -1.38634031322193        2.34870274486776
N            1.80967068843210       -0.59984299606665        2.38584434158316
C            1.99220423935345        0.56469612356385        1.72892228490683
C            3.13467441610730        1.29314285294500        2.26528916183217
C            3.16626474328199        2.57049903619595        1.69607166820699
C            2.27273037256445        3.01262615439000        0.77036803095840
C           -1.68423704545674       -1.51926865513588        1.88634968429384
C           -1.63830839648965       -2.80839143901051        2.42838487380761
C           -0.50709835139400       -3.35812035451447        2.84509552738739
C            0.59327988682505       -2.64541439773465        2.90416079620373
O           -2.97487899850042       -0.98464248123644        1.46882642505351
O           -2.13754082001280       -1.43965774322599       -0.78147678319761
C           -3.39680704047452        2.38063461163247       -3.50320490322417
C           -0.68672179280598       -4.54374658962094        3.71004159998718
H           -1.52680989158666        3.41866192538267       -2.27216755583171
H           -3.90475598939569       -0.01847724012130       -1.71020102065222
H            2.52968841074882        3.91198358605670        0.31172395345072
H            4.07970171581448        0.86544336062896        2.47480488754467
H            1.46366594467448       -2.95280475957164        3.40414600741130
H           -2.51645259816492       -3.23198100424345        2.80251889247500
O           -4.10644709571792        1.65287914174406       -4.12860999092407