116
 energy: -22.928061455056 gnorm: 0.329736929581 xtb: 6.6.1 (8d0f1dd)
C           -3.31122850772930        0.79849766164622       -0.92477639677520
C           -2.44380812530352       -0.12270372891954       -0.27661132624697
C           -1.41337090092821        0.39579727573559        0.56335275196199
C           -0.89266158675590        1.65801491088749        0.27377586709581
C           -1.72665675402493        2.51431363229076       -0.49448366572522
C           -2.95444148494349        2.13954154133227       -1.01494489940871
C           -0.74098268209890       -0.43411532818871        1.49825021926784
C            0.56872586496315        0.03782116815119        1.86248088067890
C            1.03782416582094        1.29402317993033        1.50887470833621
N            0.31238977034758        2.07067427098208        0.65193736800696
C           -1.29695700510141       -1.39996043042223        2.41574187746061
C           -0.38243517664656       -2.18060797534842        3.13232615520648
N            0.91308504082021       -1.90366887689689        3.30325166013478
C            1.37712470144904       -0.74872102533751        2.81811050966982
C            2.52149331701875       -0.17739833758153        3.39379298866852
C            2.95849061756259        1.02681208890480        2.95105897606587
C            2.24288949469137        1.78498308775960        2.03503020483770
C           -2.74860936222260       -1.74497937691422        2.38401158947411
C           -3.09416315450955       -2.91614440870436        3.00571134491758
C           -2.16786021984049       -3.77788778654213        3.63251872101904
C           -0.85708937311598       -3.40495313382985        3.68547234358092
O           -3.71994433332149       -0.94984598373544        1.67726658385724
O           -2.55702603277562       -1.47241711578389       -0.57241635275616
C           -3.84297843593025        3.13357444054366       -1.60938954875544
C           -2.68769581069131       -5.03867041417370        4.30484659386931
H           -1.39666850744143        3.51251503834900       -0.76806311868865
H           -4.27662633836220        0.55105838579656       -1.33106614114542
H            2.66329581305412        2.73912661909249        1.72562431984580
H            3.05775395548473       -0.69369546277216        4.16536137542516
H           -0.24710966264510       -4.12034095424229        4.22946223699121
H           -4.11477991332403       -3.04712728052358        3.03244694615357
O           -4.21824883374556        4.03433712717988       -0.87713382485991
O           -4.44510595673734        2.90643496899600       -2.81853501752979
C           -5.44216520282800        3.83300025693726       -3.02488532025093
C            4.23586651889298        1.50004220933226        3.59165660008449
O            5.05927614697201        0.66079890002952        3.91714215179376
O            4.47001334453535        2.86385149488593        3.72605651435371
C            5.79457498613219        3.08584475587818        4.15829123132174
O           -3.82227255313510       -5.27347675879771        4.16636005494405
O           -1.85023202017753       -5.79767454267276        5.06656077253571
C           -2.55119635829503       -6.86252441382958        5.62930343183426
C           -5.07197156564436       -1.42399175670916        1.58830531863830
C           -1.33089900128490       -2.23622472573986       -0.99264499351172
H           -2.54510546830388       -7.76426885143998        4.99136022291012
H           -3.57194749219491       -6.44405511486021        5.74196173723541
H           -2.09133598235598       -7.02043774843818        6.64022264233588
H            5.72707967266424        3.46798026205549        5.10135971236643
H            6.34060091246885        3.78468702308830        3.50069950143490
H            6.17933064298187        2.03010500085905        4.19342358084693
H           -0.91862729772622       -2.57650129080332       -0.01361370304871
H           -0.49769766914251       -1.60651221708571       -1.34094446550576
H           -1.52632419730509       -2.94569707152159       -1.75361447637286
H           -5.11788846557077       -2.41810833635233        1.17520213188926
H           -5.67929807973498       -0.69619639428435        1.04301666067831
H           -5.57598832326623       -1.42383358739762        2.57928294206544
H           -6.13050215934830        3.76035386975488       -2.23272855695873
H           -5.86615610071888        3.45938329385866       -4.02668959924245
H           -5.13479557532099        4.87790991548477       -2.98314551356402
C           -1.38192942069774        3.73616555005018        2.91232598411686
C           -1.84821468128685        2.59982427735607        3.49755545445181
C           -1.05946531454833        2.05730632010638        4.60922730982276
C            0.19893954712228        2.69376791964407        4.86302140881997
C            0.50425395911860        3.94630308659851        4.28768785650746
C           -0.26031777722226        4.46998310053134        3.25072669343212
C           -1.20488993561782        0.74454293276906        5.14851520323437
C           -0.06287609782692        0.02744069315890        5.60930570802864
C            1.19208754369866        0.71421540266195        5.78882868583885
N            1.19428660993148        2.06344359410476        5.62744624321596
C           -2.41361422770794        0.07928500213936        5.25249410304426
C           -2.45851584031083       -1.32662100968547        5.60237876023992
N           -1.29466212405906       -1.98318595734370        5.89916817085159
C           -0.14475655767527       -1.32117560077092        5.98824682881008
C            0.97209270935794       -1.98958449505532        6.53157704134458
C            2.21982707914082       -1.36973967291181        6.68703967237737
C            2.30561929262884       -0.09745313075593        6.26436900324455
C           -3.73018485967715        0.71367583494582        5.25810242262992
C           -4.89964478833448       -0.06184623426677        5.21204641615509
C           -4.82617965800088       -1.39228978090841        5.46901303780036
C           -3.67144193418464       -1.98914944386360        5.67265433266067
O           -3.75568638935321        2.07705011038914        5.52067969627343
O           -2.94192434743730        1.91263938797883        3.01658762327703
C            0.21273512614467        5.50086066357994        2.34765104514621
C           -6.06660304520411       -2.17604633098929        5.80641622556876
H            1.41756699010566        4.38133362238595        4.66974005703471
H           -1.82880610647429        4.11982501512100        2.06992133318584
H            3.26888037378556        0.32655662585251        6.31721410015598
H            0.87146188387207       -3.08471526305024        6.57830423410869
H           -3.67716811065157       -3.05999292755990        5.83019634570050
H           -5.77379677507622        0.43595144608221        4.71017130754348
O            1.34459852619901        5.82615848916894        2.44941456579099
O           -0.74718748219123        6.07961784856304        1.59848183464284
C           -0.21473095568964        7.24015934882472        1.05753806029483
C            3.53228080814219       -2.00967610361154        7.02506769044485
O            3.64093082622715       -3.14437803815732        7.50071391725347
O            4.56565258381079       -1.22937033368332        6.69086985080897
C            5.72579357310716       -1.80692399125161        7.22246151275881
O           -7.04801223588612       -1.95726935745904        5.14194115322235
O           -6.01514389321278       -2.93743591896022        6.94765316328794
C           -7.21292732384718       -3.62681918543340        7.15115816329978
C           -4.95459780685163        2.65960679932188        5.86868674392943
C           -3.68284113682406        2.59129188358641        2.05479246020704
H           -7.43119628931628       -4.22607794725959        6.20622607140901
H           -8.06548455146707       -2.91765848248592        7.29781126410398
H           -7.07314693247270       -4.33087306029711        7.91223421050944
H            6.57332189837178       -1.29353136199234        6.78341268688262
H            5.74663761932316       -2.84282155125561        6.88089468184451
H            5.69426191474290       -1.72781984964892        8.29460302186842
H           -4.10481209541493        3.44288266176275        2.60483747673152
H           -4.49244774344916        1.87419893016926        1.82433103764650
H           -3.18901540870812        2.85154642679373        1.06781919454921
H           -5.55414326821421        2.76698137191684        4.93950725322359
H           -4.78658370641210        3.62090640967288        6.25983200635257
H           -5.43485580473958        1.97242995129449        6.65265772412460
H            0.89164886030839        7.38838561720231        1.13776105146914
H           -0.62894889903848        8.04195665205089        1.64837664327952
H           -0.59282546386754        7.45699159724320        0.03719083132488
116
 energy: -22.650275987528 gnorm: 0.520439414097 xtb: 6.6.1 (8d0f1dd)
C           -3.13237645410255        0.23676911325516       -1.13610440134560
C           -2.27077408981394       -0.62322278111203       -0.37076610960986
C           -1.25926243039629       -0.05080576649374        0.45630417343827
C           -0.78766176818477        1.24504297732285        0.17260702631038
C           -1.65404443742767        1.93664611446999       -0.65542679635304
C           -2.90888527404250        1.61888739206119       -1.19684943067221
C           -0.30645619018800       -0.83338984848002        1.19339561204850
C            1.01795994293439       -0.28116704363117        1.33658180726538
C            1.29876446087938        0.96910330867649        0.71175862653512
N            0.37587266691177        1.83630191828941        0.23754645230374
C           -0.68774733695928       -1.85421736869515        2.01021955156012
C            0.28929965595728       -2.44938856390355        2.86644321691859
N            1.56694060841531       -2.03367365743599        2.90377121034001
C            1.89814705977320       -0.87414123547895        2.23166155250916
C            3.22876333601486       -0.40788098940432        2.47162462060860
C            3.50637739022123        0.77255165564573        1.83087479503647
C            2.56830122763971        1.46933504686954        1.05616839566115
C           -2.03471544172116       -1.87066662379071        2.43962953920139
C           -2.49195711118203       -2.92154471028022        3.19795423252283
C           -1.58621333901349       -3.73814866369707        3.81566801553666
C           -0.20393024798428       -3.41014284926095        3.78911897336756
O           -2.96417150258620       -0.88943923908811        2.11206125950064
O           -2.51713030037812       -2.06156154951134       -0.56974378779625
C           -3.93771992648677        2.47012400057692       -1.85294081749917
C           -2.05050654183477       -4.66326673516370        4.90863587179060
H           -1.17792121115181        2.97535702374643       -0.64201262602030
H           -3.95216288245769       -0.48656559101999       -1.61948267566322
H            2.85158097635102        2.42861242859523        0.78628470950191
H            3.76186777916422       -0.86950650993939        3.26554113827844
H            0.44013507325027       -4.02299988778866        4.28302253285590
H           -3.62015515727096       -2.88930329918757        3.46382071170699
O           -3.46592692787526        3.45095270645152       -2.37377041724049
O           -5.25930840182208        2.27323897834589       -1.55636126099914
C           -5.95444566956137        3.43775727503208       -1.28719761447851
C            4.63617455190995        1.61744977768619        2.45638248984551
O            5.52439197256266        2.08678673407220        1.80411520400240
O            4.73096119271738        1.81457828151251        3.79449834263173
C            5.81383461959308        2.51611193972255        4.20967611922745
O           -3.17564686892499       -4.47388834577777        5.55298050256531
O           -1.00422508155166       -5.26556348460190        5.56303726842169
C           -1.18862662809482       -5.68548584415475        6.89889853857701
C           -4.16033909160901       -1.61282502850111        1.55151012253014
C           -1.51746418767967       -2.84105314430877       -1.20033056029457
H           -1.42505890204110       -4.66353352914130        7.59454330785158
H           -0.43141207240138       -6.47031533762961        7.13727394411950
H           -2.16758140559297       -6.09543269393634        7.03378301128451
H            6.79631377885550        1.88833853361559        4.15669382427179
H            5.70830034350693        3.03528081416772        5.25630384369560
H            5.71152171079374        3.38339351576211        3.64646927735050
H           -0.84792173841527       -3.38615595966834       -0.47905576296213
H           -0.92336752317268       -2.14481127815548       -1.68961630161172
H           -2.16485422553187       -3.72045355587472       -1.65523310404189
H           -3.78744993433608       -2.61908752737019        1.29260479381867
H           -4.59824157340257       -1.27751659471360        0.60497194005156
H           -5.07149915282524       -1.84082115315745        2.15169891911124
H           -6.02074949632502        4.03500327897455       -0.22760452310886
H           -6.94627710796279        3.15474332490515       -1.47302676053090
H           -5.69901381990149        4.03390514203846       -2.08119469060396
C           -1.95509881969660        4.17899219520260        3.68020504477795
C           -2.28115869329527        2.94843379670630        4.20012832089873
C           -1.32716344763402        2.35333539967305        5.16198398139340
C            0.04190659620426        2.84422189979463        5.08676995670130
C            0.44272980328746        3.93944670229154        4.32932782031840
C           -0.59915990160266        4.64382964728413        3.66591778197809
C           -1.65596157606659        1.10797059164977        5.79127201371648
C           -0.48197857285569        0.28869819110697        6.04135799252513
C            0.75785780816078        0.72713809087410        5.76165913338297
N            1.09221500246622        1.98486074594511        5.28552548736556
C           -2.92248892871285        0.42447481279364        5.94443686183471
C           -2.97062426445756       -0.99680841306583        5.89312054507119
N           -1.99696340408072       -1.70820579488671        6.44544100650935
C           -0.77941053967418       -1.09843528558367        6.38891168753909
C            0.33818032083517       -1.81355247537401        6.84837478409094
C            1.66098316170301       -1.39510505705691        6.82309664671750
C            1.86378841263270       -0.14968823206277        6.06730660883766
C           -4.10888239727843        1.31431309787185        6.10239415900855
C           -5.33942854211878        0.68796969651863        5.65521328797543
C           -5.33475382583895       -0.69387370251242        5.26766513432899
C           -4.23370328534754       -1.55752720446234        5.45611464404236
O           -4.02314362645596        2.50421309131264        7.07853518125013
O           -3.37774512450254        2.29900270834651        3.65253308901023
C           -0.36092768534691        5.73933915633794        2.65654796104112
C           -6.47417702986100       -1.14179972431893        4.49084349436362
H            1.46586559123775        4.06503238565201        4.27794943117304
H           -2.54167232921594        4.57395419393232        2.95134450204507
H            2.83772383503235       -0.01866912356870        5.61470954149649
H            0.03760613088641       -2.81516509878532        7.25303645881358
H           -4.36096743731695       -2.59482400438312        5.43251559712618
H           -6.34116977249076        1.24758563820597        5.76999012227077
O            0.21536525273434        6.71798596304904        3.13441573213308
O           -0.85105158260500        5.46632242630215        1.43155273306971
C           -0.55762739970623        6.49460359450359        0.46336366059482
C            2.84153712482608       -2.11248533677452        7.33924409829107
O            2.82083508159032       -2.95537089276337        8.21530238721138
O            4.01759690889078       -1.78424946226649        6.54785010113098
C            5.19364254701496       -2.38503046774783        7.02501414190748
O           -7.50989404943162       -0.46257850335415        4.51226261504158
O           -6.42273207601939       -2.39148483070430        3.93111532498185
C           -7.70520744348589       -2.52741832975786        3.46319023185299
C           -4.05831840169017        2.20338350243027        8.56745468812862
C           -3.54024938598341        2.05497391876036        2.32758740672665
H           -7.94389700156519       -3.63234542760477        2.93240756749753
H           -7.92691918593565       -1.81570714778723        2.62571954859041
H           -8.44202537851151       -2.41640092884489        4.30737669038750
H            5.72328383508180       -1.65490979522518        7.62830259958123
H            5.93817010418081       -2.82721363973935        6.27978183878867
H            4.92334415843884       -3.34249045900444        7.50695190566233
H           -2.78869154589877        2.58217514493398        1.76847847651448
H           -4.66988318139745        2.12908941688765        1.80238535936954
H           -3.41171194854083        0.98230889408446        2.16256960505125
H           -4.74628044690980        2.70171286944419        9.19110240496049
H           -3.07429601948438        2.30690371069016        8.96065635798187
H           -4.36846787018976        1.17511204190439        8.64835689805112
H           -0.36951030896526        7.35768074765172        1.03108554405522
H           -1.30027015515612        6.62047331814847       -0.18533852019742
H            0.43157032802782        6.39316668304302       -0.04433397297536
116
 energy: -22.639812718475 gnorm: 0.539514106552 xtb: 6.6.1 (8d0f1dd)
C           -2.89533223014013        0.32011372199175       -0.98975880098655
C           -2.17682634439357       -0.43340222441843       -0.01188216801974
C           -1.34320987721212        0.36383430465208        0.86911321483507
C           -0.95966618799327        1.75961016175182        0.53524373554427
C           -1.82469721054404        2.30256675863415       -0.46739748023548
C           -2.61790615102757        1.63290672648656       -1.31820040117573
C           -0.55662798460503       -0.15829137161681        1.92002005205103
C            0.84770377676069        0.40646867745219        2.02561505104238
C            1.09311165474691        1.64401381463207        1.57967857869264
N            0.19087618223893        2.32291345149186        0.95678946263024
C           -0.77572760631202       -1.40493893758052        2.62842480483808
C            0.37576460110178       -2.07722588280276        3.19056803371708
N            1.60279094811930       -1.56347624138713        3.23804893915281
C            1.94098803829330       -0.44414161787457        2.32777105733259
C            3.21892708631435        0.18589684062633        2.68855824040094
C            3.48095576686634        1.43619759114748        2.16293647022853
C            2.38537735712980        2.15673188954081        1.74408004467504
C           -2.09268280260648       -1.84406340863708        2.81539153145297
C           -2.19870319013286       -3.03768823019810        3.37629665444218
C           -1.20790306017251       -3.81728807203917        3.77489034706724
C            0.09108668541566       -3.25853217860709        3.89252666789756
O           -3.22289546608296       -1.34930286136219        2.26139338787573
O           -2.02460148809496       -1.76817826455792       -0.30847252723881
C           -3.47790837934088        2.35232845266106       -2.44458213841913
C           -1.43262600132549       -5.25727388587942        4.14106183419850
H           -1.49179191439488        3.21153780491966       -0.73862548683738
H           -3.51716181775560       -0.26607879297717       -1.63631885955796
H            2.40771194043085        3.21160207446757        1.32346670439056
H            4.12950420445839       -0.33465806697789        3.10428342654698
H            0.85895473899244       -3.53752709706504        4.59161929994308
H           -3.26279760399097       -3.21447670239798        3.53789054323839
O           -3.06774792203931        2.34650842654034       -3.63950605788946
O           -4.79357372456374        2.67171566576562       -2.03621722464397
C           -5.69168409908464        2.62701343538000       -3.16322595404675
C            4.79085729712757        1.95298657635892        2.51303873348146
O            4.74003033989086        3.16324159031371        2.73712273629194
O            5.83739302371488        1.19304927855857        2.88761745346768
C            6.97144070399795        1.67346182864137        3.41908974561005
O           -1.95680526018243       -6.07395242729619        3.44938296113013
O           -0.92029210699222       -5.63513783626079        5.43803680564751
C           -1.29099359804433       -6.99110843418160        5.57536437026469
C           -4.44005386005728       -2.08423500572298        2.33529233210465
C           -0.60814683626657       -2.13909475600371       -0.65730891674327
H           -1.82531513826041       -7.12656148641537        4.62152228828354
H           -1.82722862535645       -7.40979616213837        6.43180557849692
H           -0.36130735398473       -7.60599396339269        5.52208967112295
H            7.01156153295319        2.77761937794665        2.90646366412506
H            7.83572161954893        0.99742033797708        3.43697755221590
H            7.11256836450940        2.27293838573755        4.46399654318184
H            0.06586976192783       -1.33309086765267       -0.39231352538652
H           -0.57316691107639       -2.70517569356612       -1.62488724800573
H           -0.13237683155985       -2.91507932253467        0.05255667424372
H           -4.52574407710874       -2.98009748486645        1.71260483626962
H           -5.27563499941786       -1.47382498502618        2.14069672422853
H           -4.63948788517590       -2.31194263905321        3.40395756137160
H           -5.66868650696048        3.43717520528535       -3.91679240057508
H           -6.68797249832662        2.93787124921302       -2.79701024875367
H           -5.55861595929374        1.66275885488417       -3.63879422312453
C           -2.15118794881434        3.70877693719943        3.00022977088738
C           -2.45131918381674        2.65815548228585        3.83754252257439
C           -1.40934058747852        2.10524135398306        4.74610003461292
C           -0.04328684223548        2.40535865871443        4.59906467719495
C            0.16015364470781        3.48879408740284        3.74566366533486
C           -0.82994160961332        4.15412751133196        2.99316919351196
C           -1.78050320901010        1.27242995373021        5.94144650179835
C           -0.69129481961530        0.39630811587468        6.27445030166405
C            0.67437943477918        0.72626251796367        5.90926811667451
N            0.98715641166504        1.90457085346842        5.19481701696680
C           -2.99588167526155        0.86754016091738        6.29755942869031
C           -3.22486676687405       -0.55716963176161        6.56288525578960
N           -2.32263279500569       -1.41061983657358        7.13298252335410
C           -1.10940294787230       -0.94209850477646        6.93349950610012
C            0.01625650607028       -1.73745640422002        7.07582170290987
C            1.24653987931951       -1.49502349326446        6.54511247642903
C            1.62540670835673       -0.30265535597575        5.96537054066826
C           -4.13397614314494        1.69373502489868        6.21636454402518
C           -5.40490881394132        1.11656493094535        6.10236670888500
C           -5.62108930555934       -0.20957588138210        6.18001375923464
C           -4.54884713679569       -1.03552341340327        6.46007906307723
O           -4.18716204662052        3.10787658388754        6.02123752228047
O           -3.87282796689954        2.23280630682956        3.71853576097476
C           -0.31689240733441        5.32621003227966        2.17659994890110
C           -6.74512275694787       -0.91470908654127        5.61518200122684
H            1.15425353081797        3.81585019520197        3.58418280598047
H           -3.01481946957386        4.16196511964891        2.55664351743260
H            2.58689954783031        0.00314565163029        5.55873662095525
H           -0.26398748527305       -2.62252158509646        7.71559006707716
H           -4.67646425480839       -2.12763447907223        6.27705271684691
H           -6.32208007199554        1.74848434138241        5.80214951126638
O            0.83417532145517        5.21975226735331        1.75419825004812
O           -1.03798709164062        6.50462237051322        2.07076798944081
C           -0.43788685338814        7.23106546237024        1.06841327273953
C            2.29100699816682       -2.59238530926671        6.77138197826532
O            2.33830145567952       -3.52805427357391        5.99608637107317
O            3.33652390871925       -2.35802665951351        7.67978697095135
C            4.25483784053660       -3.30482376601917        7.62899267581178
O           -7.68577504399165       -0.26237114268054        5.22349429021294
O           -6.67346915739096       -2.39751993289379        5.38032075392098
C           -8.10284584273001       -2.72592978375544        5.22310792010069
C           -3.25752915746339        3.68631685966842        6.81677667133281
C           -3.96886261129670        1.71301177511148        2.37419123092058
H           -8.19844512678062       -2.37162625051315        4.24734064544219
H           -8.75155966250603       -2.39688766992597        6.11525037109797
H           -8.12968007678890       -3.90437012081076        5.23654245129165
H            3.76229258404615       -4.26941895217887        7.67148834963595
H            4.81557872244812       -3.15038501618965        8.53874003704043
H            5.06686812132934       -3.16336798081382        6.91388246624341
H           -3.89230459651095        2.52040512394787        1.61993288187471
H           -5.03140320703717        1.08967551471782        2.25429489693567
H           -3.25882962745994        0.86298304585665        2.27068992691529
H           -3.71236188543634        3.85223501264269        7.83161593199140
H           -3.14926042157349        4.65316317376933        6.35173597052882
H           -2.33134369125835        3.06151298689442        6.78201879768674
H            0.23738391908760        7.99280507588824        1.56754631214702
H           -1.39657954113299        7.76553441772790        0.57453503111165
H            0.14356028317237        6.53091512766644        0.38092378318454
116
 energy: -22.692176406893 gnorm: 0.469312913715 xtb: 6.6.1 (8d0f1dd)
C           -2.97357774456349        0.26858725531150       -1.36510724972056
C           -2.05472109991678       -0.47948079810459       -0.61356204050956
C           -1.01693457304370        0.07295349529029        0.17472636624652
C           -0.67617997545510        1.42664972802433       -0.21237007639691
C           -1.56377153665024        2.24897121951272       -0.95178047692092
C           -2.79404693879815        1.58524319406190       -1.43193225978590
C           -0.13007838617696       -0.53124741978251        1.21479910876707
C            1.09859687995280        0.13889100745203        1.58724661983975
C            1.43866524897568        1.32184405457700        1.00204734165952
N            0.46113784761317        1.99049147084028        0.30856120043148
C           -0.37567591202294       -1.64958025658159        1.97896546497741
C            0.72833088606129       -2.25116860322193        2.69901684383298
N            2.05879386269269       -1.84904106841065        2.80166712325770
C            2.14198975138616       -0.50415536320573        2.36370067369803
C            3.37862409301737        0.05676711732928        2.60773697143059
C            3.53505523076689        1.35126604063091        2.25803555811078
C            2.51508466859480        1.98758558369040        1.57403083039283
C           -1.67791867377459       -1.91170938910400        2.29129903456810
C           -2.06433965657886       -3.15474178547291        2.81871936409631
C           -1.07224516266753       -3.97733713814079        3.27639609011530
C            0.20705602183189       -3.47496733331524        3.23846397945400
O           -2.64995113958643       -0.94923679108773        1.96046698664961
O           -1.89116797709715       -1.85825713497970       -0.84492858795146
C           -3.60814417768669        2.35723416460894       -2.34748627366433
C           -1.39716223405076       -5.29672458485153        3.93749662396554
H           -1.55293032229215        3.36519236247294       -1.08021715831798
H           -3.73625419680619       -0.32103025915454       -1.87045412670860
H            2.70752785237079        3.01368992483115        1.20236915696052
H            4.05601635193206       -0.30524841660133        3.34858267894367
H            0.80906291348742       -4.06368628137100        3.95735467388273
H           -3.10916946229327       -3.58680304921649        2.84595003266369
O           -3.16429083794651        3.47926902829040       -2.74699952765873