116
 energy: -22.928061455056 gnorm: 0.329736929581 xtb: 6.6.1 (8d0f1dd)
C           -3.31122850772930        0.79849766164622       -0.92477639677520
C           -2.44380812530352       -0.12270372891954       -0.27661132624697
C           -1.41337090092821        0.39579727573559        0.56335275196199
C           -0.89266158675590        1.65801491088749        0.27377586709581
C           -1.72665675402493        2.51431363229076       -0.49448366572522
C           -2.95444148494349        2.13954154133227       -1.01494489940871
C           -0.74098268209890       -0.43411532818871        1.49825021926784
C            0.56872586496315        0.03782116815119        1.86248088067890
C            1.03782416582094        1.29402317993033        1.50887470833621
N            0.31238977034758        2.07067427098208        0.65193736800696
C           -1.29695700510141       -1.39996043042223        2.41574187746061
C           -0.38243517664656       -2.18060797534842        3.13232615520648
N            0.91308504082021       -1.90366887689689        3.30325166013478
C            1.37712470144904       -0.74872102533751        2.81811050966982
C            2.52149331701875       -0.17739833758153        3.39379298866852
C            2.95849061756259        1.02681208890480        2.95105897606587
C            2.24288949469137        1.78498308775960        2.03503020483770
C           -2.74860936222260       -1.74497937691422        2.38401158947411
C           -3.09416315450955       -2.91614440870436        3.00571134491758
C           -2.16786021984049       -3.77788778654213        3.63251872101904
C           -0.85708937311598       -3.40495313382985        3.68547234358092
O           -3.71994433332149       -0.94984598373544        1.67726658385724
O           -2.55702603277562       -1.47241711578389       -0.57241635275616
C           -3.84297843593025        3.13357444054366       -1.60938954875544
C           -2.68769581069131       -5.03867041417370        4.30484659386931
H           -1.39666850744143        3.51251503834900       -0.76806311868865
H           -4.27662633836220        0.55105838579656       -1.33106614114542
H            2.66329581305412        2.73912661909249        1.72562431984580
H            3.05775395548473       -0.69369546277216        4.16536137542516
H           -0.24710966264510       -4.12034095424229        4.22946223699121
H           -4.11477991332403       -3.04712728052358        3.03244694615357
O           -4.21824883374556        4.03433712717988       -0.87713382485991
O           -4.44510595673734        2.90643496899600       -2.81853501752979
C           -5.44216520282800        3.83300025693726       -3.02488532025093
C            4.23586651889298        1.50004220933226        3.59165660008449
O            5.05927614697201        0.66079890002952        3.91714215179376
O            4.47001334453535        2.86385149488593        3.72605651435371
C            5.79457498613219        3.08584475587818        4.15829123132174
O           -3.82227255313510       -5.27347675879771        4.16636005494405
O           -1.85023202017753       -5.79767454267276        5.06656077253571
C           -2.55119635829503       -6.86252441382958        5.62930343183426
C           -5.07197156564436       -1.42399175670916        1.58830531863830
C           -1.33089900128490       -2.23622472573986       -0.99264499351172
H           -2.54510546830388       -7.76426885143998        4.99136022291012
H           -3.57194749219491       -6.44405511486021        5.74196173723541
H           -2.09133598235598       -7.02043774843818        6.64022264233588
H            5.72707967266424        3.46798026205549        5.10135971236643
H            6.34060091246885        3.78468702308830        3.50069950143490
H            6.17933064298187        2.03010500085905        4.19342358084693
H           -0.91862729772622       -2.57650129080332       -0.01361370304871
H           -0.49769766914251       -1.60651221708571       -1.34094446550576
H           -1.52632419730509       -2.94569707152159       -1.75361447637286
H           -5.11788846557077       -2.41810833635233        1.17520213188926
H           -5.67929807973498       -0.69619639428435        1.04301666067831
H           -5.57598832326623       -1.42383358739762        2.57928294206544
H           -6.13050215934830        3.76035386975488       -2.23272855695873
H           -5.86615610071888        3.45938329385866       -4.02668959924245
H           -5.13479557532099        4.87790991548477       -2.98314551356402
C           -1.38192942069774        3.73616555005018        2.91232598411686
C           -1.84821468128685        2.59982427735607        3.49755545445181
C           -1.05946531454833        2.05730632010638        4.60922730982276
C            0.19893954712228        2.69376791964407        4.86302140881997
C            0.50425395911860        3.94630308659851        4.28768785650746
C           -0.26031777722226        4.46998310053134        3.25072669343212
C           -1.20488993561782        0.74454293276906        5.14851520323437
C           -0.06287609782692        0.02744069315890        5.60930570802864
C            1.19208754369866        0.71421540266195        5.78882868583885
N            1.19428660993148        2.06344359410476        5.62744624321596
C           -2.41361422770794        0.07928500213936        5.25249410304426
C           -2.45851584031083       -1.32662100968547        5.60237876023992
N           -1.29466212405906       -1.98318595734370        5.89916817085159
C           -0.14475655767527       -1.32117560077092        5.98824682881008
C            0.97209270935794       -1.98958449505532        6.53157704134458
C            2.21982707914082       -1.36973967291181        6.68703967237737
C            2.30561929262884       -0.09745313075593        6.26436900324455
C           -3.73018485967715        0.71367583494582        5.25810242262992
C           -4.89964478833448       -0.06184623426677        5.21204641615509
C           -4.82617965800088       -1.39228978090841        5.46901303780036
C           -3.67144193418464       -1.98914944386360        5.67265433266067
O           -3.75568638935321        2.07705011038914        5.52067969627343
O           -2.94192434743730        1.91263938797883        3.01658762327703
C            0.21273512614467        5.50086066357994        2.34765104514621
C           -6.06660304520411       -2.17604633098929        5.80641622556876
H            1.41756699010566        4.38133362238595        4.66974005703471
H           -1.82880610647429        4.11982501512100        2.06992133318584
H            3.26888037378556        0.32655662585251        6.31721410015598
H            0.87146188387207       -3.08471526305024        6.57830423410869
H           -3.67716811065157       -3.05999292755990        5.83019634570050
H           -5.77379677507622        0.43595144608221        4.71017130754348
O            1.34459852619901        5.82615848916894        2.44941456579099
O           -0.74718748219123        6.07961784856304        1.59848183464284
C           -0.21473095568964        7.24015934882472        1.05753806029483
C            3.53228080814219       -2.00967610361154        7.02506769044485
O            3.64093082622715       -3.14437803815732        7.50071391725347
O            4.56565258381079       -1.22937033368332        6.69086985080897
C            5.72579357310716       -1.80692399125161        7.22246151275881
O           -7.04801223588612       -1.95726935745904        5.14194115322235
O           -6.01514389321278       -2.93743591896022        6.94765316328794
C           -7.21292732384718       -3.62681918543340        7.15115816329978
C           -4.95459780685163        2.65960679932188        5.86868674392943
C           -3.68284113682406        2.59129188358641        2.05479246020704
H           -7.43119628931628       -4.22607794725959        6.20622607140901
H           -8.06548455146707       -2.91765848248592        7.29781126410398
H           -7.07314693247270       -4.33087306029711        7.91223421050944
H            6.57332189837178       -1.29353136199234        6.78341268688262
H            5.74663761932316       -2.84282155125561        6.88089468184451
H            5.69426191474290       -1.72781984964892        8.29460302186842
H           -4.10481209541493        3.44288266176275        2.60483747673152
H           -4.49244774344916        1.87419893016926        1.82433103764650
H           -3.18901540870812        2.85154642679373        1.06781919454921
H           -5.55414326821421        2.76698137191684        4.93950725322359
H           -4.78658370641210        3.62090640967288        6.25983200635257
H           -5.43485580473958        1.97242995129449        6.65265772412460
H            0.89164886030839        7.38838561720231        1.13776105146914
H           -0.62894889903848        8.04195665205089        1.64837664327952
H           -0.59282546386754        7.45699159724320        0.03719083132488
116
 energy: -22.490253985307 gnorm: 0.648573385449 xtb: 6.6.1 (8d0f1dd)
C           -2.43979925301287        0.07692777130542       -1.71652077341343
C           -1.59437627998591       -0.75471042828477       -0.96623131567173
C           -0.76009487070602       -0.12545170967795       -0.02556422940484
C           -0.57972999797366        1.24533039639548       -0.10488147159630
C           -1.57901538612694        2.06518196166891       -0.55152293778539
C           -2.51441154172866        1.53067833559343       -1.50655494649655
C           -0.14546853149510       -0.89857186626452        1.02814270480690
C            1.13491202983049       -0.33177684641964        1.25933928529965
C            1.41196666487950        1.05760964154663        1.02567076877929
N            0.40096787742595        1.90396720913661        0.54139755518834
C           -0.53619968474187       -2.01482998408590        1.81324484782904
C            0.53870726068344       -2.84721138652575        2.39213583074829
N            1.80607876863109       -2.38744101931097        2.42307998023663
C            2.07290284771538       -1.11523296311309        2.04969850489859
C            3.25951174129023       -0.50024270981969        2.51189882397168
C            3.52612661587038        0.82916265238665        2.17874835488823
C            2.65733147128162        1.60356993224826        1.43363305454215
C           -1.87794112760946       -2.49658082396735        2.16079242999459
C           -2.07664139721216       -3.72706438390490        2.76835242210195
C           -0.93297968665001       -4.54515375825743        3.30684106011305
C            0.37510749054513       -4.14056870292716        2.99454809116400
O           -2.86197502950078       -1.53496287116535        1.79487487740573
O           -1.69304086176977       -2.18073733481438       -1.06487663027182
C           -3.55476339146650        2.48085686246377       -1.90367064697046
C           -1.36755991116017       -5.34074821932917        4.56734707622906
H           -1.71132938886124        3.14215884148388       -0.09386614301876
H           -3.20729064846565       -0.54714371782707       -2.31288047543168
H            2.76448892310764        2.69508690325786        1.10567445658163
H            3.91003482963534       -1.10878540055545        3.27036401648027
H            1.21425796777320       -4.71350848522645        3.38819021999611
H           -3.01691913290952       -4.25573008396425        2.65926177410941
O           -3.66639947622103        3.59530921305101       -1.35762462359303
O           -4.49819880061865        2.16220724042030       -2.80105676047526
C           -4.80021539545851        2.98821232884216       -3.81527644525797
C            4.82396246945631        1.28409310187771        2.82325167132346
O            5.69162790080242        0.41764085102007        2.82358712026871
O            5.03544971311706        2.35154664918322        3.51555417879953
C            6.16676082047001        2.21243396018069        4.31138538712461
O           -0.54808891978066       -5.85692539826371        5.23158721130511
O           -2.67860906036222       -5.35024895615445        5.08156585376908
C           -2.84011171739828       -6.13192613131070        5.99887587433922
C           -4.13779104567232       -2.17065774686905        2.06863066092777
C           -0.33149165077985       -2.76002980976710       -1.05312924841861
H           -3.22427183070325       -5.44698005648534        6.79342685574140
H           -1.97357158093416       -6.77325033029372        6.30449680973989
H           -3.70841450344329       -6.71470061413737        5.90237413020927
H            6.01402284565666        2.53931978250207        5.35554177914416
H            6.79192504561525        3.17047823258666        3.86645957252591
H            6.98987220881382        1.48149643637461        3.99688934968971
H            0.23092422281679       -2.22112326476822       -1.77763504329595
H           -0.59690973378541       -3.87436500746722       -1.08836702131934
H            0.16127615729575       -2.71879394137825       -0.15651779845856
H           -4.23979596529995       -3.11633514497433        2.19744622482536
H           -4.85567124665968       -1.95498569326080        1.25838620178183
H           -4.48180015423096       -1.76447832242886        3.03866837465681
H           -5.12454286582842        4.10439525770257       -3.65857348971136
H           -5.56249364061806        2.43799321999048       -4.54361418488845
H           -4.07205764537639        3.03526732329300       -4.59379899459973
C           -2.36744362089755        4.24865521678621        3.73648678848249
C           -2.60961173177074        2.91057684958428        3.75394818703057
C           -1.58404663808933        2.22467241216467        4.65082844405990
C           -0.20109048897440        2.75603305965948        4.84888337914373
C           -0.26594801432564        4.10089118527420        4.85369250406850
C           -1.27026768307809        4.92271378146654        4.41548304198858
C           -1.76227330956702        0.93034962256904        5.03655040740178
C           -0.58469091291455        0.12112190856247        5.17587595880804
C            0.80779956360290        0.76260045425880        5.23727755648812
N            1.01469098972792        2.09679534624455        5.02687062135362
C           -3.05127931246887        0.38709048629661        5.38785732975918
C           -3.17831933354457       -0.91270807980885        5.64238852018191
N           -2.07062381909961       -1.79823545685144        5.54870554056422
C           -0.75531674149736       -1.24911913661979        5.57171576345586
C            0.47272305827302       -1.61617975345829        6.24087917975357
C            1.79012009160770       -1.10197447645863        6.11358999873149
C            1.98108252337311        0.11324444771427        5.48145703864762
C           -4.01016455897903        1.28057341680154        6.07638861708485
C           -5.36547775397635        0.90743554665006        6.13402687666631
C           -5.53069372850460       -0.43989399871734        6.05845305800015
C           -4.47270897416843       -1.33325387764957        6.03264422378203
O           -3.46711511073095        2.59324156406876        6.68569957856389
O           -3.41124990942184        2.02672678773055        3.10695218807936
C           -1.22300442998556        6.39614432958212        4.17097787383438
C           -6.82687488670898       -1.03522970037246        6.24784983767642
H            0.71560116764369        4.74436030298322        4.75265438847542
H           -2.69000140967369        4.90730296719416        2.99297678422062
H            3.15340003399384        0.34859243236032        5.26782064817980
H            0.26659472924602       -2.27552511004047        7.11095719116068
H           -4.56219584470365       -2.47398325170605        6.21173359006555
H           -6.24549894232178        1.58201758916274        6.06350972495440
O           -0.23950581951928        6.91886096605004        4.47896662501264
O           -2.28559179897183        7.02879130165404        3.52285581800579
C           -2.01940196454171        8.49061900267556        3.32122054828735
C            2.98083264029974       -1.88821335259675        6.50001531758565
O            3.36652063024554       -2.09675328546299        7.59974321303000
O            3.62352100419051       -2.23498385336423        5.35335033574543
C            4.90210992562454       -2.72095493846710        5.60430812348233
O           -6.84528604129835       -2.23185407444948        6.27452502851470
O           -7.96237481802857       -0.26916401015943        6.29557306658692
C           -9.14148580568811       -0.91794788409652        6.21375168771216
C           -2.72754988376798        2.13288697552004        7.76015156194175
C           -4.67288070033694        2.37886601233786        2.55081697613813
H           -9.42685812366886       -1.26726559348881        7.14293916491187
H           -9.16861519437774       -1.22197586237518        5.07082593877252
H           -9.84780074081905       -0.01966754065311        6.12271369303612
H            4.91570241167541       -3.86807133382414        5.46560802109726
H            5.19414330233720       -2.32279337820384        6.49597711448216
H            5.44390090871723       -2.16557644806554        4.80491526943660
H           -5.18693178933054        2.59579021297817        3.51393479631102
H           -5.08523373880577        1.54398557785007        2.00030192588597
H           -4.11073210469062        3.42189884231236        2.14773280731523
H           -3.32689769483444        1.48854636968739        8.20049474901488
H           -2.53141554142424        2.99285854243207        8.57656934143013
H           -1.73793205024415        1.91373148402112        7.23971395871943
H           -2.61457167209326        9.12435818652687        2.71092751846736
H           -0.87211169876952        8.23846465959765        3.14918104020053
H           -2.14310098042658        8.94789174464349        4.41534554843455
116
 energy: -22.532095880532 gnorm: 0.575441805095 xtb: 6.6.1 (8d0f1dd)
C           -2.69163937730851       -0.26300317349216       -1.30614919921356
C           -1.74581480618743       -1.08486319419014       -0.66697872844379
C           -0.52167679224907       -0.49996529074674       -0.15699856053850
C           -0.38271517468219        0.96739783967536       -0.12146634766832
C           -1.39318517108305        1.59540045406552       -0.82128174358922
C           -2.41619699955000        1.11466714367483       -1.45117566159108
C            0.28464495700695       -1.10827886289896        0.93193597656777
C            1.43135194213299       -0.48589325620111        1.29740845644042
C            1.54539324901959        0.88522488682018        1.06270013064751
N            0.59242639943879        1.68936370795450        0.46026676980033
C            0.04226482770448       -2.25845903375063        1.74843209548357
C            1.07496994817474       -2.87692358171922        2.35599118338908
N            2.31576657257592       -2.58654335765901        2.29376379594221
C            2.51674656170577       -1.26304236021838        1.91041132258880
C            3.71478927360220       -0.50784303504737        2.22724635451711
C            3.81684270731737        0.81612712584236        2.00982121371123
C            2.64567083447010        1.55001314226324        1.59228898552763
C           -1.19993794788823       -2.18403355572973        2.37409437052580
C           -1.39234471907236       -3.15926275547254        3.37558321024082
C           -0.57703432148494       -4.16724615706558        3.56594254283876
C            0.70537702741858       -3.87611267538340        3.27873781785351
O           -2.08490193522269       -1.16116587510647        1.88540633835199
O           -1.76392367440807       -2.41584436368707       -0.55836089751472
C           -3.14446313483725        2.05303783627966       -2.41115736037494
C           -0.90770615420360       -5.31692733097602        4.24230194430802
H           -1.32827052695009        2.65072119319590       -0.80138139353632
H           -3.46936192254327       -0.69870385382099       -1.83837074539529
H            2.44761217528655        2.66294923729490        1.43831607970015
H            4.74695237995250       -0.92276924150714        2.39504461739242
H            1.29080780139829       -4.61236407275880        3.78150319083127
H           -2.28615722047904       -3.10646197403954        3.97628509082142
O           -3.14006846546724        3.28481383665938       -2.12310351363158
O           -3.57199268273047        1.73867960490192       -3.70807235373774
C           -4.39736874853882        2.99239401559146       -4.08766889124588
C            4.98498201198117        1.54852081898992        2.09232748169887
O            5.82906716469774        1.58728064352961        1.14682336469045
O            5.18838772217779        2.09618297114939        3.38674349974908
C            6.64947791908160        2.31561706341884        3.38483557609603
O           -1.30847149795174       -5.17457536178095        5.42679798059668
O           -0.91486795537282       -6.58558971125737        3.71724725232528
C           -1.31619451085880       -7.43064573842822        4.75591471500907
C           -3.43646463157190       -1.23814714135911        2.07891775342784
C           -3.11254051051142       -2.77407839763321       -0.84335883862103
H           -1.81344132372519       -8.34444775030234        4.37997022160626
H           -1.85070692853108       -6.88349441921730        5.48708016623298
H           -0.13124853608696       -7.63567105447766        5.00528944788172
H            6.95620974689556        3.30704364756409        3.77031366561008
H            7.20483791656763        2.09216989866001        2.40757721437893
H            7.03911267546127        1.71155229126056        4.26102463146994
H           -3.09030206023187       -3.72301222647894       -0.36190463721208
H           -3.01394783984848       -2.74612480370600       -1.96702248166480
H           -3.90933019629870       -2.24660299274297       -0.31835133599163
H           -3.60387258835314       -2.09028071785289        1.51957402865019
H           -3.81643297716976       -0.33338431187186        1.52143492280108
H           -3.68255572942136       -1.04889142650872        3.16065062395975
H           -5.02671939594537        3.51562731925269       -3.21077220117354
H           -5.00594662170465        2.59669064494711       -4.80028288521571
H           -3.70451258325125        3.83273902071983       -4.50827004414674
C           -2.58973266623047        4.42897587006250        3.90230142357617
C           -2.69188249137777        3.08945185358890        4.42598206045176
C           -1.83073063345137        2.61006155453549        5.41625761959158
C           -0.48661240479281        3.11316274915262        5.48842967682866
C           -0.32077985339154        4.28550676628948        4.92176683931331
C           -1.29905949747144        4.91382855374506        4.21173965550078
C           -1.98638544588189        1.32755386796420        6.07334200772901
C           -0.85256572774477        0.54247251784172        6.31250187352512
C            0.45090463665560        0.97584056836124        6.06972647287710
N            0.49175793077763        2.23781545977610        5.69033235268410
C           -3.39695188116620        0.90446655279475        6.35967142466041
C           -3.42749590378382       -0.54859938049533        6.72134893312622
N           -2.26290194474122       -1.33529664734398        7.11773358166473
C           -1.07998550232402       -0.82711358453282        6.77724488073641
C            0.01229797436974       -1.77146887225016        6.78265051433228
C            1.19627191875796       -1.34830240034634        6.33724540585556
C            1.40943981390300       -0.05441022756021        5.93381029946090
C           -4.72600098390587        1.57418079347792        6.45064449732175
C           -5.95225398395534        0.88282965896358        6.35848215925106
C           -5.86318557697446       -0.54972399998980        6.25383022492577
C           -4.67969105180468       -1.16477607444276        6.64452043446814
O           -4.78675020413732        2.93523449819212        6.99804599861102
O           -3.74145910678462        2.30031057542941        3.92005732745866
C           -1.02082911093121        6.19947125259497        3.64205846283088
C           -7.08134586348744       -1.33677049534837        6.00559697317463
H            0.83036995826511        4.57690849590438        4.68666091288795
H           -3.52265858130591        5.03895711564337        3.70459256392336
H            2.47060029485526        0.19637227329024        5.77429802282472
H           -0.27860309319838       -2.79927739331418        7.07965634990612
H           -4.99054724868378       -2.21501799172551        6.83615014660193
H           -6.85104758617602        1.23851745004395        6.73643754809973
O           -0.61098468377927        6.57751119545076        2.47090805432050
O           -1.53469089163698        7.12952951432515        4.54960464088995
C           -1.05834880008294        8.39813742893074        4.09893266716426
C            2.36424808942011       -2.25335671418098        6.18010637019149
O            2.10782162652970       -3.42157021676980        5.84063156908950
O            3.63794146907062       -1.69664124416086        6.53424767325091
C            4.44660687669549       -2.49065159112778        5.56595043547747
O           -6.98712453153006       -2.55873407374946        5.92702708124785
O           -8.13250303934452       -0.69630864425352        5.32714958324107
C           -9.09392726577437       -1.58637221726252        4.81023806932502
C           -3.84895004014260        3.14727992357405        8.25587096173154
C           -4.29652822334416        2.73737219172328        2.64951344403251
H           -9.36336756133889       -2.57781505883267        5.22135330469131
H           -9.01340916596739       -1.53323964616211        3.67686314822881
H           -9.98165503540509       -0.96809344114149        4.96560868497092
H            5.47331129037078       -2.24357515897470        5.69539851609007
H            4.22074919535344       -2.31640162157136        4.40278043607685
H            4.33727169054801       -3.57554725726166        5.90730562332854
H           -4.70152628835682        3.73291652098106        2.55466192115793
H           -5.02742308941146        1.96033010601453        2.19106005287142
H           -3.45971155215051        2.82957885580879        1.93964235928542
H           -3.19265238379944        2.27034631300698        8.58637434326884
H           -4.46565572187374        3.31983517314857        9.30954305816696
H           -3.50295290902691        4.16535753204623        8.29742020412298
H           -1.19242163662012        8.50249129991757        3.03167073652909
H            0.10548599230269        8.12315297458898        4.16776773753433
H           -1.44192617361726        9.19524567681738        4.80042158668684
116
 energy: -22.483301992495 gnorm: 0.688262941779 xtb: 6.6.1 (8d0f1dd)
C           -2.87730744286225       -0.27444983685671       -1.16374624100641
C           -1.84477051368054       -0.69723302331276       -0.31357664267139
C           -0.97220277233173        0.12184403795032        0.40149649204156
C           -0.70800258680886        1.39586898145332       -0.15359543702829
C           -1.61894755409676        1.85451160500493       -1.09629388526691
C           -2.78303773422351        1.14435620594190       -1.60039845451256
C           -0.13977242324424       -0.36136534011833        1.40163354705703
C            0.99761857658057        0.39423046016880        1.69336314718794
C            1.23634960972070        1.53793922968568        0.91998883709375
N            0.27003272962624        2.20347931792492        0.27834674696417
C           -0.36426510141548       -1.56450006214491        2.37400516893022
C            0.88107700745133       -2.15325081227133        2.71673451637778
N            1.94123262928753       -1.40278106748192        3.01656588700652
C            2.00375697865033       -0.08604753936965        2.53752904299013
C            3.29764666873505        0.41579344571788        2.66779772566941
C            3.51094370269992        1.68486193319986        2.01785277871522
C            2.50646860375779        2.11232472418754        1.09961331467023
C           -1.57264317288348       -2.13334529496814        2.43440204173560
C           -1.55425168843849       -3.49318443209423        2.81348785106037
C           -0.42308961351681       -4.13303889798507        3.24351991222353
C            0.81665850124816       -3.46021878810023        3.28818430039613
O           -2.68709516113470       -1.30072821574877        2.41240392280806
O           -1.43065629023008       -1.98820659166230       -0.36719646736207
C           -3.60445396700217        2.01099798428792       -2.38742587904980
C           -0.59766402628035       -5.65356612430043        3.54531561889517
H           -1.48570220803135        2.86170667283768       -1.41352321065990
H           -3.17282443917646       -0.93880279054659       -1.88674251334167
H            2.78005888653562        2.99288159514574        0.56438818807280
H            3.90104378279173       -0.14618557178697        3.21556535889827
H            1.61475978959151       -3.78083309016409        3.93211369140206
H           -2.46069483764912       -4.10144899674175        2.51855814241113
O           -3.03600865700396        2.98990753415015       -2.65091798497565