116
 energy: -22.928061455056 gnorm: 0.329736929581 xtb: 6.6.1 (8d0f1dd)
C           -3.31122850772930        0.79849766164622       -0.92477639677520
C           -2.44380812530352       -0.12270372891954       -0.27661132624697
C           -1.41337090092821        0.39579727573559        0.56335275196199
C           -0.89266158675590        1.65801491088749        0.27377586709581
C           -1.72665675402493        2.51431363229076       -0.49448366572522
C           -2.95444148494349        2.13954154133227       -1.01494489940871
C           -0.74098268209890       -0.43411532818871        1.49825021926784
C            0.56872586496315        0.03782116815119        1.86248088067890
C            1.03782416582094        1.29402317993033        1.50887470833621
N            0.31238977034758        2.07067427098208        0.65193736800696
C           -1.29695700510141       -1.39996043042223        2.41574187746061
C           -0.38243517664656       -2.18060797534842        3.13232615520648
N            0.91308504082021       -1.90366887689689        3.30325166013478
C            1.37712470144904       -0.74872102533751        2.81811050966982
C            2.52149331701875       -0.17739833758153        3.39379298866852
C            2.95849061756259        1.02681208890480        2.95105897606587
C            2.24288949469137        1.78498308775960        2.03503020483770
C           -2.74860936222260       -1.74497937691422        2.38401158947411
C           -3.09416315450955       -2.91614440870436        3.00571134491758
C           -2.16786021984049       -3.77788778654213        3.63251872101904
C           -0.85708937311598       -3.40495313382985        3.68547234358092
O           -3.71994433332149       -0.94984598373544        1.67726658385724
O           -2.55702603277562       -1.47241711578389       -0.57241635275616
C           -3.84297843593025        3.13357444054366       -1.60938954875544
C           -2.68769581069131       -5.03867041417370        4.30484659386931
H           -1.39666850744143        3.51251503834900       -0.76806311868865
H           -4.27662633836220        0.55105838579656       -1.33106614114542
H            2.66329581305412        2.73912661909249        1.72562431984580
H            3.05775395548473       -0.69369546277216        4.16536137542516
H           -0.24710966264510       -4.12034095424229        4.22946223699121
H           -4.11477991332403       -3.04712728052358        3.03244694615357
O           -4.21824883374556        4.03433712717988       -0.87713382485991
O           -4.44510595673734        2.90643496899600       -2.81853501752979
C           -5.44216520282800        3.83300025693726       -3.02488532025093
C            4.23586651889298        1.50004220933226        3.59165660008449
O            5.05927614697201        0.66079890002952        3.91714215179376
O            4.47001334453535        2.86385149488593        3.72605651435371
C            5.79457498613219        3.08584475587818        4.15829123132174
O           -3.82227255313510       -5.27347675879771        4.16636005494405
O           -1.85023202017753       -5.79767454267276        5.06656077253571
C           -2.55119635829503       -6.86252441382958        5.62930343183426
C           -5.07197156564436       -1.42399175670916        1.58830531863830
C           -1.33089900128490       -2.23622472573986       -0.99264499351172
H           -2.54510546830388       -7.76426885143998        4.99136022291012
H           -3.57194749219491       -6.44405511486021        5.74196173723541
H           -2.09133598235598       -7.02043774843818        6.64022264233588
H            5.72707967266424        3.46798026205549        5.10135971236643
H            6.34060091246885        3.78468702308830        3.50069950143490
H            6.17933064298187        2.03010500085905        4.19342358084693
H           -0.91862729772622       -2.57650129080332       -0.01361370304871
H           -0.49769766914251       -1.60651221708571       -1.34094446550576
H           -1.52632419730509       -2.94569707152159       -1.75361447637286
H           -5.11788846557077       -2.41810833635233        1.17520213188926
H           -5.67929807973498       -0.69619639428435        1.04301666067831
H           -5.57598832326623       -1.42383358739762        2.57928294206544
H           -6.13050215934830        3.76035386975488       -2.23272855695873
H           -5.86615610071888        3.45938329385866       -4.02668959924245
H           -5.13479557532099        4.87790991548477       -2.98314551356402
C           -1.38192942069774        3.73616555005018        2.91232598411686
C           -1.84821468128685        2.59982427735607        3.49755545445181
C           -1.05946531454833        2.05730632010638        4.60922730982276
C            0.19893954712228        2.69376791964407        4.86302140881997
C            0.50425395911860        3.94630308659851        4.28768785650746
C           -0.26031777722226        4.46998310053134        3.25072669343212
C           -1.20488993561782        0.74454293276906        5.14851520323437
C           -0.06287609782692        0.02744069315890        5.60930570802864
C            1.19208754369866        0.71421540266195        5.78882868583885
N            1.19428660993148        2.06344359410476        5.62744624321596
C           -2.41361422770794        0.07928500213936        5.25249410304426
C           -2.45851584031083       -1.32662100968547        5.60237876023992
N           -1.29466212405906       -1.98318595734370        5.89916817085159
C           -0.14475655767527       -1.32117560077092        5.98824682881008
C            0.97209270935794       -1.98958449505532        6.53157704134458
C            2.21982707914082       -1.36973967291181        6.68703967237737
C            2.30561929262884       -0.09745313075593        6.26436900324455
C           -3.73018485967715        0.71367583494582        5.25810242262992
C           -4.89964478833448       -0.06184623426677        5.21204641615509
C           -4.82617965800088       -1.39228978090841        5.46901303780036
C           -3.67144193418464       -1.98914944386360        5.67265433266067
O           -3.75568638935321        2.07705011038914        5.52067969627343
O           -2.94192434743730        1.91263938797883        3.01658762327703
C            0.21273512614467        5.50086066357994        2.34765104514621
C           -6.06660304520411       -2.17604633098929        5.80641622556876
H            1.41756699010566        4.38133362238595        4.66974005703471
H           -1.82880610647429        4.11982501512100        2.06992133318584
H            3.26888037378556        0.32655662585251        6.31721410015598
H            0.87146188387207       -3.08471526305024        6.57830423410869
H           -3.67716811065157       -3.05999292755990        5.83019634570050
H           -5.77379677507622        0.43595144608221        4.71017130754348
O            1.34459852619901        5.82615848916894        2.44941456579099
O           -0.74718748219123        6.07961784856304        1.59848183464284
C           -0.21473095568964        7.24015934882472        1.05753806029483
C            3.53228080814219       -2.00967610361154        7.02506769044485
O            3.64093082622715       -3.14437803815732        7.50071391725347
O            4.56565258381079       -1.22937033368332        6.69086985080897
C            5.72579357310716       -1.80692399125161        7.22246151275881
O           -7.04801223588612       -1.95726935745904        5.14194115322235
O           -6.01514389321278       -2.93743591896022        6.94765316328794
C           -7.21292732384718       -3.62681918543340        7.15115816329978
C           -4.95459780685163        2.65960679932188        5.86868674392943
C           -3.68284113682406        2.59129188358641        2.05479246020704
H           -7.43119628931628       -4.22607794725959        6.20622607140901
H           -8.06548455146707       -2.91765848248592        7.29781126410398
H           -7.07314693247270       -4.33087306029711        7.91223421050944
H            6.57332189837178       -1.29353136199234        6.78341268688262
H            5.74663761932316       -2.84282155125561        6.88089468184451
H            5.69426191474290       -1.72781984964892        8.29460302186842
H           -4.10481209541493        3.44288266176275        2.60483747673152
H           -4.49244774344916        1.87419893016926        1.82433103764650
H           -3.18901540870812        2.85154642679373        1.06781919454921
H           -5.55414326821421        2.76698137191684        4.93950725322359
H           -4.78658370641210        3.62090640967288        6.25983200635257
H           -5.43485580473958        1.97242995129449        6.65265772412460
H            0.89164886030839        7.38838561720231        1.13776105146914
H           -0.62894889903848        8.04195665205089        1.64837664327952
H           -0.59282546386754        7.45699159724320        0.03719083132488
116
 energy: -22.780446676555 gnorm: 0.444800435603 xtb: 6.6.1 (8d0f1dd)
C           -2.88456461559198        0.24246083227194       -1.80832827478285
C           -2.44921971291389       -0.58182566237669       -0.70592987035038
C           -1.36198192682160       -0.10462253704229        0.10398421997104
C           -0.83112480151230        1.17374791300745       -0.18510794286689
C           -1.39217918887993        1.96639861494385       -1.15438105593313
C           -2.31960550018361        1.46380381717030       -2.03491684903665
C           -0.61205001504819       -0.81766895395356        1.18295298585247
C            0.63065346155082       -0.24673329503160        1.50728248554316
C            0.92362407226321        1.05143399236848        1.25715529608323
N            0.20305298557991        1.81050668716487        0.47614318327474
C           -1.19139881760792       -1.81772289505493        2.02783452450252
C           -0.30401095470420       -2.51334864147261        2.84998071120153
N            1.06548062172230       -2.12636251635969        2.99210162992195
C            1.46808471083548       -1.02716383402565        2.34550090667515
C            2.73463652923382       -0.44955464606727        2.80622506426653
C            3.02901529592444        0.86221944952520        2.37456935518358
C            2.10259817225004        1.68908918197716        1.76450279165660
C           -2.61294384456174       -2.03395983321869        2.26428197542166
C           -3.00699062876206       -3.24900137944146        2.80882682264790
C           -2.10489402455040       -4.02958705080538        3.50691525208167
C           -0.77438089589070       -3.52910653608412        3.55846444773188
O           -3.62225849049959       -0.90589996711066        2.22311390513722
O           -2.70250338624558       -1.89132567541849       -0.50348024920296
C           -2.76890470555770        2.25646008239052       -3.25263117538610
C           -2.47459634281317       -5.31837010914996        4.03336055520634
H           -0.91537645876115        2.96133459410398       -1.37550320682436
H           -3.77080308257838       -0.16944018741918       -2.26944093954570
H            2.54493829748462        2.55659091863401        1.28108120137905
H            3.30915586794299       -0.99714016285064        3.55572958725284
H           -0.12425764343854       -3.94000062758765        4.23451909797061
H           -4.00192448135273       -3.55590360139513        2.61169593761566
O           -1.97132878784093        2.88761135892394       -3.86758042978303
O           -4.09949323564704        2.10701364054339       -3.56895784420162
C           -4.50737135221363        2.80250626416722       -4.75619845860187
C            4.38904613208757        1.50429270490065        2.48404654151927
O            5.44948576851815        0.92428822198028        2.62364617740591
O            4.49715205517567        2.88931938125651        2.36967044417827
C            5.68710477851986        3.44334556593027        2.88817102286716
O           -3.70875312038074       -5.62281420318535        3.93383687181969
O           -1.54740578857667       -6.18313782203348        4.53683560489558
C           -2.24121571028529       -7.24740627514644        4.90148180305358
C           -4.84625974288553       -0.96968479893565        2.87154713895177
C           -2.96869440835265       -2.57543579418825       -1.72161025983501
H           -1.52975755721050       -8.12720454051901        5.02126048341038
H           -2.90615820452492       -7.63622309979478        4.07400288617062
H           -2.67528341946821       -7.12928011731902        5.81832271517355
H            5.38140291885948        4.41575898991579        3.20046406607198
H            6.57620819387267        3.46058009818001        2.28349394452899
H            5.78647528827324        2.73381202052967        3.71338431468690
H           -2.65360080805447       -3.61329392451236       -1.83911148808642
H           -2.27414933010404       -2.17835707782442       -2.46468405652499
H           -4.04203048032273       -2.25193653366966       -1.85477998011864
H           -5.56084601581537       -1.67375090319665        2.37702927494456
H           -5.28315574610197        0.02550549472862        2.93382164949899
H           -4.70580233744587       -1.23684777346104        3.86496719603678
H           -4.85289268709525        3.80454606206207       -4.36862248721371
H           -5.22230945396561        2.39799915239145       -5.51795211159829
H           -3.57432446845656        2.80315595893648       -5.28465725337702
C           -1.93715573174840        4.41558791590735        4.18528890655410
C           -2.11975980352451        3.09993894780113        4.66500405640900
C           -1.12032108144219        2.39655437635223        5.39983231087587
C            0.16153460436238        2.91068013041368        5.32062055384205
C            0.42258798415659        4.15710406258569        4.86616754383657
C           -0.67261093955012        4.96897274509851        4.42029160573228
C           -1.27143267169074        1.09400495415948        5.94426684581948
C           -0.09672124735882        0.27391138496630        5.92735923410615
C            1.21905900543188        0.83067144783187        5.75434444184199
N            1.26550474283067        2.14481977477040        5.68741859524632
C           -2.59464528977421        0.41299561489045        6.27226939491376
C           -2.57692475181187       -1.01898789536942        6.09793581091140
N           -1.45691257680614       -1.73235825687350        6.08521411689084
C           -0.25818254181404       -1.10388474510309        6.23398605123356
C            0.89301661060344       -1.78698366311544        6.48529096338195
C            2.14816887898107       -1.26254769499234        6.47616879167000
C            2.34167766735635        0.10166950300451        6.17868586257758
C           -3.79039379800706        1.09797388262437        6.60800555010552
C           -4.90691610007809        0.35893439847589        6.70614892039911
C           -5.03404673765995       -0.95375373813252        6.31491667377616
C           -3.83766834067142       -1.66086357793469        6.08923514793559
O           -3.74712610700808        2.52449586021253        6.80200536748611
O           -3.11559994066361        2.39003145836879        4.06092577508856
C           -0.39491039016958        6.32575923739547        3.93162766760787
C           -6.29299690157560       -1.70337988719572        6.54462978294860
H            1.43373864631498        4.56997133095625        4.89691070589004
H           -2.73243083532215        4.84012689649369        3.51946399810332
H            3.12692261351445        0.53288024671422        6.84124240997783
H            0.91136008365258       -2.84670733956081        6.80073753813626
H           -4.01668900649541       -2.61560858788978        5.68168183874833
H           -5.95857972777926        0.80769946428000        6.97261132283830
O            0.12571366627809        7.23233034242553        4.60175238274344
O           -0.84342589052932        6.66279459364449        2.66651849585820
C           -0.71545140282258        8.06763426668960        2.66409612129731
C            3.32320335680447       -2.01687345238435        6.85749574424097
O            3.09568082698973       -3.14758184783817        7.26720110609253
O            4.58349752423566       -1.31624064704312        6.85108155832405
C            5.49437869947150       -2.35313086265495        7.06789359191511
O           -7.12472639551831       -1.25585965710460        7.29743985887862
O           -6.47838482584599       -2.93693419855626        5.96293977320215
C           -7.67708294144322       -3.56975487854533        6.38459132455770
C           -4.87795367138285        3.24442151628378        6.36129470731555
C           -3.01132039668485        2.35683996146557        2.65614115670583
H           -8.62287304846111       -2.96188987979748        5.97963993102606
H           -7.89355661231943       -3.63720060749048        7.42590717757771
H           -7.70820577832981       -4.60262161108383        6.07202628370042
H            5.40759367484104       -3.10452835430326        6.22965985081773
H            5.58845877533660       -2.62103103155214        8.19086595829665
H            6.49723492708966       -1.83415208186160        7.05232222150542
H           -3.95558330940648        2.71200920056293        2.13365190496274
H           -2.87961385497093        1.35069752123534        2.18252770133195
H           -2.37853525483875        3.11740523375710        2.22406154778814
H           -5.12528464166891        2.50536561050073        5.50940753309157
H           -4.81432381002942        4.35558389272906        6.02479323006977
H           -5.59314322476821        3.19453578609373        7.08722678118989
H           -1.20666599804136        8.53486021667075        1.77845803410417
H            0.43890680935803        8.18652295612790        2.41981747761900
H           -0.81530590914017        8.52723008661022        3.62096757731739
116
 energy: -22.739283553526 gnorm: 0.478743877835 xtb: 6.6.1 (8d0f1dd)
C           -3.38052484452858       -0.44230953439486       -1.57770161225194
C           -2.75227814692972       -0.95348236700379       -0.49445723652861
C           -1.67097754854728       -0.19058470452963        0.21820979784066
C           -1.13769993938134        1.02328614228005       -0.36006607575141
C           -1.92084428765600        1.55875123389236       -1.42895791686198
C           -2.90512493210143        0.81597610319746       -1.94801196791784
C           -1.02012988363565       -0.76956847762630        1.32300882251672
C            0.24359833012379       -0.20945490904825        1.71995132569342
C            0.65524138187681        1.09616166568438        1.12145063019306
N           -0.01408008507983        1.61812812843594        0.13106932972112
C           -1.29833705998619       -1.92778934285628        2.11041882500743
C           -0.21897538050256       -2.74199120801202        2.61619516588276
N            1.00344104689286       -2.19658836179464        2.78469901100157
C            1.20258925342779       -0.95495784669828        2.42628863170794
C            2.43911866994732       -0.25336681107233        2.67368677803346
C            2.61945804437909        1.10059485670641        2.46342168068572
C            1.70695183427234        1.77061953181755        1.66375702531459
C           -2.62934810902607       -2.24091135716035        2.52043275662454
C           -2.75006909313466       -3.51791490619750        3.03044745177099
C           -1.79504717806094       -4.52582667909109        3.17016696706538
C           -0.37968265695464       -4.17702840947934        2.98160875514463
O           -3.65188653618321       -1.25816656418851        2.18058520340248
O           -2.78880170596097       -2.34564874166490       -0.21162054232868
C           -3.62555150357091        1.45676473381772       -3.05136966154160
C           -2.27193339411587       -5.73221470028589        3.94287435106491
H           -1.71156242035576        2.59790209742403       -1.88175485074025
H           -4.21569454308913       -0.78387615961838       -2.07497353453356
H            2.00165441214274        2.79986692423512        1.56784631225752
H            3.20194976699782       -0.85095888421582        3.02683014470700
H            0.22998766791583       -4.62181046970370        3.62899409800427
H           -3.55620141095766       -3.61024103227398        3.76628651695203
O           -3.82437199718437        2.70550628117178       -3.17934970692921
O           -4.00288772536853        0.51451648645457       -3.98805076871369
C           -3.63182244151129        0.99135877785818       -5.23611920935561
C            3.88484105447950        1.74255274016036        2.99434658159019
O            3.71555115143157        2.70478311847201        3.71343109032215
O            5.02653499504599        1.27175812354533        2.51617376367805
C            6.06373552688733        2.02796424972490        3.00294920486002
O           -3.35815037512429       -5.97200030496159        4.29064744084737
O           -1.14661450597315       -6.50399267432088        4.27717865787867
C           -1.33548322359208       -7.35307882087874        5.37706091954545
C           -4.96214311687506       -1.81434942115546        2.02584090334385
C           -3.31489351687529       -3.24564021249921       -1.18870091950566
H           -1.77160161421822       -8.43141148305802        5.22931011442276
H           -2.00145702536403       -6.95634626016760        6.13047244734975
H           -0.34207097169899       -7.39806660322588        5.81917364674430
H            5.73074774361414        2.98227489485777        3.45910315605850
H            6.62959712318947        2.23607107806297        1.98658467769446
H            6.54886651022519        1.29183896002393        3.63257684810336
H           -3.35607338045549       -4.17577886573549       -0.65802254684331
H           -2.73035009837090       -3.48955817002024       -2.06136201967068
H           -4.33332189166689       -2.91641739464336       -1.48579768326908
H           -5.19335907103955       -1.66132264557634        0.99295235534478
H           -5.78480846912439       -1.24848793506132        2.44471154793612
H           -4.94388738262038       -2.89091285520683        2.37653189192289
H           -3.76621823200893        0.17598780011352       -5.99942425838989
H           -2.69291590157634        1.45366252283934       -5.09522639295514
H           -4.53986270199153        1.63429973531217       -5.56533023429750
C           -1.66899658476165        5.01456281493957        4.66362505228998
C           -1.91026045936138        3.62828738178433        4.41660477615933
C           -0.89058784353327        2.80423000649781        5.10674110948494
C            0.44188101058515        3.31582359804833        5.47968992212098
C            0.67788298613053        4.71926223525831        5.29945276917475
C           -0.41887760453582        5.47561516444063        5.15773078504082
C           -1.06066978660854        1.45453356128708        5.44281458608208
C           -0.02462835439147        0.56824271912713        5.69194610418065
C            1.22899430733347        1.19095341934906        5.83707787975838
N            1.49066783567733        2.55617262959297        5.77996906022473
C           -2.38473940781607        0.89265595103871        5.69807293058519
C           -2.40930869687909       -0.55001558619109        5.79343609668486
N           -1.45211970193668       -1.46220612324341        5.52898751723091
C           -0.22874604756121       -0.89885174258892        5.65831445777873
C            0.93473045871085       -1.54475852619978        5.88743154270518
C            2.19964692564528       -0.89802495814161        5.87857119121726
C            2.33645981668323        0.42868030590500        5.88692653507111
C           -3.61072521982234        1.60008236050325        6.03372527760503
C           -4.87534286295158        0.98152499982450        5.85408713784287
C           -4.86563897958220       -0.40730857252503        5.79055623601725
C           -3.71451173893530       -1.15769377099227        5.81885347150902
O           -3.34727434656168        2.86411950917021        6.48279098091028
O           -2.98335857925984        3.27256590063451        3.64723294749968
C           -0.04740447727012        7.03341371788982        5.45497894833186
C           -6.19805132081231       -1.09140871227354        5.54848798042034
H            1.58071615652042        5.10255788585546        5.66672312032986
H           -2.44644027326981        5.82272132805150        4.35044706742109
H            3.21510476394703        0.97181887804566        6.11908945229017
H            0.76555549372224       -2.54677019314261        6.33846695339935
H           -3.64756953899750       -2.27407363014563        5.67059348701581
H           -5.82923497022703        1.50965006721748        5.74051780917716
O            1.10323669876399        7.41681353425124        5.46322550146768
O           -1.07877694286293        7.89517163854008        5.61119626368406
C           -0.76234400785122        9.19118745029022        5.37942302624242
C            3.18567464352123       -1.96386776178525        6.24568258248921
O            2.74959913462316       -3.02149506504596        6.82518163141178
O            4.49332427088777       -1.57363254202871        6.05821435946630
C            5.22367280458705       -2.72136995826734        6.44285102071085
O           -7.18399108572351       -0.36925115008088        5.28204353041088
O           -6.31665818942821       -2.46081420831998        5.62668840640635
C           -7.52589428566308       -2.98031873532406        5.43163101753565
C           -4.46966112041558        3.61023616344868        7.03498013896251
C           -2.88350029885349        2.18004676444100        2.82090571568500
H           -7.77572849520144       -2.74428530865703        4.48081215928176
H           -8.22509491654335       -2.45742824465062        6.11687894953543
H           -7.52169313947753       -4.10801915549261        5.55303301973071
H            5.34132772557295       -2.83126770074546        7.45784280999167
H            6.18070194624158       -2.38374153985463        6.12226937066658
H            4.66602343352044       -3.65853328861658        6.19886871748913
H           -3.75481105637823        2.00689607900519        2.19386289491322
H           -2.57126576868591        1.24249343409703        3.25192283099184
H           -2.19532573718172        2.31149800772545        1.95185575211111
H           -5.01242707660888        4.00181116173010        6.18260200220504
H           -3.84605267449851        4.15608145883846        7.89158554234662
H           -5.14166563502225        2.97969003612973        7.71019822448031
H           -1.64960205703871        9.81115539421748        5.64140317163524
H           -0.67343149744814        9.39095027149859        4.35063477328733
H            0.16621642096091        9.27738358254914        6.06124023608590
116
 energy: -22.779393739215 gnorm: 0.455749285365 xtb: 6.6.1 (8d0f1dd)
C           -3.71077935457805       -0.85741479374337       -1.60936767161968
C           -2.73809853241896       -1.67849477472103       -0.85279925694801
C           -1.96936786233510       -0.92006564674958        0.15205825504695
C           -1.80245470657396        0.48934560041263       -0.07745412227518
C           -2.70403786324954        1.18625197290420       -0.90911385957142
C           -3.60655194237274        0.57235903674921       -1.67138579170060
C           -1.05552382386386       -1.38979755244937        1.20164606719254
C            0.00990722714724       -0.61273523839834        1.61113811185277
C            0.18750685890875        0.72163601288541        1.05331705955790
N           -0.86355883002677        1.31094798935698        0.49224169645878
C           -1.20460033230248       -2.55086268721128        1.94637525797174
C           -0.15089695723831       -3.08409883825088        2.68616983045010
N            0.97352529443116       -2.36957462108873        3.03095850857242
C            0.96168599552857       -1.14042091510911        2.59219126183211
C            2.00245360503056       -0.31256735198996        3.08089520804836
C            2.37174623785023        0.87634174901040        2.35522102761690
C            1.41749937092244        1.43098960152474        1.40458666658374
C           -2.49317701045129       -3.19004179650902        2.10023517623309
C           -2.56090825435450       -4.36443059789017        2.89926129510838
C           -1.37791535940580       -5.01946258306721        3.33976709329505
C           -0.19391029133764       -4.33399989860243        3.32947445560051
O           -3.53223545566558       -2.54945656043852        1.45472697469740
O           -2.37258781528705       -2.97655321634274       -1.06112333250904
C           -4.35354127119136        1.30347051306874       -2.83000627878400
C           -1.68800100848285       -5.97600731279445        4.52047902718793
H           -2.69119422022406        2.30075745791153       -0.89361232560400
H           -4.22942713258786       -1.27702550944173       -2.40334882053876
H            1.72457222351366        2.25069570783772        0.86326330239902
H            2.76817618850989       -0.65747259417661        3.74281368473499
H            0.60788009715100       -4.67965021814326        3.86155102746439
H           -3.36939868674816       -4.99895113152365        3.18614793330022
O           -4.21835402706563        2.54576629286459       -2.95439969500156