116
 energy: -22.928061455056 gnorm: 0.329736929581 xtb: 6.6.1 (8d0f1dd)
C           -3.31122850772930        0.79849766164622       -0.92477639677520
C           -2.44380812530352       -0.12270372891954       -0.27661132624697
C           -1.41337090092821        0.39579727573559        0.56335275196199
C           -0.89266158675590        1.65801491088749        0.27377586709581
C           -1.72665675402493        2.51431363229076       -0.49448366572522
C           -2.95444148494349        2.13954154133227       -1.01494489940871
C           -0.74098268209890       -0.43411532818871        1.49825021926784
C            0.56872586496315        0.03782116815119        1.86248088067890
C            1.03782416582094        1.29402317993033        1.50887470833621
N            0.31238977034758        2.07067427098208        0.65193736800696
C           -1.29695700510141       -1.39996043042223        2.41574187746061
C           -0.38243517664656       -2.18060797534842        3.13232615520648
N            0.91308504082021       -1.90366887689689        3.30325166013478
C            1.37712470144904       -0.74872102533751        2.81811050966982
C            2.52149331701875       -0.17739833758153        3.39379298866852
C            2.95849061756259        1.02681208890480        2.95105897606587
C            2.24288949469137        1.78498308775960        2.03503020483770
C           -2.74860936222260       -1.74497937691422        2.38401158947411
C           -3.09416315450955       -2.91614440870436        3.00571134491758
C           -2.16786021984049       -3.77788778654213        3.63251872101904
C           -0.85708937311598       -3.40495313382985        3.68547234358092
O           -3.71994433332149       -0.94984598373544        1.67726658385724
O           -2.55702603277562       -1.47241711578389       -0.57241635275616
C           -3.84297843593025        3.13357444054366       -1.60938954875544
C           -2.68769581069131       -5.03867041417370        4.30484659386931
H           -1.39666850744143        3.51251503834900       -0.76806311868865
H           -4.27662633836220        0.55105838579656       -1.33106614114542
H            2.66329581305412        2.73912661909249        1.72562431984580
H            3.05775395548473       -0.69369546277216        4.16536137542516
H           -0.24710966264510       -4.12034095424229        4.22946223699121
H           -4.11477991332403       -3.04712728052358        3.03244694615357
O           -4.21824883374556        4.03433712717988       -0.87713382485991
O           -4.44510595673734        2.90643496899600       -2.81853501752979
C           -5.44216520282800        3.83300025693726       -3.02488532025093
C            4.23586651889298        1.50004220933226        3.59165660008449
O            5.05927614697201        0.66079890002952        3.91714215179376
O            4.47001334453535        2.86385149488593        3.72605651435371
C            5.79457498613219        3.08584475587818        4.15829123132174
O           -3.82227255313510       -5.27347675879771        4.16636005494405
O           -1.85023202017753       -5.79767454267276        5.06656077253571
C           -2.55119635829503       -6.86252441382958        5.62930343183426
C           -5.07197156564436       -1.42399175670916        1.58830531863830
C           -1.33089900128490       -2.23622472573986       -0.99264499351172
H           -2.54510546830388       -7.76426885143998        4.99136022291012
H           -3.57194749219491       -6.44405511486021        5.74196173723541
H           -2.09133598235598       -7.02043774843818        6.64022264233588
H            5.72707967266424        3.46798026205549        5.10135971236643
H            6.34060091246885        3.78468702308830        3.50069950143490
H            6.17933064298187        2.03010500085905        4.19342358084693
H           -0.91862729772622       -2.57650129080332       -0.01361370304871
H           -0.49769766914251       -1.60651221708571       -1.34094446550576
H           -1.52632419730509       -2.94569707152159       -1.75361447637286
H           -5.11788846557077       -2.41810833635233        1.17520213188926
H           -5.67929807973498       -0.69619639428435        1.04301666067831
H           -5.57598832326623       -1.42383358739762        2.57928294206544
H           -6.13050215934830        3.76035386975488       -2.23272855695873
H           -5.86615610071888        3.45938329385866       -4.02668959924245
H           -5.13479557532099        4.87790991548477       -2.98314551356402
C           -1.38192942069774        3.73616555005018        2.91232598411686
C           -1.84821468128685        2.59982427735607        3.49755545445181
C           -1.05946531454833        2.05730632010638        4.60922730982276
C            0.19893954712228        2.69376791964407        4.86302140881997
C            0.50425395911860        3.94630308659851        4.28768785650746
C           -0.26031777722226        4.46998310053134        3.25072669343212
C           -1.20488993561782        0.74454293276906        5.14851520323437
C           -0.06287609782692        0.02744069315890        5.60930570802864
C            1.19208754369866        0.71421540266195        5.78882868583885
N            1.19428660993148        2.06344359410476        5.62744624321596
C           -2.41361422770794        0.07928500213936        5.25249410304426
C           -2.45851584031083       -1.32662100968547        5.60237876023992
N           -1.29466212405906       -1.98318595734370        5.89916817085159
C           -0.14475655767527       -1.32117560077092        5.98824682881008
C            0.97209270935794       -1.98958449505532        6.53157704134458
C            2.21982707914082       -1.36973967291181        6.68703967237737
C            2.30561929262884       -0.09745313075593        6.26436900324455
C           -3.73018485967715        0.71367583494582        5.25810242262992
C           -4.89964478833448       -0.06184623426677        5.21204641615509
C           -4.82617965800088       -1.39228978090841        5.46901303780036
C           -3.67144193418464       -1.98914944386360        5.67265433266067
O           -3.75568638935321        2.07705011038914        5.52067969627343
O           -2.94192434743730        1.91263938797883        3.01658762327703
C            0.21273512614467        5.50086066357994        2.34765104514621
C           -6.06660304520411       -2.17604633098929        5.80641622556876
H            1.41756699010566        4.38133362238595        4.66974005703471
H           -1.82880610647429        4.11982501512100        2.06992133318584
H            3.26888037378556        0.32655662585251        6.31721410015598
H            0.87146188387207       -3.08471526305024        6.57830423410869
H           -3.67716811065157       -3.05999292755990        5.83019634570050
H           -5.77379677507622        0.43595144608221        4.71017130754348
O            1.34459852619901        5.82615848916894        2.44941456579099
O           -0.74718748219123        6.07961784856304        1.59848183464284
C           -0.21473095568964        7.24015934882472        1.05753806029483
C            3.53228080814219       -2.00967610361154        7.02506769044485
O            3.64093082622715       -3.14437803815732        7.50071391725347
O            4.56565258381079       -1.22937033368332        6.69086985080897
C            5.72579357310716       -1.80692399125161        7.22246151275881
O           -7.04801223588612       -1.95726935745904        5.14194115322235
O           -6.01514389321278       -2.93743591896022        6.94765316328794
C           -7.21292732384718       -3.62681918543340        7.15115816329978
C           -4.95459780685163        2.65960679932188        5.86868674392943
C           -3.68284113682406        2.59129188358641        2.05479246020704
H           -7.43119628931628       -4.22607794725959        6.20622607140901
H           -8.06548455146707       -2.91765848248592        7.29781126410398
H           -7.07314693247270       -4.33087306029711        7.91223421050944
H            6.57332189837178       -1.29353136199234        6.78341268688262
H            5.74663761932316       -2.84282155125561        6.88089468184451
H            5.69426191474290       -1.72781984964892        8.29460302186842
H           -4.10481209541493        3.44288266176275        2.60483747673152
H           -4.49244774344916        1.87419893016926        1.82433103764650
H           -3.18901540870812        2.85154642679373        1.06781919454921
H           -5.55414326821421        2.76698137191684        4.93950725322359
H           -4.78658370641210        3.62090640967288        6.25983200635257
H           -5.43485580473958        1.97242995129449        6.65265772412460
H            0.89164886030839        7.38838561720231        1.13776105146914
H           -0.62894889903848        8.04195665205089        1.64837664327952
H           -0.59282546386754        7.45699159724320        0.03719083132488
116
 energy: -22.611121841135 gnorm: 0.525754534046 xtb: 6.6.1 (8d0f1dd)
C           -3.08049564286015        0.55436521671109       -1.25387560584965
C           -2.29269550721452       -0.24688446819165       -0.35386237400092
C           -1.43980448335046        0.39177801462304        0.60540498613397
C           -0.98426528641555        1.71380028049273        0.57330232756786
C           -1.59356819361174        2.43118645519208       -0.38610215517675
C           -2.62717337153267        1.92110707832145       -1.18423369546796
C           -0.86097833245522       -0.37684183634806        1.64513311515189
C            0.40802231310340       -0.07602235454297        2.05783883989101
C            0.93754761496682        1.22834081547884        2.03973911775545
N            0.10654885783082        2.10469707456039        1.36725014575374
C           -1.47203376212516       -1.52902433181470        2.27724488762435
C           -0.62951067505491       -2.36705991643936        2.93721884605367
N            0.63309964326975       -2.10884071776532        3.24137775069198
C            1.14553415367118       -0.99559034332042        2.84780466581280
C            2.50385833521626       -0.69778125272794        3.29528845119069
C            3.12828224109933        0.56083329423428        2.95460070934177
C            2.22381874019930        1.55210667415866        2.43283966830351
C           -2.84479686273103       -1.97217040123359        1.96136266671676
C           -3.20658741034362       -3.28572454547376        2.45914003072999
C           -2.29650316270203       -4.04774824502000        3.19156473191659
C           -1.05174576910022       -3.56667207526733        3.47464431398769
O           -3.92498578519109       -1.25696680135513        1.45575558740092
O           -2.12040135823700       -1.62665923114748       -0.75619191727096
C           -3.11077219025818        2.82452529835495       -2.19854732895405
C           -2.72894487324885       -5.38220798556609        3.54239038950329
H           -1.22065936688306        3.40638738580497       -0.42979247426035
H           -3.78490069926476        0.07596916214470       -1.83518241306274
H            2.47155353108471        2.59016573197986        2.08956447636594
H            3.01658032862419       -1.51548248425851        3.80695412468962
H           -0.23003613955233       -4.15259417788854        3.88414846266059
H           -4.04940078122069       -3.75287706607842        2.05629064981638
O           -2.20044305916861        3.40141998018307       -2.75301104277675
O           -4.48010248592634        2.99312419533489       -2.17677183089003
C           -4.77485984520254        4.19328547719376       -2.79411070783199
C            4.38333517435853        0.67039283826864        3.44008737617034
O            5.18929788601045       -0.27816693932042        3.42275393009070
O            4.77708396102717        1.95496527719849        3.74492022660834
C            6.21129703395767        1.97247090492541        3.90631273918182
O           -3.49616915191440       -5.91549200029466        2.71620357451734
O           -2.11771177618260       -5.97343922939100        4.71381305929037
C           -2.60234683825634       -7.07402608492269        5.44765187543464
C           -5.31760270850133       -1.79338102840489        1.40470581608957
C           -2.81535853576238       -1.89040204977726       -2.03717670715934
H           -3.40741947464213       -7.74134403182114        5.23315148354406
H           -3.01748636540755       -6.52976511056465        6.21991318988216
H           -1.61031669586505       -7.61460024925345        5.76111522056591
H            6.50202750762309        1.66004082624155        4.91539617157933
H            6.37924050087058        3.03421758621751        4.03696757432470
H            6.82788295869329        1.63040916841925        3.19304168768893
H           -2.39549390024999       -1.27117771895107       -2.82316266563423
H           -3.83219209180470       -2.20482305931479       -2.02118344437970
H           -2.54740685957412       -2.90439171753056       -2.16656964760912
H           -5.76443455149602       -0.86296320533363        1.16697134577178
H           -5.67568950644277       -2.16035795128451        2.42257766054598
H           -5.27378365415039       -2.46249430291249        0.58331923023895
H           -5.19249529922443        4.80691816782573       -2.03085758256528
H           -5.51465200578877        3.83365327499228       -3.57701489781621
H           -3.96017934042157        4.23289671313573       -3.59908918660675
C           -2.13990700850457        4.01928810200265        3.44659182200406
C           -2.04120758351720        2.67353488834505        3.85413535253474
C           -0.94488452650401        2.24400281486644        4.73797646806784
C            0.13768169639796        3.08599650135118        4.70712713163628
C            0.24302785213988        4.35672095101910        4.03852973592942
C           -0.90487133921350        4.72278398627505        3.18118541564411
C           -1.03575991430533        1.10256761871186        5.58603094373982
C            0.16844580845558        0.50017683961308        5.95189900266949
C            1.27020139232137        1.38935714629317        5.81172866671595
N            1.27820839499683        2.58532471159773        5.30962376110741
C           -2.29057939688391        0.42423418812365        5.87759397918123
C           -2.06816018481744       -0.94565202896921        6.07698121623803
N           -0.95929329658603       -1.56395889772461        6.42913959477146
C            0.15965137721169       -0.85128445525678        6.29740528334747
C            1.37194036646555       -1.35399784616901        6.75582232494098
C            2.43969756264906       -0.51603564260684        6.90212356850591
C            2.44447203589068        0.71696790979271        6.14622758637092
C           -3.57056478371085        0.99225008610749        6.26542687744648
C           -4.67401056556878        0.17390892140313        6.01975458209138
C           -4.49671808327848       -1.13552051047588        6.05335946601014
C           -3.26605414352465       -1.68453160348026        6.18632302842720
O           -4.04405773409888        2.30358001155597        6.60214002223898
O           -2.94072376404992        1.65829136946451        3.44356301145937
C           -0.91490137624208        5.85784245428959        2.24062408133766
C           -5.76764829490719       -1.78265736275380        5.85282684225769
H            0.88093244457668        5.08150908944131        4.35818122036204
H           -2.96233427502894        4.43240333857613        2.98416831895352
H            3.27179054461924        0.69315194767425        5.39831881740251
H            1.39334284855807       -2.39698445684129        7.11011631027458
H           -3.25787166731391       -2.77825053094726        6.34025616581042
H           -5.67409843800538        0.49679006840415        5.78264546828940
O           -0.08846590959341        6.72091386065836        2.47109073230886
O           -1.81982665052667        5.57219743229983        1.18456784560034
C           -1.66481248772304        6.53351105557679        0.20244341132807
C            3.64405569082181       -1.24561737719323        7.42374251638270
O            3.74891453278660       -2.46240607063754        7.76879558855592
O            4.75056492495061       -0.44841030678645        7.51202945283690
C            5.87225473918315       -1.28307692729579        7.84820629742438
O           -6.73810211949196       -1.08439681247767        5.46187476422458
O           -6.06278642996249       -3.15716992395023        6.02582725803039
C           -7.24262272557830       -3.55919760889963        5.34130727149717
C           -3.23203205467821        2.96423644942780        7.68751013109101
C           -4.19987125541159        1.94773855605569        2.99746321139323
H           -7.52965549930040       -2.97781293697470        4.49601237227476
H           -8.15049580733948       -3.31885192303885        6.07911968365337
H           -7.06094541822572       -4.70326594445729        5.00654150982814
H            6.07087763437908       -1.72864234285795        6.81307046759371
H            5.57894515124871       -2.15782400695424        8.38629204044798
H            6.52760449046309       -0.62352106208562        8.44678672912676
H           -4.50296922951493        1.11172724987475        2.45245478347290
H           -4.15944278647642        2.62695157685225        2.24252592995655
H           -4.98678305640649        1.91790957033755        3.94640749486765
H           -2.65344435408762        2.08852217422470        8.18362081989928
H           -3.97818893757530        3.72934168806322        7.74884551008828
H           -2.42556796860842        3.42615389788369        7.06557178888568
H           -2.59573667537244        7.01692093033179       -0.26596088414138
H           -1.19734093896444        5.93875977608001       -0.64784719074120
H           -0.78837097444353        7.25200745625836        0.49494219153228
116
 energy: -22.625509889623 gnorm: 0.551031283536 xtb: 6.6.1 (8d0f1dd)
C           -3.54334722289111        1.07522599361423       -0.62809911663834
C           -2.93699862283793        0.00111477162534        0.00792075430308
C           -1.60321934662083        0.08718218806533        0.67398925061192
C           -0.84396527104823        1.22540870376934        0.39678641443843
C           -1.38067812750184        2.17560696923401       -0.55877183491761
C           -2.75495638588828        2.16690563734262       -0.95808074032633
C           -1.00704014187951       -0.74819159323491        1.67965949146966
C            0.39076091398631       -0.65830409432503        1.87627558246900
C            1.01252532285750        0.52956780344774        1.39826208455239
N            0.34196785783135        1.48083506553715        0.78990045894677
C           -1.61374662141505       -1.94666890207154        2.11729513242145
C           -0.90975329299914       -2.66358347562089        3.08089421354835
N            0.35953258153071       -2.44348006067663        3.48021135417017
C            0.97634204387022       -1.44387289491277        2.91105599895885
C            2.26844569584612       -1.13453628163914        3.26643866900070
C            2.86449090809683        0.04709788851631        2.92508706744552
C            2.25043863439228        0.77787676358433        1.96808198123112
C           -2.95289684098618       -2.48822210563695        2.19215968589098
C           -3.38477918881928       -3.82263256375380        2.36189046083823
C           -2.45593634446006       -4.62063420141926        3.04766731824604
C           -1.39733517324712       -3.96712712127088        3.54902806115719
O           -4.00327249725368       -1.48728593497713        1.95871741938640
O           -3.33255353718278       -1.31966052938191       -0.33645911565664
C           -3.35781501281525        3.49350608253586       -1.65338936726470
C           -2.87976408198523       -6.02762523644412        3.37161348608841
H           -0.60400640642215        2.87778115771967       -0.93696249849491
H           -4.49520239110248        0.89559903421974       -0.88414558543945
H            2.81236911664235        1.54206945107623        1.43880951274940
H            2.79374225770279       -1.84659152047688        3.83187211121622
H           -0.96107287537000       -4.39916899448776        4.40061105437624
H           -4.21055708697665       -4.27187914862174        1.93416949863678
O           -3.04127245929049        4.62218775740814       -1.29447159231494
O           -4.41202473379883        3.13640433913762       -2.40584071390823
C           -5.02001119438999        4.49603801097127       -2.92864285674492
C            4.09853090278441        0.39525658880301        3.69445134416414
O            4.69102369795715       -0.51992859653757        4.24040551594137
O            4.62215670753528        1.55865353538330        3.37500095009320
C            5.82916890635590        1.58207674770162        4.02588867631417
O           -3.56110613845184       -6.57073997722270        2.46861340596060
O           -2.58230120554812       -6.48256748689874        4.65469127429548
C           -2.77359007325979       -8.02950816785219        4.59393254968509
C           -5.30655726587058       -1.91639490514709        2.22605672503077
C           -4.26919680050100       -1.70181948716338       -1.30894862021613
H           -3.34825415671893       -8.23062704518493        3.59096701472499
H           -3.29332897816646       -8.74290067811244        5.34044845064513
H           -1.83179801875239       -8.48117863869631        4.36369061739022
H            5.66226071934259        1.36798530455868        4.96321885550001
H            5.98648253224736        2.58338279464966        3.93085990604354
H            6.56399720894424        1.01618359542566        3.40529852214418
H           -5.09131374781494       -2.03035694247611       -0.69007452797209
H           -3.76917886436509       -2.47757298781262       -1.76689578378272
H           -4.68993396900237       -1.03045247846845       -1.97995736996142
H           -5.88217726571016       -0.99530852475565        2.13814719052169
H           -5.51136663984808       -2.43297920340222        3.16961797945695
H           -5.71406081651561       -2.46807483200626        1.31605657054261
H           -5.93066701651875        4.15888023444988       -3.50595958538000
H           -4.23606483394138        5.00044253819274       -3.39720294402253
H           -5.29943395488103        4.93912994077713       -1.98292151110116
C           -1.89402423232902        4.10164856603386        2.89187978712546
C           -1.89599878583433        2.84906628152900        3.50768442414024
C           -0.88132667839988        2.55914492117294        4.52664485763889
C            0.21661754518158        3.44987765796667        4.81284933450075
C            0.17466480237692        4.64387252073819        4.15043725123099
C           -0.84781328651517        4.95410618302022        3.24088031335272
C           -1.04146310308065        1.49968145042776        5.50338975782759
C            0.23566812496710        1.19160275089881        6.13645291805264
C            1.47735979798975        1.89913766737860        5.74759576684134
N            1.47197909578937        3.04083382430382        5.21755356076629
C           -2.18076962724502        0.70588041712669        5.88815783556556
C           -1.88911988180200       -0.68162719398516        6.19490157159882
N           -0.61630054903273       -1.05327751331692        6.39048704245615
C            0.44624177043481       -0.17903477885520        6.60752134956274
C            1.73205204557430       -0.57595326525845        7.05676515386762
C            2.87325436400711        0.23044963163376        7.01288903764264
C            2.73509164540513        1.38467125964606        6.21320686249411
C           -3.59644510808744        1.08752028205607        5.80621636764251
C           -4.46317875941708       -0.02871808980425        5.90616316825934
C           -4.03205770429060       -1.35278330358760        5.72043544038185
C           -2.72111835657686       -1.80281819015171        5.86378355043765
O           -3.88793804375052        2.49036391960266        5.95306953548549
O           -2.75587799971200        1.87292387929945        2.86095438895054
C           -0.65361678523565        6.14556640379516        2.28521906162752
C           -5.28524791127156       -2.24256213615475        5.62985171936524
H            0.98164991098892        5.36100194205769        4.32843237401202
H           -2.72973215361021        4.51410603233245        2.43558655307884
H            3.61799865177991        2.07530053720324        6.04524175757536
H            1.84170775902167       -1.57080276891433        7.71520578964191
H           -2.36695081257916       -2.84194340137065        6.13555342157908
H           -5.50297094141915        0.08459913434949        5.97687424964562
O           -1.24449024637574        7.21366264270498        2.38770894276291
O            0.03602295946401        5.72953702095222        1.20977680743164
C            0.00727829528614        6.80067936383657        0.22724442677419
C            4.05795348366376       -0.65026447450911        7.26086676858517
O            4.04811038150718       -1.82083164199162        7.08699062071340
O            5.12711319643800        0.01331349424571        7.91224841020745
C            6.04322691309425       -0.85344594814201        8.51911384026741
O           -6.29158882653060       -1.78898610081058        5.11978301209814
O           -5.02406049451662       -3.58455243020342        6.06422051846867
C           -6.07036669160891       -4.26116740076236        6.17624176699404
C           -5.14450711403416        3.04095416294346        6.48311047587830
C           -3.74916383222551        2.40776756548139        2.09428511697973
H           -6.82016959204374       -3.70912844338149        6.92410169225655
H           -5.73996143576926       -5.07292740566748        6.67097794778790
H           -6.59596943240117       -4.54560168313843        5.20182400156253
H            5.65010250066353       -1.24215136977311        9.44814234503179
H            6.92627432773195       -0.19741822300491        8.80807497874197
H            6.60936886461436       -1.58779945186126        7.78273284343678
H           -4.83785506002996        1.89193886938278        2.14848244611796
H           -3.40684466448864        2.67970501594092        1.20269173689613
H           -3.95648171433490        3.43528078234159        2.64167870651341
H           -5.13679973306819        4.09782920550906        6.36821355146903
H           -5.16711486585725        3.07384412449647        7.52330554721041
H           -6.00103476181122        2.45710095117070        6.06039766354020
H            0.33147132814065        6.43440019002385       -0.69513723755870
H            0.83519659012817        7.43857221090243        0.45629345970971
H           -0.86344124011060        7.36516166047762        0.37720594765761
116
 energy: -22.622149784293 gnorm: 0.499585083278 xtb: 6.6.1 (8d0f1dd)
C           -3.08747821433042        0.58214542635042       -0.62291983530715
C           -2.29098480513681       -0.47986134769374       -0.27243945199799
C           -1.19175607623866       -0.05226036730255        0.49515023889872
C           -0.66928750281289        1.27738014463812        0.42514828940196
C           -1.40449651828305        2.31532035477014       -0.01497971062603
C           -2.62319726179265        1.97223131406487       -0.57488600619363
C           -0.60167540636383       -1.13145827474927        1.24577810304601
C            0.65390667201723       -0.85760152287078        1.64139546707333
C            1.22903867361905        0.41111642226242        1.36882688570299
N            0.59155701944936        1.49796456073247        0.88517903516036
C           -1.10764995759152       -2.35112145017200        1.85057772917399
C           -0.23084733398443       -3.35512392826519        2.32422109240908
N            1.11623367060444       -3.27900985245506        2.53424661850645
C            1.49703956950354       -1.91086142490013        2.31248695393544
C            2.81196214431425       -1.67994976261650        2.60443527811462
C            3.36274559696103       -0.39158603366723        2.49544189053621
C            2.50537592711381        0.58098147768791        1.92117261767702
C           -2.53571858686043       -2.44010655764475        1.95337034765225
C           -3.15395261362050       -3.70570452793094        2.24084911787808
C           -2.26310015653970       -4.78222358594607        2.43846892282778
C           -0.87941577830952       -4.55910943687861        2.58754681529453
O           -3.26251292326545       -1.27147966571128        1.97367255959988
O           -2.28074488417592       -1.73993516266788       -0.72344758745071
C           -3.36108384314583        2.73610647103166       -1.53206815258427
C           -2.81741799764627       -6.12291896525783        2.77774233266139
H           -1.15544171914137        3.27916448146583        0.49674669900406
H           -4.06495648999994        0.23580997313142       -1.13728134924001
H            2.53088415029310        1.50801723992755        2.54231469007109
H            3.47200268497061       -2.53703847867528        2.70670773560449
H           -0.16391566090118       -5.40166452169674        2.71150895727632
H           -4.12530430008447       -3.87679756707919        1.90518790560416
O           -3.14209646351663        3.93707279437298       -1.64129963123070