      -----------------------------------------------------------      
     |                   =====================                   |     
     |                           x T B                           |     
     |                   =====================                   |     
     |                         S. Grimme                         |     
     |          Mulliken Center for Theoretical Chemistry        |     
     |                    University of Bonn                     |     
      -----------------------------------------------------------      

   * xtb version 6.6.1 (8d0f1dd) compiled by 'runner@Mac-1690902418499.local' on 2023-08-01

   xtb is free software: you can redistribute it and/or modify it under
   the terms of the GNU Lesser General Public License as published by
   the Free Software Foundation, either version 3 of the License, or
   (at your option) any later version.
   
   xtb is distributed in the hope that it will be useful,
   but WITHOUT ANY WARRANTY; without even the implied warranty of
   MERCHANTABILITY or FITNESS FOR A PARTICULAR PURPOSE.  See the
   GNU Lesser General Public License for more details.
   
   Cite this work as:
   * C. Bannwarth, E. Caldeweyher, S. Ehlert, A. Hansen, P. Pracht,
     J. Seibert, S. Spicher, S. Grimme, WIREs Comput. Mol. Sci., 2020, 11,
     e01493. DOI: 10.1002/wcms.1493
   
   for GFN2-xTB:
   * C. Bannwarth, S. Ehlert and S. Grimme., J. Chem. Theory Comput., 2019,
     15, 1652-1671. DOI: 10.1021/acs.jctc.8b01176
   for GFN1-xTB:
   * S. Grimme, C. Bannwarth, P. Shushkov, J. Chem. Theory Comput., 2017,
     13, 1989-2009. DOI: 10.1021/acs.jctc.7b00118
   for GFN0-xTB:
   * P. Pracht, E. Caldeweyher, S. Ehlert, S. Grimme, ChemRxiv, 2019, preprint.
     DOI: 10.26434/chemrxiv.8326202.v1
   for GFN-FF:
   * S. Spicher and S. Grimme, Angew. Chem. Int. Ed., 2020, 59, 15665-15673.
     DOI: 10.1002/anie.202004239
   
   for ALPB and GBSA implicit solvation:
   * S. Ehlert, M. Stahn, S. Spicher, S. Grimme, J. Chem. Theory Comput.,
     2021, 17, 4250-4261. DOI: 10.1021/acs.jctc.1c00471
   
   for DFT-D4:
   * E. Caldeweyher, C. Bannwarth and S. Grimme, J. Chem. Phys., 2017,
     147, 034112. DOI: 10.1063/1.4993215
   * E. Caldeweyher, S. Ehlert, A. Hansen, H. Neugebauer, S. Spicher,
     C. Bannwarth and S. Grimme, J. Chem. Phys., 2019, 150, 154122.
     DOI: 10.1063/1.5090222
   * E. Caldeweyher, J.-M. Mewes, S. Ehlert and S. Grimme, Phys. Chem. Chem. Phys.
     2020, 22, 8499-8512. DOI: 10.1039/D0CP00502A
   
   for sTDA-xTB:
   * S. Grimme and C. Bannwarth, J. Chem. Phys., 2016, 145, 054103.
     DOI: 10.1063/1.4959605
   
   in the mass-spec context:
   * V. Asgeirsson, C. Bauer and S. Grimme, Chem. Sci., 2017, 8, 4879.
     DOI: 10.1039/c7sc00601b
   * J. Koopman and S. Grimme, ACS Omega 2019, 4, 12, 15120-15133.
     DOI: 10.1021/acsomega.9b02011
   
   for metadynamics refer to:
   * S. Grimme, J. Chem. Theory Comput., 2019, 155, 2847-2862
     DOI: 10.1021/acs.jctc.9b00143
   
   for SPH calculations refer to:
   * S. Spicher and S. Grimme, J. Chem. Theory Comput., 2021, 17, 1701-1714
     DOI: 10.1021/acs.jctc.0c01306
   
   with help from (in alphabetical order)
   P. Atkinson, C. Bannwarth, F. Bohle, G. Brandenburg, E. Caldeweyher
   M. Checinski, S. Dohm, S. Ehlert, S. Ehrlich, I. Gerasimov, C. Hölzer
   A. Katbashev, J. Koopman, C. Lavigne, S. Lehtola, F. März, M. Müller,
   F. Musil, H. Neugebauer, J. Pisarek, C. Plett, P. Pracht, F. Pultar,
   J. Seibert, P. Shushkov, S. Spicher, M. Stahn, M. Steiner, T. Strunk,
   J. Stückrath, T. Rose, and J. Unsleber
   
 * started run on 2025/03/14 at 13:04:52.160     

           -------------------------------------------------
          |                Calculation Setup                |
           -------------------------------------------------

          program call               : xtb scoord.19 --md --gfnff --input md_settings.inp
          coordinate file            : scoord.19
          omp threads                :                     8

   ID    Z sym.   atoms
    1    6 C      1-9, 11, 12, 14-21, 24, 25, 34, 35, 38, 41-43, 59-67, 69,
                  70, 72-79, 82, 83, 92, 93, 96, 99-101
    2    7 N      10, 13, 68, 71
    3    8 O      22, 23, 32, 33, 36, 37, 39, 40, 80, 81, 90, 91, 94, 95, 97,
                  98
    4    1 H      26-31, 44-58, 84-89, 102-116

molecular fragmentation (1/2 indicates fragments):
111111111111111111111111111111111111111111111111111111111122222222222222
22222222222222222222222222222222222222222222
# atoms in fragment 1/2:    58    58
 fragment masses (1/2) :      501.47      501.47
CMA distance (Bohr)    :   9.122
constraining FC (au)   :  0.0500
          GFN-FF topology read from file successfully!
           ------------------------------------------------- 
          |                   G F N - F F                   |
          |          A general generic force-field          |
          |                  Version 1.0.3                  | 
           ------------------------------------------------- 
          Number of HB bonds (bound hydrogen)     18713
          Number of HB bonds (unbound hydrogen)   510
          Number of XB bonds                      0

 E+G (total)                   0 d,  0 h,  0 min,  0.002 sec
 distance/D3 list               ...        0 min,  0.000 sec (  1.053%)
 non bonded repulsion           ...        0 min,  0.000 sec (  4.739%)
 dCN                            ...        0 min,  0.000 sec (  6.440%)
 EEQ energy and q               ...        0 min,  0.000 sec ( 12.649%)
 D3                             ...        0 min,  0.000 sec ( 15.601%)
 EEQ gradient                   ...        0 min,  0.000 sec (  2.534%)
 bonds                          ...        0 min,  0.000 sec (  4.871%)
 bend and torsion               ...        0 min,  0.000 sec (  3.039%)
 bonded ATM                     ...        0 min,  0.000 sec (  1.931%)
 HB/XB (incl list setup)        ...        0 min,  0.001 sec ( 46.758%)

         :::::::::::::::::::::::::::::::::::::::::::::::::::::
         ::                     SUMMARY                     ::
         :::::::::::::::::::::::::::::::::::::::::::::::::::::
         :: total energy             -22.913492815726 Eh    ::
         :: gradient norm              0.330205470948 Eh/a0 ::
         ::.................................................::
         :: bond energy              -23.656769802657 Eh    ::
         :: angle energy               0.099486887088 Eh    ::
         :: torsion energy             0.093189686627 Eh    ::
         :: repulsion energy           1.697664982275 Eh    ::
         :: electrostat energy        -0.952516782139 Eh    ::
         :: dispersion energy         -0.158571226308 Eh    ::
         :: HB energy                 -0.005836021387 Eh    ::
         :: XB energy                  0.000000000000 Eh    ::
         :: bonded atm energy         -0.030140539224 Eh    ::
         :: external energy            0.000000000000 Eh    ::
         :: add. restraining           0.000000000000 Eh    ::
         :: total charge              -0.000000000000 e     ::
         :::::::::::::::::::::::::::::::::::::::::::::::::::::

           -------------------------------------------------
          |                Property Printout                |
           -------------------------------------------------

           -------------------------------------------------
          | TOTAL ENERGY              -22.913492815726 Eh   |
          | GRADIENT NORM               0.330205470948 Eh/α |
           -------------------------------------------------
           ------------------------------------------------- 
          |               Molecular Dynamics                |
           ------------------------------------------------- 
 trajectories on xtb.trj or xtb.trj.<n>

 MD time /ps        :   20.00
 dt /fs             :    2.00
 SCC accuracy       :    2.00
 temperature /K     :  350.00
 max steps          : 10000
 block length (av.) :  2500
 dumpstep(trj) /fs  :  500.00   250
 dumpstep(coords)/fs: 1000.00   500
 H atoms mass (amu) :     4
 # deg. of freedom  :   348
 SHAKE off
 Berendsen THERMOSTAT on
         time (ps)    <Epot>      Ekin   <T>   T     Etot
      0    0.00      0.00000   0.4023    0.    0.   -22.51115
est. speed in wall clock h for 100 ps :  0.02
    200    0.40    -22.71373   0.2705  499.  491.   -22.58264
    400    0.80    -22.78476   0.2525  476.  458.   -22.62932
    600    1.20    -22.81377   0.1988  455.  361.   -22.66033
    800    1.60    -22.83138   0.1927  440.  350.   -22.67919
   1000    2.00    -22.84285   0.2045  427.  371.   -22.67378
   1200    2.40    -22.85183   0.1904  417.  345.   -22.70295
   1400    2.80    -22.85911   0.1954  410.  355.   -22.70668
   1600    3.20    -22.86519   0.1963  404.  356.   -22.70421
   1800    3.60    -22.87005   0.1930  399.  350.   -22.71131
   2000    4.00    -22.87378   0.1983  394.  360.   -22.72750
   2200    4.40    -22.87715   0.2009  391.  365.   -22.71412
   2400    4.80    -22.87995   0.1958  387.  355.   -22.70737
block <Epot> / <T> :     -22.89013  386.     drift:  0.99D+02   Tbath : 350.
   2600    5.20    -22.88170   0.2044  384.  371.   -22.70751
   2800    5.60    -22.88380   0.1989  382.  361.   -22.71788
   3000    6.00    -22.88544   0.1976  380.  359.   -22.71201
   3200    6.40    -22.88705   0.2164  378.  393.   -22.71899
   3400    6.80    -22.88828   0.2086  376.  379.   -22.71508
   3600    7.20    -22.88938   0.1889  375.  343.   -22.72135
   3800    7.60    -22.89043   0.2034  374.  369.   -22.69231
   4000    8.00    -22.89126   0.1839  372.  334.   -22.71501
   4200    8.40    -22.89208   0.2013  371.  365.   -22.71436
   4400    8.80    -22.89295   0.1922  370.  349.   -22.71460
   4600    9.20    -22.89378   0.2003  370.  364.   -22.71287
   4800    9.60    -22.89468   0.1902  369.  345.   -22.71768
   5000   10.00    -22.89545   0.1946  368.  353.   -22.72195
block <Epot> / <T> :     -22.90994  351.     drift:  0.99D+02   Tbath : 350.
   5200   10.40    -22.89613   0.1965  368.  357.   -22.71376
   5400   10.80    -22.89664   0.1884  367.  342.   -22.71510
   5600   11.20    -22.89719   0.1936  366.  351.   -22.71423
   5800   11.60    -22.89752   0.2050  365.  372.   -22.71166
   6000   12.00    -22.89787   0.1943  365.  353.   -22.71376
   6200   12.40    -22.89815   0.1976  364.  359.   -22.72076
   6400   12.80    -22.89865   0.1881  364.  341.   -22.71777
   6600   13.20    -22.89897   0.1951  364.  354.   -22.72119
   6800   13.60    -22.89936   0.2044  363.  371.   -22.70906
   7000   14.00    -22.89977   0.1709  363.  310.   -22.70765
   7200   14.40    -22.90006   0.1983  363.  360.   -22.71707
   7400   14.80    -22.90040   0.1698  362.  308.   -22.72230
block <Epot> / <T> :     -22.91078  350.     drift:  0.99D+02   Tbath : 350.
   7600   15.20    -22.90072   0.1885  362.  342.   -22.72995
   7800   15.60    -22.90096   0.1802  362.  327.   -22.72693
   8000   16.00    -22.90115   0.1948  361.  353.   -22.71265
   8200   16.40    -22.90144   0.1987  361.  361.   -22.71329
   8400   16.80    -22.90173   0.1936  361.  351.   -22.71606
   8600   17.20    -22.90199   0.1894  361.  344.   -22.71511
   8800   17.60    -22.90222   0.1969  360.  357.   -22.72317
   9000   18.00    -22.90244   0.1907  360.  346.   -22.71967
   9200   18.40    -22.90256   0.1942  360.  352.   -22.71621
   9400   18.80    -22.90273   0.2064  360.  375.   -22.71259
   9600   19.20    -22.90296   0.1931  359.  350.   -22.72112
   9800   19.60    -22.90315   0.1880  359.  341.   -22.71999
 average properties 
 Epot               :  -22.903358489633135     
 Epot (accurate SCC):  -22.905989341074282     
 Ekin               :  0.19788372262482948     
 Etot               :  -22.705474767008305     
 T                  :   359.11951906748919     
 thermostating problem
 normal exit of md()

------------------------------------------------------------------------
 * finished run on 2025/03/14 at 13:05:08.071     
------------------------------------------------------------------------
 total:
 * wall-time:     0 d,  0 h,  0 min, 15.911 sec
 *  cpu-time:     0 d,  0 h,  0 min, 30.965 sec
 * ratio c/w:     1.946 speedup
 SCF:
 * wall-time:     0 d,  0 h,  0 min,  0.003 sec
 *  cpu-time:     0 d,  0 h,  0 min,  0.005 sec
Note: The following floating-point exceptions are signalling: IEEE_UNDERFLOW_FLAG
normal termination of xtb
 * ratio c/w:     1.585 speedup
 MD:
 * wall-time:     0 d,  0 h,  0 min, 15.894 sec
 *  cpu-time:     0 d,  0 h,  0 min, 30.955 sec
 * ratio c/w:     1.948 speedup

