116
 energy: -22.928061455056 gnorm: 0.329736929581 xtb: 6.6.1 (8d0f1dd)
C           -3.31122850772930        0.79849766164622       -0.92477639677520
C           -2.44380812530352       -0.12270372891954       -0.27661132624697
C           -1.41337090092821        0.39579727573559        0.56335275196199
C           -0.89266158675590        1.65801491088749        0.27377586709581
C           -1.72665675402493        2.51431363229076       -0.49448366572522
C           -2.95444148494349        2.13954154133227       -1.01494489940871
C           -0.74098268209890       -0.43411532818871        1.49825021926784
C            0.56872586496315        0.03782116815119        1.86248088067890
C            1.03782416582094        1.29402317993033        1.50887470833621
N            0.31238977034758        2.07067427098208        0.65193736800696
C           -1.29695700510141       -1.39996043042223        2.41574187746061
C           -0.38243517664656       -2.18060797534842        3.13232615520648
N            0.91308504082021       -1.90366887689689        3.30325166013478
C            1.37712470144904       -0.74872102533751        2.81811050966982
C            2.52149331701875       -0.17739833758153        3.39379298866852
C            2.95849061756259        1.02681208890480        2.95105897606587
C            2.24288949469137        1.78498308775960        2.03503020483770
C           -2.74860936222260       -1.74497937691422        2.38401158947411
C           -3.09416315450955       -2.91614440870436        3.00571134491758
C           -2.16786021984049       -3.77788778654213        3.63251872101904
C           -0.85708937311598       -3.40495313382985        3.68547234358092
O           -3.71994433332149       -0.94984598373544        1.67726658385724
O           -2.55702603277562       -1.47241711578389       -0.57241635275616
C           -3.84297843593025        3.13357444054366       -1.60938954875544
C           -2.68769581069131       -5.03867041417370        4.30484659386931
H           -1.39666850744143        3.51251503834900       -0.76806311868865
H           -4.27662633836220        0.55105838579656       -1.33106614114542
H            2.66329581305412        2.73912661909249        1.72562431984580
H            3.05775395548473       -0.69369546277216        4.16536137542516
H           -0.24710966264510       -4.12034095424229        4.22946223699121
H           -4.11477991332403       -3.04712728052358        3.03244694615357
O           -4.21824883374556        4.03433712717988       -0.87713382485991
O           -4.44510595673734        2.90643496899600       -2.81853501752979
C           -5.44216520282800        3.83300025693726       -3.02488532025093
C            4.23586651889298        1.50004220933226        3.59165660008449
O            5.05927614697201        0.66079890002952        3.91714215179376
O            4.47001334453535        2.86385149488593        3.72605651435371
C            5.79457498613219        3.08584475587818        4.15829123132174
O           -3.82227255313510       -5.27347675879771        4.16636005494405
O           -1.85023202017753       -5.79767454267276        5.06656077253571
C           -2.55119635829503       -6.86252441382958        5.62930343183426
C           -5.07197156564436       -1.42399175670916        1.58830531863830
C           -1.33089900128490       -2.23622472573986       -0.99264499351172
H           -2.54510546830388       -7.76426885143998        4.99136022291012
H           -3.57194749219491       -6.44405511486021        5.74196173723541
H           -2.09133598235598       -7.02043774843818        6.64022264233588
H            5.72707967266424        3.46798026205549        5.10135971236643
H            6.34060091246885        3.78468702308830        3.50069950143490
H            6.17933064298187        2.03010500085905        4.19342358084693
H           -0.91862729772622       -2.57650129080332       -0.01361370304871
H           -0.49769766914251       -1.60651221708571       -1.34094446550576
H           -1.52632419730509       -2.94569707152159       -1.75361447637286
H           -5.11788846557077       -2.41810833635233        1.17520213188926
H           -5.67929807973498       -0.69619639428435        1.04301666067831
H           -5.57598832326623       -1.42383358739762        2.57928294206544
H           -6.13050215934830        3.76035386975488       -2.23272855695873
H           -5.86615610071888        3.45938329385866       -4.02668959924245
H           -5.13479557532099        4.87790991548477       -2.98314551356402
C           -1.38192942069774        3.73616555005018        2.91232598411686
C           -1.84821468128685        2.59982427735607        3.49755545445181
C           -1.05946531454833        2.05730632010638        4.60922730982276
C            0.19893954712228        2.69376791964407        4.86302140881997
C            0.50425395911860        3.94630308659851        4.28768785650746
C           -0.26031777722226        4.46998310053134        3.25072669343212
C           -1.20488993561782        0.74454293276906        5.14851520323437
C           -0.06287609782692        0.02744069315890        5.60930570802864
C            1.19208754369866        0.71421540266195        5.78882868583885
N            1.19428660993148        2.06344359410476        5.62744624321596
C           -2.41361422770794        0.07928500213936        5.25249410304426
C           -2.45851584031083       -1.32662100968547        5.60237876023992
N           -1.29466212405906       -1.98318595734370        5.89916817085159
C           -0.14475655767527       -1.32117560077092        5.98824682881008
C            0.97209270935794       -1.98958449505532        6.53157704134458
C            2.21982707914082       -1.36973967291181        6.68703967237737
C            2.30561929262884       -0.09745313075593        6.26436900324455
C           -3.73018485967715        0.71367583494582        5.25810242262992
C           -4.89964478833448       -0.06184623426677        5.21204641615509
C           -4.82617965800088       -1.39228978090841        5.46901303780036
C           -3.67144193418464       -1.98914944386360        5.67265433266067
O           -3.75568638935321        2.07705011038914        5.52067969627343
O           -2.94192434743730        1.91263938797883        3.01658762327703
C            0.21273512614467        5.50086066357994        2.34765104514621
C           -6.06660304520411       -2.17604633098929        5.80641622556876
H            1.41756699010566        4.38133362238595        4.66974005703471
H           -1.82880610647429        4.11982501512100        2.06992133318584
H            3.26888037378556        0.32655662585251        6.31721410015598
H            0.87146188387207       -3.08471526305024        6.57830423410869
H           -3.67716811065157       -3.05999292755990        5.83019634570050
H           -5.77379677507622        0.43595144608221        4.71017130754348
O            1.34459852619901        5.82615848916894        2.44941456579099
O           -0.74718748219123        6.07961784856304        1.59848183464284
C           -0.21473095568964        7.24015934882472        1.05753806029483
C            3.53228080814219       -2.00967610361154        7.02506769044485
O            3.64093082622715       -3.14437803815732        7.50071391725347
O            4.56565258381079       -1.22937033368332        6.69086985080897
C            5.72579357310716       -1.80692399125161        7.22246151275881
O           -7.04801223588612       -1.95726935745904        5.14194115322235
O           -6.01514389321278       -2.93743591896022        6.94765316328794
C           -7.21292732384718       -3.62681918543340        7.15115816329978
C           -4.95459780685163        2.65960679932188        5.86868674392943
C           -3.68284113682406        2.59129188358641        2.05479246020704
H           -7.43119628931628       -4.22607794725959        6.20622607140901
H           -8.06548455146707       -2.91765848248592        7.29781126410398
H           -7.07314693247270       -4.33087306029711        7.91223421050944
H            6.57332189837178       -1.29353136199234        6.78341268688262
H            5.74663761932316       -2.84282155125561        6.88089468184451
H            5.69426191474290       -1.72781984964892        8.29460302186842
H           -4.10481209541493        3.44288266176275        2.60483747673152
H           -4.49244774344916        1.87419893016926        1.82433103764650
H           -3.18901540870812        2.85154642679373        1.06781919454921
H           -5.55414326821421        2.76698137191684        4.93950725322359
H           -4.78658370641210        3.62090640967288        6.25983200635257
H           -5.43485580473958        1.97242995129449        6.65265772412460
H            0.89164886030839        7.38838561720231        1.13776105146914
H           -0.62894889903848        8.04195665205089        1.64837664327952
H           -0.59282546386754        7.45699159724320        0.03719083132488
116
 energy: -22.531443517060 gnorm: 0.588995541595 xtb: 6.6.1 (8d0f1dd)
C           -2.52016267647542        0.19203074169530       -1.47187340236525
C           -1.54144751910012       -0.58519188200341       -0.76112608995681
C           -0.71340754389901        0.18584803595552        0.10219761304551
C           -0.47948594716427        1.58497008722396       -0.09502618428440
C           -1.55587475354055        2.28589791233793       -0.85252079199248
C           -2.51870768264402        1.57485238848959       -1.38870176393241
C           -0.26554858685275       -0.39014360144086        1.39386895906882
C            0.83970773285391        0.19816170292870        1.71231088229381
C            1.13584904950915        1.60708766531927        1.42554539193842
N            0.38093771020940        2.38081329824051        0.58326066572379
C           -0.50795291172393       -1.69837241228018        1.94782628328926
C            0.59904586332257       -2.60365838850275        2.20059842792468
N            1.99048340126138       -2.08872623672659        2.28960612167827
C            1.97786666567741       -0.69679830316000        2.16511495412935
C            3.26425154607176       -0.09667940599884        2.61204449798963
C            3.35916097028804        1.29587683594798        2.59129564520550
C            2.28115980043597        2.10439565918034        2.19258505562982
C           -1.72629108728589       -2.09512254494518        2.31046990637298
C           -1.86908256512566       -3.26595261896116        3.15684992480847
C           -0.76836041660057       -4.04184924215643        3.47202844850163
C            0.39956071851468       -3.73400805118939        2.86936270237436
O           -2.74950623847471       -1.25860101147839        1.87897610269846
O           -1.62720365762607       -1.96735132690678       -0.98988758472140
C           -3.60534908920958        2.37658366583271       -1.94851825257472
C           -0.93743658323531       -5.08417070951308        4.47342952532756
H           -1.80382203885096        3.32926610213429       -0.69819619691839
H           -3.14058059377685       -0.39866479580409       -1.98800454257738
H            2.57825515188908        3.08873380382158        1.87932041358292
H            4.14576300375769       -0.64221321563277        3.04201981160704
H            1.38016506250046       -4.43361743235782        2.94121547875271
H           -2.74044025577914       -3.78178481286658        3.50890894060499
O           -4.02682232419301        3.36228174376508       -1.37040431014795
O           -4.19504162841467        1.84960642484854       -2.94072612990070
C           -5.06493357949616        2.80118917971405       -3.61863230744702
C            4.35421905897147        1.64701691595796        3.65837664753250
O            5.00345946538862        0.87497080306435        4.30066136969186
O            4.41565891054744        2.95714963903598        3.98873026474982
C            5.38919881810674        3.28684174224199        4.89102353545820
O           -2.05731197197012       -5.58872897689851        4.57647695454532
O            0.18591767597845       -5.46592646400774        5.16941827065386
C           -0.12038392810266       -6.09630226435980        6.32845178684919
C           -3.96844863854605       -1.87077140153056        1.80764590493657
C           -0.57046507825922       -2.32163627764550       -1.56803838147642
H            0.37042339943772       -5.49065813741962        7.05745399272616
H            0.25749438736235       -7.19741686926377        6.39183889883552
H           -1.24008409954170       -6.09902327873772        6.29883876748218
H            5.16581558450956        3.19986429078125        5.94907874354058
H            5.59103411702211        4.27654493159975        4.55389592746526
H            6.12797251392051        2.52205803202672        4.81882552765596
H           -0.39139370286942       -1.86196501764816       -2.45637435328077
H           -0.83457031786387       -3.31855371159553       -1.64368168033704
H            0.28610460328181       -2.54997113955351       -0.87145471262542
H           -3.81801744936903       -2.92958928981197        1.60137658065153
H           -4.59827841198669       -1.18523660612735        1.25705272338199
H           -4.50245945481576       -1.67032141550238        2.79030575848219
H           -5.90759522304202        3.36658673535039       -2.92519481561086
H           -5.48213458611489        2.46571661387916       -4.65888437949353
H           -4.49265561721174        3.55128933191143       -4.03325893790762
C           -2.14548886229470        4.09404313253547        3.47465912826611
C           -2.56436502519627        2.85031152768591        3.96757452904945
C           -1.39924315199950        2.20268495358046        4.76020499995806
C           -0.06761333546081        2.29199439666334        4.30255647690449
C            0.12162248515297        3.53829600017529        3.58188414935179
C           -0.80974251455844        4.50529056107319        3.70901036037243
C           -1.81454424384460        1.13675230883291        5.65492281616011
C           -0.67063729736607        0.34912378488098        6.04370269897662
C            0.66098754811182        0.53659830453736        5.61227928906183
N            0.90151083727070        1.33970646853889        4.51145187849285
C           -3.12849661934159        0.69794257712272        6.06390113740453
C           -3.16806770958677       -0.66335731656962        6.28342979792773
N           -2.07078908939766       -1.37455079575758        6.68888961686175
C           -0.88671720321590       -0.94191331441016        6.58139044354188
C            0.15117789757490       -1.95546877889067        6.97447883938794
C            1.41699156337113       -1.68254337133796        6.53649489007372
C            1.61714960345940       -0.46615861926226        5.86205382936045
C           -4.29790327834995        1.50863494788082        6.21287183526452
C           -5.55777969164411        0.80544042263240        6.13418215667741
C           -5.56755316162935       -0.55201816356312        6.12212897265120
C           -4.41459806641276       -1.23370451413048        6.16260373085003
O           -4.44424579852538        2.93104480668359        6.38646909194318
O           -3.77414465180880        2.30657545422024        3.60199138806980
C           -0.37627065208628        5.93764018257780        3.31677809656978
C           -6.81868140642431       -1.37504839023599        5.86237297913316
H            1.18335788435086        3.68092774820557        3.50783674078810
H           -2.49655224024085        4.63662983822395        2.60732901164825
H            2.58042222772558       -0.12002365727268        5.61507156555861
H            0.03260442960956       -2.91703181827837        7.42899790591245
H           -4.51185347414609       -2.35202756822699        6.16596266501103
H           -6.48489654189176        1.23544465589496        6.33893640529407
O            0.77112404528506        6.31942068371552        3.13334650156396
O           -1.41380266382317        6.72997524749882        2.85124716128112
C           -0.94601407962312        7.65024389978421        1.99698549377403
C            2.44525981298981       -2.68666674003300        6.38596773754817
O            3.50668287767887       -2.84846631366555        6.88644880200939
O            2.24429119957381       -3.52478039659438        5.28097172470661
C            3.34045958242450       -4.30283278465954        4.58825146572249
O           -6.86569181766118       -2.33402018559643        5.11818895835607
O           -7.88463074277383       -0.97736920232120        6.69037726818117
C           -9.04786094027499       -1.59294598657914        6.32935728025868
C           -4.44263951944207        3.69937695033809        7.60973787835149
C           -3.64493397317568        1.55882832093893        2.39073665241783
H           -9.45490661864060       -1.44893473647011        5.15464232116925
H           -9.83634361534922       -1.11082815200823        7.11322040670518
H           -9.11115645055524       -2.59955038104061        6.66594037722426
H            2.90645845687537       -4.76899976715749        3.73291780493833
H            3.77945239891943       -5.10867703601445        5.21411909403879
H            4.05889185998408       -3.52551654295019        4.13832012774682
H           -3.96489432372205        2.28406207862296        1.69760546558056
H           -4.23173366134082        0.68478126376836        2.79862392764582
H           -2.56640015188104        1.21107599667462        2.57777890517938
H           -4.94552913826138        3.01678943088508        8.34123141476069
H           -4.99742191023083        4.56973347624904        7.58159483076503
H           -3.42400729584315        3.69745605596828        8.18883945279858
H            0.14532608624096        7.58227199963986        1.91576977737261
H           -1.26107970913558        8.74932642783751        2.35889666774841
H           -1.20227324513297        7.54059287703329        0.98212953719497
116
 energy: -22.540472806522 gnorm: 0.580669789507 xtb: 6.6.1 (8d0f1dd)
C           -2.29722434297696       -0.01228265227194       -1.35790607504289
C           -1.36775197173113       -0.70577786203450       -0.53128247150641
C           -0.50500412709999       -0.05023733923325        0.33556984788807
C           -0.53652975925129        1.39228558034015        0.27201044101979
C           -1.29753185765326        2.00047104870748       -0.76031481381353
C           -2.20941115894650        1.36386184948076       -1.51406959454321
C            0.10845158958675       -0.65246521467425        1.54240173843433
C            1.18442729488275        0.09425344742758        1.98883586039322
C            1.26597653052432        1.47746092699786        1.58835792341788
N            0.27404780943546        2.15806151916567        0.97269451984777
C            0.00967122388666       -1.87858132220482        2.29338671695973
C            1.07362255064056       -2.33141315977455        3.16671784424516
N            2.24824230488236       -1.72930680336978        3.39637754883421
C            2.32168579654675       -0.53417665786532        2.83187724547965
C            3.41045366124018        0.21903961330289        3.09972816503011
C            3.59919606606532        1.42371764175003        2.37878655375880
C            2.57933744567504        2.08229075693392        1.71582114775589
C           -1.34778507681221       -2.54430469150962        2.39154366094413
C           -1.29271300848964       -3.88670750293745        2.75157252724847
C           -0.13124487928272       -4.50979250038038        3.19556645088218
C            1.05648751502519       -3.68126931150347        3.35533587152022
O           -2.39421638253519       -1.74732371971666        2.12616909912786
O           -1.17048033030061       -1.99391537450419       -0.88586260615237
C           -3.19650366525825        2.12906035308980       -2.48879217865899
C           -0.00948968476975       -5.82560246973448        3.24137535843924
H           -1.22471650646575        3.13024081516133       -0.87254719738559
H           -2.90937044350433       -0.47801480653622       -2.13465127865532
H            2.88446931749998        2.69625486691774        0.82386307898778
H            4.15057410680834       -0.27596522759390        3.71861720837222
H            1.66938999303501       -4.24581349935620        4.23608746609896
H           -2.22815563182889       -4.49963088612278        2.50294561004283
O           -2.88213659215193        3.26213419058926       -2.77136948986019
O           -4.45497908933688        1.62997401812109       -2.84995303165061
C           -5.08805046877419        2.16399986098912       -4.04419375224478
C            4.84954925182411        2.20189049567074        2.52213591495688
O            5.67829056321349        2.01321104611063        3.37036202096360
O            4.85553182405106        3.13065945612584        1.48980703608431
C            6.08473524521405        3.35383815995186        0.83606678683687
O            0.68126779545194       -6.53750554610607        4.02151867129064
O           -0.78068360838034       -6.55849521616521        2.31090890738394
C           -0.56414224745008       -7.94373171097432        2.48601927538575
C           -3.27133716553642       -2.56146992149684        1.33229656640959
C            0.12101779632341       -2.54911184409288       -0.59243412017096
H            0.49832817720145       -8.02439091879492        2.40526357403393
H           -0.73791986207637       -8.37357153883130        1.43379361092490
H           -0.96153878512174       -8.32439084225731        3.43116319943791
H            6.85579842485936        2.55190074621118        1.23095507587657
H            6.39560865702657        4.49166097696063        1.00105182099605
H            6.02544693657526        2.87237785664917       -0.26670722368188
H            0.34572105537877       -2.65097534670834        0.42948522332708
H            0.80769181629825       -2.02970847793529       -1.31635387866445
H            0.02139884453478       -3.70090185242827       -1.00415121122091
H           -2.69433081506966       -3.21978551573566        0.57033779641488
H           -4.01773885327595       -1.86100200708759        1.05137756128677
H           -3.82546908299373       -3.31848515103336        1.83796865795780
H           -5.44180291746509        3.28453736481208       -4.30488544183793
H           -6.09917872272169        1.96176048408037       -3.90411621115525
H           -4.70027905644861        1.50799426556060       -4.90404263101818
C           -2.56124131037241        4.40474078696135        4.04500675317150
C           -2.78103880600111        3.02071225287393        4.28494522071264
C           -1.76966740595436        2.24479385546906        4.86210518324160
C           -0.47761915512279        2.80047993646215        5.04432552908683
C           -0.16406233822609        4.05694367763321        4.80272728250794
C           -1.18947119475466        4.81587137764111        4.15574200133859
C           -2.14134735776795        0.94445662167901        5.47106807056178
C           -1.17869036966375       -0.05332483580588        5.61368636020007
C            0.19462302562717        0.49752628012129        5.36979538595606
N            0.39879481020433        1.81091035404703        5.37100474848635
C           -3.52149318562321        0.46789218350867        5.67339239249759
C           -3.72142943142204       -0.92039749985769        5.97488805716941
N           -2.80857376657745       -1.66862785678056        6.59213167792138
C           -1.50782867433878       -1.14759345104233        6.42407977011724
C           -0.33620136169237       -1.91151953240171        6.65378347964554
C            0.95293878651080       -1.54436907511198        6.33178777400545
C            1.29181017576243       -0.25695106889511        5.83666361515330
C           -4.35346327580815        1.54158994516547        6.19169764118842
C           -5.65995116392276        1.07522516927216        6.30073599005771
C           -6.06237166434725       -0.28491320545675        6.06143098705365
C           -5.09639831980902       -1.23273742456246        6.32097741714391
O           -4.04651581740589        2.65471008161034        7.02414024987453
O           -4.13115160757715        2.63720169208343        4.12624191774428
C           -0.84994686500461        6.27724656550635        3.87290185953302
C           -7.49923116881097       -0.81956173751900        6.24147124795252
H            0.84124433430810        4.59612083529559        4.95451301283103
H           -3.49223339727604        5.12626151252646        4.02352074702525
H            2.22224783397123        0.19950479554747        5.97815767907889
H           -0.56713382733879       -2.68623841179960        7.25849307158998
H           -5.61954929706857       -2.17468923935855        6.66342896501472
H           -6.48681353331041        1.55585036068745        6.89968962405392
O            0.24803369251163        6.55730160173802        4.24777241926885
O           -1.70405092053739        7.11897747266500        3.30722223900184
C           -1.06851490408181        8.43698028899742        3.08052463557704
C            1.97498322373919       -2.28773385516466        7.08439719040904
O            3.19181920730559       -2.05842439467783        7.06814285005964
O            1.57221977671987       -3.36663864244303        7.74261340896565
C            2.50086715839462       -3.93835771539465        8.71443498130082
O           -7.64020956265408       -2.07994917087085        6.27786701288474
O           -8.34035282226232        0.20130031502629        6.19181217948509
C           -9.63519680328993       -0.32968417324232        6.31584557816068
C           -3.09665834043760        2.57553407817600        7.92558111920592
C           -4.92522425507517        2.67758347007601        2.83775886022305
H          -10.44926309351800        0.41227967467128        6.39997507584798
H           -9.69603949783292       -1.31828736176124        6.99405127442867
H           -9.92914515875360       -0.67942252036114        5.20884975697567
H            3.47950101540256       -3.81988664753806        8.21997520320643
H            2.32692037207900       -5.00574599140013        8.66900865586525
H            2.65322224898321       -3.78728061912105        9.78766591608320
H           -6.05573850143499        2.77144216446098        2.91928288162997
H           -4.63807495291067        1.85196372430123        2.13578117810324
H           -4.84988172550093        3.55376193990586        2.27135633771619
H           -2.76295496871288        1.42788649227074        8.02187629285545
H           -3.45753374050741        2.70589686470495        8.88004627882574
H           -2.24053221085804        3.29680664253064        7.89622670862165
H           -1.66555979628541        9.20787652036934        3.34316184788212
H           -0.98974976902911        8.31883250807176        1.96349301528039
H            0.10473644044442        8.42109352518001        3.42891838691892
116
 energy: -22.524430653958 gnorm: 0.641894423014 xtb: 6.6.1 (8d0f1dd)
C           -2.63974431514991       -0.18122846154132       -1.03416845389817
C           -1.71048706495542       -0.75578863284068       -0.15615635065202
C           -0.80927577571275       -0.13928814188045        0.87571179851363
C           -0.86067293609486        1.30453729628296        0.72720899110214
C           -1.94335766586841        1.76567584687700       -0.07180742682525
C           -2.86173222328056        1.16919666122233       -0.95697782922107
C            0.17007235593499       -0.74034593977787        1.73440902822390
C            1.22272183029300        0.14456695699260        2.11439039395972
C            1.20293629497324        1.60444097662230        1.91723128233187
N            0.10596129425088        2.14394678441394        1.25518828242903
C            0.22649375225665       -2.04134131454715        2.19833143491376
C            1.55585232245143       -2.53121769081022        2.75109195146251
N            2.62638774676296       -1.64051396627938        2.81691751841518
C            2.35254198367496       -0.26013003848179        2.73922474423525
C            3.38785046002106        0.56706063297661        2.91552798266147
C            3.31749473103339        2.00084097477088        2.58699327177827
C            2.30889202843519        2.52699652666563        2.07091508047136
C           -0.88944949927426       -2.95627548444351        2.54435254285675
C           -0.78554668187606       -4.25876219935989        2.77673953056300
C            0.53691512916459       -4.73775724015186        2.53022381494700
C            1.61875688444929       -3.92127458572932        2.35394810509558
O           -2.00466516365667       -2.09803714503123        2.99904004226681
O           -1.65765857518560       -2.18446099986637       -0.39961974597461
C           -3.72895748490090        2.16612107520586       -1.78424868403504
C            0.65579819877049       -6.24125322075814        2.50549216455073
H           -2.04079285930208        2.92245138603973        0.16165754553890
H           -3.02299929863605       -0.72778698201963       -1.85756902411256
H            2.45993049215769        3.41056948574398        1.37912500449582
H            4.26906126572220        0.24499661080029        3.40400762002058
H            2.48978551866742       -4.41454524073129        2.89154039399335
H           -1.55218728706999       -4.84290498223011        3.39868609752765
O           -4.25391521552514        3.20076980585602       -1.39408899890857