116
 energy: -22.928061455056 gnorm: 0.329736929581 xtb: 6.6.1 (8d0f1dd)
C           -3.31122850772930        0.79849766164622       -0.92477639677520
C           -2.44380812530352       -0.12270372891954       -0.27661132624697
C           -1.41337090092821        0.39579727573559        0.56335275196199
C           -0.89266158675590        1.65801491088749        0.27377586709581
C           -1.72665675402493        2.51431363229076       -0.49448366572522
C           -2.95444148494349        2.13954154133227       -1.01494489940871
C           -0.74098268209890       -0.43411532818871        1.49825021926784
C            0.56872586496315        0.03782116815119        1.86248088067890
C            1.03782416582094        1.29402317993033        1.50887470833621
N            0.31238977034758        2.07067427098208        0.65193736800696
C           -1.29695700510141       -1.39996043042223        2.41574187746061
C           -0.38243517664656       -2.18060797534842        3.13232615520648
N            0.91308504082021       -1.90366887689689        3.30325166013478
C            1.37712470144904       -0.74872102533751        2.81811050966982
C            2.52149331701875       -0.17739833758153        3.39379298866852
C            2.95849061756259        1.02681208890480        2.95105897606587
C            2.24288949469137        1.78498308775960        2.03503020483770
C           -2.74860936222260       -1.74497937691422        2.38401158947411
C           -3.09416315450955       -2.91614440870436        3.00571134491758
C           -2.16786021984049       -3.77788778654213        3.63251872101904
C           -0.85708937311598       -3.40495313382985        3.68547234358092
O           -3.71994433332149       -0.94984598373544        1.67726658385724
O           -2.55702603277562       -1.47241711578389       -0.57241635275616
C           -3.84297843593025        3.13357444054366       -1.60938954875544
C           -2.68769581069131       -5.03867041417370        4.30484659386931
H           -1.39666850744143        3.51251503834900       -0.76806311868865
H           -4.27662633836220        0.55105838579656       -1.33106614114542
H            2.66329581305412        2.73912661909249        1.72562431984580
H            3.05775395548473       -0.69369546277216        4.16536137542516
H           -0.24710966264510       -4.12034095424229        4.22946223699121
H           -4.11477991332403       -3.04712728052358        3.03244694615357
O           -4.21824883374556        4.03433712717988       -0.87713382485991
O           -4.44510595673734        2.90643496899600       -2.81853501752979
C           -5.44216520282800        3.83300025693726       -3.02488532025093
C            4.23586651889298        1.50004220933226        3.59165660008449
O            5.05927614697201        0.66079890002952        3.91714215179376
O            4.47001334453535        2.86385149488593        3.72605651435371
C            5.79457498613219        3.08584475587818        4.15829123132174
O           -3.82227255313510       -5.27347675879771        4.16636005494405
O           -1.85023202017753       -5.79767454267276        5.06656077253571
C           -2.55119635829503       -6.86252441382958        5.62930343183426
C           -5.07197156564436       -1.42399175670916        1.58830531863830
C           -1.33089900128490       -2.23622472573986       -0.99264499351172
H           -2.54510546830388       -7.76426885143998        4.99136022291012
H           -3.57194749219491       -6.44405511486021        5.74196173723541
H           -2.09133598235598       -7.02043774843818        6.64022264233588
H            5.72707967266424        3.46798026205549        5.10135971236643
H            6.34060091246885        3.78468702308830        3.50069950143490
H            6.17933064298187        2.03010500085905        4.19342358084693
H           -0.91862729772622       -2.57650129080332       -0.01361370304871
H           -0.49769766914251       -1.60651221708571       -1.34094446550576
H           -1.52632419730509       -2.94569707152159       -1.75361447637286
H           -5.11788846557077       -2.41810833635233        1.17520213188926
H           -5.67929807973498       -0.69619639428435        1.04301666067831
H           -5.57598832326623       -1.42383358739762        2.57928294206544
H           -6.13050215934830        3.76035386975488       -2.23272855695873
H           -5.86615610071888        3.45938329385866       -4.02668959924245
H           -5.13479557532099        4.87790991548477       -2.98314551356402
C           -1.38192942069774        3.73616555005018        2.91232598411686
C           -1.84821468128685        2.59982427735607        3.49755545445181
C           -1.05946531454833        2.05730632010638        4.60922730982276
C            0.19893954712228        2.69376791964407        4.86302140881997
C            0.50425395911860        3.94630308659851        4.28768785650746
C           -0.26031777722226        4.46998310053134        3.25072669343212
C           -1.20488993561782        0.74454293276906        5.14851520323437
C           -0.06287609782692        0.02744069315890        5.60930570802864
C            1.19208754369866        0.71421540266195        5.78882868583885
N            1.19428660993148        2.06344359410476        5.62744624321596
C           -2.41361422770794        0.07928500213936        5.25249410304426
C           -2.45851584031083       -1.32662100968547        5.60237876023992
N           -1.29466212405906       -1.98318595734370        5.89916817085159
C           -0.14475655767527       -1.32117560077092        5.98824682881008
C            0.97209270935794       -1.98958449505532        6.53157704134458
C            2.21982707914082       -1.36973967291181        6.68703967237737
C            2.30561929262884       -0.09745313075593        6.26436900324455
C           -3.73018485967715        0.71367583494582        5.25810242262992
C           -4.89964478833448       -0.06184623426677        5.21204641615509
C           -4.82617965800088       -1.39228978090841        5.46901303780036
C           -3.67144193418464       -1.98914944386360        5.67265433266067
O           -3.75568638935321        2.07705011038914        5.52067969627343
O           -2.94192434743730        1.91263938797883        3.01658762327703
C            0.21273512614467        5.50086066357994        2.34765104514621
C           -6.06660304520411       -2.17604633098929        5.80641622556876
H            1.41756699010566        4.38133362238595        4.66974005703471
H           -1.82880610647429        4.11982501512100        2.06992133318584
H            3.26888037378556        0.32655662585251        6.31721410015598
H            0.87146188387207       -3.08471526305024        6.57830423410869
H           -3.67716811065157       -3.05999292755990        5.83019634570050
H           -5.77379677507622        0.43595144608221        4.71017130754348
O            1.34459852619901        5.82615848916894        2.44941456579099
O           -0.74718748219123        6.07961784856304        1.59848183464284
C           -0.21473095568964        7.24015934882472        1.05753806029483
C            3.53228080814219       -2.00967610361154        7.02506769044485
O            3.64093082622715       -3.14437803815732        7.50071391725347
O            4.56565258381079       -1.22937033368332        6.69086985080897
C            5.72579357310716       -1.80692399125161        7.22246151275881
O           -7.04801223588612       -1.95726935745904        5.14194115322235
O           -6.01514389321278       -2.93743591896022        6.94765316328794
C           -7.21292732384718       -3.62681918543340        7.15115816329978
C           -4.95459780685163        2.65960679932188        5.86868674392943
C           -3.68284113682406        2.59129188358641        2.05479246020704
H           -7.43119628931628       -4.22607794725959        6.20622607140901
H           -8.06548455146707       -2.91765848248592        7.29781126410398
H           -7.07314693247270       -4.33087306029711        7.91223421050944
H            6.57332189837178       -1.29353136199234        6.78341268688262
H            5.74663761932316       -2.84282155125561        6.88089468184451
H            5.69426191474290       -1.72781984964892        8.29460302186842
H           -4.10481209541493        3.44288266176275        2.60483747673152
H           -4.49244774344916        1.87419893016926        1.82433103764650
H           -3.18901540870812        2.85154642679373        1.06781919454921
H           -5.55414326821421        2.76698137191684        4.93950725322359
H           -4.78658370641210        3.62090640967288        6.25983200635257
H           -5.43485580473958        1.97242995129449        6.65265772412460
H            0.89164886030839        7.38838561720231        1.13776105146914
H           -0.62894889903848        8.04195665205089        1.64837664327952
H           -0.59282546386754        7.45699159724320        0.03719083132488
116
 energy: -22.751572215628 gnorm: 0.394233915662 xtb: 6.6.1 (8d0f1dd)
C           -3.01695859894407        0.48521530740849       -1.12511575825430
C           -2.38761778938319       -0.59435756683240       -0.47111024316767
C           -1.34017187895832       -0.17150608729893        0.40562546082257
C           -0.82743982484763        1.15396501743085        0.33247682058895
C           -1.45182604721242        2.08335296417868       -0.57233304874361
C           -2.60221229835712        1.81821727848077       -1.20842546425733
C           -0.67885488656549       -1.21815395226484        1.22249114373473
C            0.58399558093865       -0.80666843808785        1.63984669110550
C            1.00824432336499        0.56692660550444        1.60964559832541
N            0.30171663676241        1.52872501068781        0.99455042418616
C           -1.13858422262450       -2.57215448817977        1.61940903209467
C           -0.25838410758177       -3.44519858232913        2.39090056246925
N            1.00190171563486       -3.07819734164336        2.66143202445123
C            1.31444604243463       -1.80127606676305        2.39650464758805
C            2.57439763730734       -1.29368283167896        2.82303147761620
C            2.87735115352182        0.07522187014653        2.92164850584620
C            2.12071499949988        0.98502694212616        2.30021533703038
C           -2.56579945614871       -2.82202317733416        1.69029792982075
C           -3.03255714184475       -4.11232131623827        2.01855060439724
C           -2.11595665412320       -5.07022918687484        2.45727329184150
C           -0.83392186148882       -4.66283161879390        2.71001774017762
O           -3.39066399101486       -1.64080615246280        1.67649769951612
O           -2.76833519156143       -1.96596139606331       -0.69706677982377
C           -3.16575082865479        2.82316180543582       -2.12987845664433
C           -2.50369069985829       -6.52689838162788        2.70833910733644
H           -1.12924502546839        3.06380919322346       -0.62144595080990
H           -3.91377150307322        0.22821659749311       -1.80196413690877
H            2.66624578785794        1.87313374213354        2.12177348417944
H            3.26569526510154       -1.86548316540309        3.45348161744251
H           -0.22678980789166       -5.37428374613220        3.22896478426274
H           -3.98548442480712       -4.44753543690896        1.71290011113891
O           -2.97735735428899        3.98787753136742       -1.84859470873752
O           -3.56410423496441        2.48042010260385       -3.42329819608153
C           -4.15117009117476        3.58210497954101       -4.06582916111866
C            4.04197432876586        0.55769281872829        3.64357933598615
O            4.49017779729199        0.27597332538015        4.75392975272933
O            4.62228761367522        1.49515965434806        2.92719046274581
C            5.67804003948331        2.00146272938951        3.62750354237003
O           -3.69000872525228       -6.80951873090006        2.66959259620136
O           -1.51615084047757       -7.33848295140416        3.18217320289274
C           -1.99906295562448       -8.27715714797156        4.13953945625254
C           -4.77248655958442       -1.79409068848395        2.26509550031615
C           -3.89146533160914       -2.12936642618098       -1.38625529511288
H           -2.94784140526005       -8.66786298151763        3.94078919408159
H           -1.99258526194012       -7.84654649526123        5.11518958454449
H           -1.26541366274973       -9.12635294083542        4.29731303232255
H            6.52559308990513        2.42824719082142        3.00504509400324
H            6.19778606995016        1.28230640562146        4.33336557154021
H            5.38452185412896        2.90466674306891        4.08175788918523
H           -3.47284960026439       -2.36756184021421       -2.42876521647863
H           -4.65155032933689       -1.31384931181656       -1.25211250316231
H           -4.18191648744393       -3.16599839993115       -1.26798527963863
H           -5.38508412331286       -2.44642846320594        1.73911131815364
H           -5.23060591871573       -0.86499284737203        2.57940161945196
H           -4.54890631632083       -2.27414799475831        3.21615760455768
H           -4.60115337828457        4.35888329372321       -3.39698013672359
H           -4.47675365926203        3.47500207882347       -5.15591289144171
H           -3.20981139741784        4.08572152275486       -4.38376051320139
C           -1.76216063910950        4.19623680744840        3.11827766657675
C           -1.90286811557421        3.07491047153771        3.91446193316380
C           -1.02167239532120        2.88693359387381        5.07723527574162
C            0.27090756753169        3.59003263831897        4.99602913014302
C            0.35835548861008        4.71819046357533        4.21541741999665
C           -0.63534044219572        5.00419952581953        3.26167459301363
C           -1.16801394014509        1.76963365735302        5.98719038614058
C            0.06421348349236        1.13655648442037        6.37340611582066
C            1.31790224982353        1.82977811334645        6.18387960335183
N            1.32826843846385        3.14232697080584        5.88427053211989
C           -2.42155840451694        1.06500223902212        6.43558238147317
C           -2.36166885427575       -0.30864863243650        6.75029630951633
N           -1.16646165619438       -0.85708215492641        6.83718882355500
C            0.02809082215807       -0.26248724744412        6.76078611004362
C            1.25124722394164       -0.96062812025298        6.81065307992470
C            2.42982135586698       -0.24104324161639        7.05597331082473
C            2.53896756494615        1.14361101119723        6.69651746797702
C           -3.76805974919560        1.56850096873966        6.40237969836225
C           -4.96270803791046        0.85710892704204        6.33774631452521
C           -4.87788171473712       -0.50788344428420        6.45334585714962
C           -3.58735559106573       -1.07598557132115        6.54725580183538
O           -3.67292013247340        2.94562209477764        6.63271507046483
O           -2.83327805006966        2.06876576818572        3.59933593777349
C           -0.68878979733035        6.12093674489905        2.36744949403455
C           -6.07681096864207       -1.22688907063460        6.08709183511413
H            0.99423238699617        5.55856354586867        4.60958437691840
H           -2.31701796443776        4.41575891702408        2.23179067962706
H            3.49116895982436        1.62216243669798        6.93451573822356
H            1.32418519390356       -1.99337676777684        6.45542035739728
H           -3.46193922059998       -2.20439869492400        6.35661836773030
H           -5.92685914922778        1.39575253715441        6.29583365516964
O           -0.74095258687532        5.83876123975289        1.19555755611825
O           -0.96252659293255        7.36666102470096        2.99658685635279
C           -0.67560689865403        8.40885874844048        2.13326147643594
C            3.67575669859065       -1.01664056672339        7.30779920098880
O            3.64982952061177       -2.19684745130617        7.00823960790938
O            4.77384863979695       -0.45556297890802        7.94860682660639
C            5.82520112835698       -1.35691992330495        7.76566868423052
O           -6.58671434688785       -1.17252208762997        4.95805137696363
O           -6.54192431143244       -2.16771300830494        6.92493252088644
C           -7.30056580861919       -3.14257688189625        6.19409811092875
C           -4.77839062613884        3.61857734288469        7.02144943105039
C           -4.23246684737714        2.30739238435342        3.18534530553002
H           -6.51496062976437       -3.51846240249246        5.57162335478679
H           -8.08272418899802       -2.64907382107923        5.57539065901567
H           -7.79223068437519       -3.92232487114536        6.93959504024323
H            6.58940651474902       -0.72819047387522        7.63216306382644
H            5.53662740072291       -1.92592724197576        6.84733455809117
H            5.83004683915275       -2.01059649659571        8.69404686064556
H           -4.56769845931295        1.40612891419990        2.63156056325780
H           -4.04294642151423        3.07765088477034        2.39690183341657
H           -4.86356297901824        2.64591373524740        4.00817778037677
H           -4.88985741841179        4.68816853248193        6.74010027621987
H           -4.74616430534666        3.44430841359989        8.07698710391654
H           -5.62988906700358        3.21177050398844        6.51806442144420
H           -1.64121222114735        8.73024968661120        1.84260973780446
H           -0.06960511552653        7.92753537047116        1.37888563589779
H           -0.25888625546539        9.21782940163307        2.89617817225407
116
 energy: -22.781807715428 gnorm: 0.394137513455 xtb: 6.6.1 (8d0f1dd)
C           -3.06587578460308        0.07479492214366       -0.50606453299269
C           -2.36836406747240       -0.71502257263902        0.32205040659794
C           -1.36981015153643       -0.15975594709108        1.16849176537607
C           -0.82455035923143        1.11982223140066        0.96646143919676
C           -1.49457813066645        1.95586302393117        0.09683975041822
C           -2.44900370319824        1.30683145801950       -0.69990744152516
C           -0.73461608046409       -1.07356359570748        2.07223398822950
C            0.60043072680951       -0.77935498015903        2.34496293929346
C            1.05903760548079        0.54188337106997        2.22145570412969
N            0.32913093607910        1.51950855177493        1.56183146760057
C           -1.24167242940988       -2.24763184153216        2.63430287494084
C           -0.31074898993001       -3.28675334758519        3.11068365202982
N            1.04480563761768       -3.03041562741030        3.22542796924629
C            1.48686141570391       -1.77311023813819        2.98009266595686
C            2.75781311346893       -1.36178774229481        3.23934036141667
C            3.30220882097876       -0.17629638547724        2.86036482965509
C            2.41229823702135        0.79953373145821        2.32498898070686
C           -2.67140881523160       -2.50534975177788        2.92428731958199
C           -3.06583534981197       -3.85508012975413        3.17869927530633
C           -2.10977430897444       -4.90208479263935        3.07127882120216
C           -0.74185783761603       -4.61349499508694        3.05201934854273
O           -3.67615703814301       -1.50117017707750        2.62809643322816
O           -2.49086467636437       -2.03488506471338        0.47648486748836
C           -2.85267479181593        2.22375609188424       -1.74186434824914
C           -2.77791254487197       -6.05408554013089        2.41980956993836
H           -1.07185535550702        2.87495505187962       -0.22034398806355
H           -3.84517886255010       -0.41789219348450       -1.17923526754632
H            2.55447822247419        1.85045251140724        2.25737654249923
H            3.32589426654561       -2.21834264536499        3.51869923986406
H           -0.01892962131061       -5.41064621374792        3.12639755504834
H           -4.10619453087717       -4.18538435527102        3.07562921073707
O           -2.21591529037189        3.29425027136971       -1.85411830997308
O           -3.91485261895082        1.78087391189641       -2.46755920201279
C           -4.01202381764711        2.57021235308846       -3.58269654037902
C            4.76220254916399        0.08002632506293        3.13762336867904
O            5.66040683417225       -0.61202539886431        2.80541531247664
O            5.03261966157208        1.19548189003308        3.94573838499915
C            6.41494852736997        1.46686542420499        3.85628947086094
O           -3.98123333451810       -6.12422218122299        2.28803616096131
O           -2.03991151666668       -7.09368135535503        1.85875524680385
C           -2.78641789458030       -8.16765873904487        1.39969317449098
C           -4.93565459525520       -2.08727966412744        2.53770022526098
C           -3.15267155415888       -2.66345278155124       -0.60823445541046
H           -2.31936463602348       -9.04233323588942        1.74794507472448
H           -2.62553877519964       -8.18118013620313        0.26750332016117
H           -3.83513804661406       -8.10551989675527        1.54381070338610
H            6.75599615471295        2.31237275414192        4.43158730159681
H            6.67047124210271        1.48970505441339        2.80937566347600
H            6.85602309082774        0.51567422125855        4.27577772725682
H           -2.55769898693697       -3.56206600368685       -1.00327533799968
H           -3.49289249544955       -1.90709632543818       -1.34452589921150
H           -3.96150481324146       -3.29460623612305       -0.24549718367889
H           -5.15095832426798       -2.31440405842079        1.50506658056291
H           -5.52674559319737       -1.33975384370038        2.84973504322185
H           -4.91988602146201       -2.93985960654859        3.17786351917368
H           -4.25518630077358        3.68815507063932       -3.31389234099546
H           -4.64117428615306        2.34046583393765       -4.42209635097642
H           -2.97268573367162        2.53554828744101       -4.06216841132928
C           -2.29393371266133        4.75107787105789        2.92074061045951
C           -2.43406569600766        3.42502554765912        3.25083471216333
C           -1.42804442824622        2.77866810829412        4.21576714996776
C           -0.20685405889843        3.47402851570487        4.55468482732342
C           -0.13231297291730        4.78821771039254        4.08738489365634
C           -1.16953060489275        5.41182584594326        3.45913573015724
C           -1.43554969296127        1.44291351992460        4.78170975674185
C           -0.16784367377757        0.97203495650900        5.27330246325491
C            0.97401710331407        1.83640821492510        5.52374926676754
N            0.94158617799470        3.13136960355915        5.16448912740943
C           -2.65092370901142        0.74225704775792        5.13554958211393
C           -2.38260936701055       -0.62851855108294        5.44706474234108
N           -1.18797837104656       -1.17822746731697        5.83401642544609
C           -0.13621717957896       -0.36955685507363        5.88033544134703
C            1.04485515448753       -0.72839568905719        6.48901764850764
C            2.21837509661465        0.07185764594709        6.58425292132144
C            2.13238023037752        1.35514200523092        6.11705669474925
C           -3.98683330868814        1.30522400835315        5.31302236704430
C           -5.12915857610435        0.41181201208636        5.35673951204584
C           -4.81657964524959       -0.91268174264749        5.72298197579651
C           -3.50728222391180       -1.38211548524138        5.85760417996993
O           -4.21876629723239        2.69566048424293        5.40594993104084
O           -3.27385731215264        2.37233773211551        2.81547350923454
C           -1.00499606273131        6.79061495721416        2.96048631534755
C           -5.91724399191056       -1.60142849209179        6.49977987831543
H            0.80652187325309        5.34079519837741        3.90336551824801
H           -2.93584308583950        5.16124762854695        2.15421329906568
H            2.93256363235667        1.99624650212247        6.42216746405096
H            1.04269455953398       -1.69958027193009        7.00057350408201
H           -3.26366580690337       -2.36151895422244        6.45140530213500
H           -6.15135033782003        0.84588178312170        5.17624083062315
O           -1.65484932329225        7.22958264178249        2.02568653064976
O           -0.07254650275986        7.38773433861589        3.66755839033112
C            0.50014733889404        8.63052881824974        3.18179343404271
C            3.40922573444854       -0.32202536736409        7.40193079437842
O            3.31426772319469       -1.23996566548541        8.22257207418648
O            4.51258411002978        0.42230666818176        7.35706726082965
C            5.45620017121981        0.21508146017699        8.30202907858819
O           -6.17816903576610       -1.15572019571480        7.58425420277397
O           -6.71791091587729       -2.55503418837146        5.79825753223799
C           -7.41747145725129       -3.13806265691026        6.76503307090307
C           -4.03079237385007        3.31895240517874        6.63382355115388
C           -3.95706546672180        2.75744477219704        1.63724733186963
H           -7.41088165641944       -2.44409167090250        7.64509888331587
H           -6.89796271004703       -3.99833557852510        7.09054844195936
H           -8.39439129683626       -3.38317903577901        6.37758387235257
H            6.31813975753628        0.86493949434484        8.11976396584818
H            5.69576601457231       -0.89984181299163        8.19110491151724
H            4.94699048665420        0.48744410384320        9.26391520499915
H           -4.52098859875500        2.02824885087687        1.06603011296924
H           -3.40325012763304        3.40136845606403        1.00812869346862
H           -4.75838146842556        3.49456337106111        2.05068885313715
H           -4.10439601154929        2.45410892755118        7.31249866112370
H           -4.96636006220646        3.88800289574753        6.82213461975727
H           -3.06475143860988        3.79892049012040        6.70863575412907
H           -0.02041037257623        9.53026599063762        3.47597794542020
H            0.62059334276184        8.73945578576236        2.11348583157529
H            1.39127172042710        8.77804308035417        3.67117815752168
116
 energy: -22.812056056358 gnorm: 0.373351425235 xtb: 6.6.1 (8d0f1dd)
C           -2.87131031429114        0.79713904001864       -0.64314493702791
C           -2.22489352612761       -0.37228446543476       -0.11659035457554
C           -1.13731639850571       -0.29556395307161        0.84452100007482
C           -0.63053789123084        1.04856037202047        1.24439759822610
C           -1.35977812594461        2.14643953861263        0.71864394970309
C           -2.31377149881729        2.09227355164032       -0.27608315133555
C           -0.52096257013513       -1.32121142333371        1.68146270363807
C            0.79135910808522       -0.96912421961646        2.20568372469444
C            1.27744561696394        0.34906244700057        2.11253822649699
N            0.48987902941119        1.38249738757202        1.81154707995829
C           -0.96840096341004       -2.54712348191996        2.22560717785306
C           -0.08224090293603       -3.51192485214678        2.77927684496830
N            1.21924136310288       -3.23900870801403        2.92341271940904
C            1.53691447020734       -1.96260161832947        2.84977731205870
C            2.79194810104785       -1.50515563534232        3.26538864376588
C            3.28946411914848       -0.22311900136935        3.15128783664411
C            2.53845063410918        0.78302876245242        2.58568727848590
C           -2.32877172538360       -2.91701487097840        2.21367574008292
C           -2.77750528039919       -4.13282876519622        2.81441599007532
C           -1.93999235913775       -5.05051443240484        3.20958872170046
C           -0.56171604328418       -4.80442037219069        3.20429003769163
O           -3.17596934604235       -1.90495544345193        1.78920418340229
O           -2.67085786384607       -1.52246980993076       -0.72171243823355
C           -2.69707702147870        3.40878043403864       -0.98639206106751
C           -2.61519841394544       -6.28572569904262        3.63159198540139
H           -0.95977910905509        3.16176929112169        0.96036071813460
H           -3.41637196718148        0.72888487782806       -1.56524984158105
H            2.59845281587021        1.84849615932465        2.39921890383102
H            3.40836618425053       -2.29496055198376        3.64756851569660
H            0.04577908398122       -5.72546640075313        3.41673536987660
H           -3.78054257080386       -4.51040135883126        2.84912992043289
O           -2.06001309841819        4.34389718595294       -0.55774778908994