116
 energy: -22.928061455056 gnorm: 0.329736929581 xtb: 6.6.1 (8d0f1dd)
C           -3.31122850772930        0.79849766164622       -0.92477639677520
C           -2.44380812530352       -0.12270372891954       -0.27661132624697
C           -1.41337090092821        0.39579727573559        0.56335275196199
C           -0.89266158675590        1.65801491088749        0.27377586709581
C           -1.72665675402493        2.51431363229076       -0.49448366572522
C           -2.95444148494349        2.13954154133227       -1.01494489940871
C           -0.74098268209890       -0.43411532818871        1.49825021926784
C            0.56872586496315        0.03782116815119        1.86248088067890
C            1.03782416582094        1.29402317993033        1.50887470833621
N            0.31238977034758        2.07067427098208        0.65193736800696
C           -1.29695700510141       -1.39996043042223        2.41574187746061
C           -0.38243517664656       -2.18060797534842        3.13232615520648
N            0.91308504082021       -1.90366887689689        3.30325166013478
C            1.37712470144904       -0.74872102533751        2.81811050966982
C            2.52149331701875       -0.17739833758153        3.39379298866852
C            2.95849061756259        1.02681208890480        2.95105897606587
C            2.24288949469137        1.78498308775960        2.03503020483770
C           -2.74860936222260       -1.74497937691422        2.38401158947411
C           -3.09416315450955       -2.91614440870436        3.00571134491758
C           -2.16786021984049       -3.77788778654213        3.63251872101904
C           -0.85708937311598       -3.40495313382985        3.68547234358092
O           -3.71994433332149       -0.94984598373544        1.67726658385724
O           -2.55702603277562       -1.47241711578389       -0.57241635275616
C           -3.84297843593025        3.13357444054366       -1.60938954875544
C           -2.68769581069131       -5.03867041417370        4.30484659386931
H           -1.39666850744143        3.51251503834900       -0.76806311868865
H           -4.27662633836220        0.55105838579656       -1.33106614114542
H            2.66329581305412        2.73912661909249        1.72562431984580
H            3.05775395548473       -0.69369546277216        4.16536137542516
H           -0.24710966264510       -4.12034095424229        4.22946223699121
H           -4.11477991332403       -3.04712728052358        3.03244694615357
O           -4.21824883374556        4.03433712717988       -0.87713382485991
O           -4.44510595673734        2.90643496899600       -2.81853501752979
C           -5.44216520282800        3.83300025693726       -3.02488532025093
C            4.23586651889298        1.50004220933226        3.59165660008449
O            5.05927614697201        0.66079890002952        3.91714215179376
O            4.47001334453535        2.86385149488593        3.72605651435371
C            5.79457498613219        3.08584475587818        4.15829123132174
O           -3.82227255313510       -5.27347675879771        4.16636005494405
O           -1.85023202017753       -5.79767454267276        5.06656077253571
C           -2.55119635829503       -6.86252441382958        5.62930343183426
C           -5.07197156564436       -1.42399175670916        1.58830531863830
C           -1.33089900128490       -2.23622472573986       -0.99264499351172
H           -2.54510546830388       -7.76426885143998        4.99136022291012
H           -3.57194749219491       -6.44405511486021        5.74196173723541
H           -2.09133598235598       -7.02043774843818        6.64022264233588
H            5.72707967266424        3.46798026205549        5.10135971236643
H            6.34060091246885        3.78468702308830        3.50069950143490
H            6.17933064298187        2.03010500085905        4.19342358084693
H           -0.91862729772622       -2.57650129080332       -0.01361370304871
H           -0.49769766914251       -1.60651221708571       -1.34094446550576
H           -1.52632419730509       -2.94569707152159       -1.75361447637286
H           -5.11788846557077       -2.41810833635233        1.17520213188926
H           -5.67929807973498       -0.69619639428435        1.04301666067831
H           -5.57598832326623       -1.42383358739762        2.57928294206544
H           -6.13050215934830        3.76035386975488       -2.23272855695873
H           -5.86615610071888        3.45938329385866       -4.02668959924245
H           -5.13479557532099        4.87790991548477       -2.98314551356402
C           -1.38192942069774        3.73616555005018        2.91232598411686
C           -1.84821468128685        2.59982427735607        3.49755545445181
C           -1.05946531454833        2.05730632010638        4.60922730982276
C            0.19893954712228        2.69376791964407        4.86302140881997
C            0.50425395911860        3.94630308659851        4.28768785650746
C           -0.26031777722226        4.46998310053134        3.25072669343212
C           -1.20488993561782        0.74454293276906        5.14851520323437
C           -0.06287609782692        0.02744069315890        5.60930570802864
C            1.19208754369866        0.71421540266195        5.78882868583885
N            1.19428660993148        2.06344359410476        5.62744624321596
C           -2.41361422770794        0.07928500213936        5.25249410304426
C           -2.45851584031083       -1.32662100968547        5.60237876023992
N           -1.29466212405906       -1.98318595734370        5.89916817085159
C           -0.14475655767527       -1.32117560077092        5.98824682881008
C            0.97209270935794       -1.98958449505532        6.53157704134458
C            2.21982707914082       -1.36973967291181        6.68703967237737
C            2.30561929262884       -0.09745313075593        6.26436900324455
C           -3.73018485967715        0.71367583494582        5.25810242262992
C           -4.89964478833448       -0.06184623426677        5.21204641615509
C           -4.82617965800088       -1.39228978090841        5.46901303780036
C           -3.67144193418464       -1.98914944386360        5.67265433266067
O           -3.75568638935321        2.07705011038914        5.52067969627343
O           -2.94192434743730        1.91263938797883        3.01658762327703
C            0.21273512614467        5.50086066357994        2.34765104514621
C           -6.06660304520411       -2.17604633098929        5.80641622556876
H            1.41756699010566        4.38133362238595        4.66974005703471
H           -1.82880610647429        4.11982501512100        2.06992133318584
H            3.26888037378556        0.32655662585251        6.31721410015598
H            0.87146188387207       -3.08471526305024        6.57830423410869
H           -3.67716811065157       -3.05999292755990        5.83019634570050
H           -5.77379677507622        0.43595144608221        4.71017130754348
O            1.34459852619901        5.82615848916894        2.44941456579099
O           -0.74718748219123        6.07961784856304        1.59848183464284
C           -0.21473095568964        7.24015934882472        1.05753806029483
C            3.53228080814219       -2.00967610361154        7.02506769044485
O            3.64093082622715       -3.14437803815732        7.50071391725347
O            4.56565258381079       -1.22937033368332        6.69086985080897
C            5.72579357310716       -1.80692399125161        7.22246151275881
O           -7.04801223588612       -1.95726935745904        5.14194115322235
O           -6.01514389321278       -2.93743591896022        6.94765316328794
C           -7.21292732384718       -3.62681918543340        7.15115816329978
C           -4.95459780685163        2.65960679932188        5.86868674392943
C           -3.68284113682406        2.59129188358641        2.05479246020704
H           -7.43119628931628       -4.22607794725959        6.20622607140901
H           -8.06548455146707       -2.91765848248592        7.29781126410398
H           -7.07314693247270       -4.33087306029711        7.91223421050944
H            6.57332189837178       -1.29353136199234        6.78341268688262
H            5.74663761932316       -2.84282155125561        6.88089468184451
H            5.69426191474290       -1.72781984964892        8.29460302186842
H           -4.10481209541493        3.44288266176275        2.60483747673152
H           -4.49244774344916        1.87419893016926        1.82433103764650
H           -3.18901540870812        2.85154642679373        1.06781919454921
H           -5.55414326821421        2.76698137191684        4.93950725322359
H           -4.78658370641210        3.62090640967288        6.25983200635257
H           -5.43485580473958        1.97242995129449        6.65265772412460
H            0.89164886030839        7.38838561720231        1.13776105146914
H           -0.62894889903848        8.04195665205089        1.64837664327952
H           -0.59282546386754        7.45699159724320        0.03719083132488
116
 energy: -22.747226207163 gnorm: 0.435959967859 xtb: 6.6.1 (8d0f1dd)
C           -3.00007677375518        0.68354135675693       -1.44479223024649
C           -2.54678394956651       -0.10671207249106       -0.34952288265529
C           -1.79217234971709        0.58182845316101        0.62360615787671
C           -1.34371038948375        1.94478458815641        0.50922660071372
C           -1.94123722744246        2.62476658592173       -0.61440318592122
C           -2.79716405624941        2.03497876315480       -1.51719227476098
C           -1.33089896587231       -0.16131714438389        1.75046620834155
C           -0.05035435031769        0.37959096848311        2.23831300053551
C            0.47155083607212        1.58970471957048        1.78776752252403
N           -0.20640582193834        2.55919944400824        1.01014249183921
C           -1.79508994941675       -1.24987316290580        2.54615623941260
C           -0.79946074427231       -2.12718565880235        3.05413376638236
N            0.51518586588086       -1.73182143264210        3.33314885286943
C            0.81541092971276       -0.45308435235900        3.06807688358458
C            2.17710230982352       -0.05299647174175        3.40568022306669
C            2.64966819546550        1.06705877562060        2.86802708966734
C            1.78506901174017        1.85952186466599        2.12939956777086
C           -3.12612209350887       -1.76223753357322        2.47889414703307
C           -3.38299344077212       -3.17808801345514        2.58103607323141
C           -2.32150992220256       -3.88689986152732        3.00665777445957
C           -1.16072541864946       -3.35750512405958        3.47777529285898
O           -4.00866306063895       -0.71040733971562        2.05349452515904
O           -2.73554822103164       -1.51619988483657       -0.29262715475101
C           -3.56272024567669        2.79120940187184       -2.56922117521119
C           -2.60294433844549       -5.30405282709745        3.22850264124868
H           -1.55183174345175        3.57394243731896       -0.96154744956875
H           -3.71555197453553        0.24268294678364       -2.16472446167070
H            2.18865730477319        2.75915318968710        1.74969529954008
H            2.87009724299825       -0.69260969765356        3.88275360737737
H           -0.35954880489875       -3.86324240102683        4.01316404060088
H           -4.21401251991435       -3.69404035288830        1.96526089457565
O           -3.21370663458220        3.88512304373598       -3.02830745963940
O           -4.56979255059963        2.17595299179368       -3.24645031736820
C           -5.10987137436040        3.13559387206064       -4.22516451123443
C            4.11074176854422        1.08490315976823        2.81149493436774
O            4.90853996653931        0.80536938237660        3.73163143858974
O            4.68149233069050        1.37987349802505        1.53710515027455
C            6.11558446226202        1.28775587870904        1.59040600967709
O           -3.65822530346510       -5.99755936201424        3.00624481067563
O           -1.55196796553059       -6.00981175139192        3.82628398704549
C           -1.88371676433045       -7.32155217736401        4.23498139564420
C           -5.25903233152347       -1.38465829534663        1.75005162902445
C           -2.50116414837620       -2.25100588355259       -1.57780592195231
H           -1.40881633011766       -7.65477562657268        5.19345924770084
H           -1.57326024534214       -8.02272034331719        3.46692565640028
H           -2.94186848993334       -7.41153852675195        4.30059894126697
H            6.24174675205634        1.64983833464645        2.64878945645198
H            6.39997460892064        2.13118224159564        0.95393701339862
H            6.36384468065293        0.26530188936149        1.38942058522897
H           -1.83786040705689       -3.09390815412741       -1.34357780313300
H           -2.40972339089113       -1.49149376085985       -2.41130831458408
H           -3.35688823640668       -2.81411187097757       -1.76190433537790
H           -6.03033482681617       -1.33939789730414        2.54743413171159
H           -4.95003936991897       -2.45040231988998        1.45109750789008
H           -5.63955724482375       -1.02095509996920        0.80411657546577
H           -4.51672917263662        4.02621334365034       -4.11963226960621
H           -6.19349424940334        3.17385061365287       -4.10261670859928
H           -4.80011173304269        2.90109377677573       -5.19374797886804
C           -1.60607313331172        3.78315652596058        3.41752490571870
C           -1.76792443475123        2.51099750360310        4.04551790084546
C           -0.82082953793304        2.21024946112300        5.10723980750940
C            0.26322072253295        3.01206833632077        5.50530350771949
C            0.37486989642108        4.19732840509406        4.79413132254507
C           -0.45909568167355        4.54089700266368        3.74986136350235
C           -0.87452642800254        1.04710400083113        5.84142977385579
C            0.30985468482458        0.31887933756982        6.16885519179256
C            1.48276112449612        1.12174553811036        6.23872755724028
N            1.43153710831289        2.47574403272464        6.09998157263399
C           -2.15894244334366        0.40884160971640        6.17279235095060
C           -2.11118286448583       -1.07866871641250        6.19303559012826
N           -0.95570352762668       -1.71632825438644        6.59604311458341
C            0.15711435188263       -0.95238969064283        6.77769780552214
C            1.25039343434042       -1.37032925828732        7.52312364786561
C            2.46833630497903       -0.77364884130970        7.45195014874162
C            2.65345433893283        0.40103782447422        6.72739327543634
C           -3.49621387786960        1.15486993032228        6.15948597724597
C           -4.59216800317789        0.33778425052914        5.78119155441061
C           -4.53309479776449       -1.03597021037582        5.79176140784515
C           -3.34565834518905       -1.66109284763828        5.95860101694791
O           -3.74822649026422        2.57711742214738        6.48926053361871
O           -2.68719805451087        1.51760894261099        3.62118804407298
C           -0.01719228792971        5.71724466849383        2.95950462401808
C           -5.78323880626553       -1.91345661093659        5.65846484008289
H            1.26337384546760        4.82925133074445        4.79876118888957
H           -1.97978295386965        4.18691944374265        2.42590178842733
H            3.47352390734564        1.04423449472103        6.94409470748227
H            1.09030335214010       -2.32147729290357        8.15605961531434
H           -3.42350564508031       -2.76112894926547        5.97315275878565
H           -5.60958250374152        0.62669678953053        5.59187428116004
O            0.18154802004639        6.83866802755237        3.40901132310735
O           -0.04462183056886        5.39757330705986        1.56325220178965
C            0.12781595653623        6.65040608858479        0.87454202089269
C            3.50965415942370       -1.29206721329092        8.23192310280347
O            3.16253944197968       -2.11895803735261        9.06581331015112
O            4.77260562842525       -0.79521748566343        8.12548293497266
C            5.59405000715603       -1.77892233389532        8.58139226739521
O           -6.76633349944185       -1.61810165164152        6.31758182462168
O           -5.72094207050018       -3.05708154979049        4.89769643126791
C           -6.79481109722394       -3.97041252477793        5.05513308115599
C           -4.79210326115334        2.77374409044743        7.40095295013721
C           -3.75565450540235        2.13517076219396        2.88377585290666
H           -6.51026559432807       -4.77522064722859        4.46635943689224
H           -7.63539493910265       -3.47878073613902        4.45256415501970
H           -6.91062710498267       -4.29122877800611        6.03572023530127
H            6.60596776642025       -1.39403950489953        8.47524235780121
H            5.53346064886711       -2.78743692673781        8.03123863343951
H            5.41504866289690       -2.00454790302194        9.71847177010918
H           -4.53367416057758        2.29795238054668        3.68045239955636
H           -3.98476433107041        1.46842944369143        2.14280618945782
H           -3.56867080618436        3.09808733633142        2.49817955881455
H           -5.70998362162511        3.26301600657251        6.78733248078006
H           -4.52060441912603        3.60135792320431        8.24974320077974
H           -5.05157136878815        1.85383149934987        8.03954794262066
H            0.80961779746436        7.40407127759814        1.32430559986335
H           -0.84447402920197        6.94820834640822        0.63690421119591
H            0.48093664294349        6.46523401283815       -0.16294394353815
116
 energy: -22.740058974010 gnorm: 0.447989339112 xtb: 6.6.1 (8d0f1dd)
C           -3.27942293317428        0.74743323983343       -1.61335897382142
C           -2.47207878575949       -0.12484381923988       -0.88420532130216
C           -1.34585523945855        0.19316999123358        0.01327371459622
C           -0.85793021649540        1.52010498047216       -0.27054449378880
C           -1.53105563368596        2.39780752649928       -1.25669434449790
C           -2.77719987447292        2.02497323014029       -1.73631826817964
C           -0.78743595811501       -0.57248920389381        1.08688007274581
C            0.49925971920822       -0.02521981551108        1.52314254848780
C            0.97397953867176        1.21371558398324        1.24246784871666
N            0.28150125739264        1.94217572518300        0.33107640220669
C           -1.53278393415382       -1.65468259605444        1.66602055930340
C           -0.60955313816002       -2.40218756894545        2.48453025588752
N            0.66001981567912       -2.09971781948820        2.71536465947370
C            1.28104287251044       -1.01280464894286        2.20454229816355
C            2.55547444049814       -0.49104644867149        2.77774297508444
C            2.92673760129916        0.82765484727031        2.68814085214453
C            2.11589699954398        1.66304263956706        1.95544579559229
C           -2.97029851107668       -1.86226625355784        1.75108844816940
C           -3.34514260422477       -3.13089977383960        2.16454787474036
C           -2.44453152264830       -3.98644362025325        2.89025726249612
C           -1.12856366598746       -3.48017878595021        3.14144187915871
O           -3.79852974155168       -0.79184552204833        1.40120723279725
O           -2.75317293959781       -1.44294594375976       -1.08912551495235
C           -3.64093938629879        2.91082857354866       -2.50314653476401
C           -3.03945332741391       -5.14808685039053        3.71820235990104
H           -1.27215134652701        3.40336432119409       -1.36270611336122
H           -4.27939286290362        0.63868267871110       -2.00352158839948
H            2.27594706350033        2.73244533241375        1.87987284998598
H            2.95763670102421       -1.14270160148413        3.58846620352058
H           -0.50234962045404       -4.10528079057117        3.86983483187462
H           -4.39071278811382       -3.31465705787901        2.31686576982956
O           -3.50985738568888        4.07922956824298       -2.27187185953543
O           -4.36358801944320        2.26612885227353       -3.37258339340439
C           -5.16609151069232        3.14032697754050       -3.96460123451250
C            4.07054434140732        1.52100777749512        3.32877559416754
O            4.87413317706747        0.90213106020482        4.01155411332613
O            4.19313212120960        2.84066362705240        3.16950015185011
C            5.35961174547836        3.40983560410683        3.68845762647324
O           -4.17418639559960       -5.48367154148752        3.69054302255789
O           -2.11327538320519       -5.87525451131944        4.44979991071128
C           -2.79393224901902       -6.66071152356196        5.43440500884521
C           -5.08023191242741       -1.25861654307430        1.91474428999269
C           -3.90051100762924       -1.86232047192790       -1.92308018485377
H           -3.52336759214380       -7.31363454533810        4.92905058284975
H           -3.36992130682857       -5.93870385524034        6.03992872967273
H           -2.19994731419376       -7.40073755294724        6.02910861223904
H            5.75787375825110        4.01808442800604        2.98046691615679
H            6.06888792364401        2.58550247782382        4.03549390020855
H            5.30401218306976        3.94757213278195        4.70813148656284
H           -3.72187606500545       -1.65523335060241       -2.94625508009453
H           -4.75791737772824       -1.35018614121526       -1.57530284266824
H           -3.88095804482545       -2.96063719119372       -2.04668819116190
H           -5.05555936496526       -1.56715233549248        3.03363074764807
H           -5.45590211362047       -2.12298844223157        1.38535348287716
H           -5.77314110152989       -0.41056970817610        1.85010611753213
H           -4.68700434501054        3.21585292869249       -4.94689759805933
H           -5.38529937875443        4.07729766268075       -3.40115224141141
H           -6.17466792861449        2.62882699320557       -4.22231468070900
C           -1.37541581487311        3.64442748765552        2.82391116888232
C           -1.67900430103819        2.45043254006776        3.59833396217686
C           -0.70839766510099        1.96108449772382        4.63695136082980
C            0.56203643597493        2.55847028911057        4.60217547424595
C            0.79581106003580        3.79222587271346        3.90983675208996
C           -0.12388798684390        4.28596854277153        2.94241565105410
C           -0.97096703844137        0.88547114806757        5.58488637554829
C            0.19139656691526        0.21013592492795        6.06222104619558
C            1.47305737496011        0.83564127072901        5.87140366532883
N            1.66587267490037        2.00929208884555        5.18005516571958
C           -2.13215089114096        0.15382262276541        6.02676078556784
C           -2.11285243750444       -1.18802833636806        6.47077577800050
N           -1.00136236791195       -1.76820270566177        6.89409063851676
C            0.15677601193877       -1.05627944161343        6.76687753578488
C            1.30018055303105       -1.51201614240381        7.37702432969887
C            2.40666075558290       -0.69606795754966        7.59075342466303
C            2.49419187649967        0.49110854504598        6.77575108221060
C           -3.47238955671947        0.79944287401856        6.10347334744358
C           -4.59684834939849       -0.01701109836268        5.89153708066606
C           -4.41374030131936       -1.42822241372104        5.85039027054598
C           -3.25400137645987       -2.05747128871457        6.29500685130791
O           -3.75541439573018        2.14458471136889        6.12630805867524
O           -2.92321913740990        1.73056438622298        3.54509257620160
C            0.06719310450440        5.60364851785956        2.33177300920951
C           -5.64572040996829       -2.28111849629661        5.93317588625515
H            1.73955794370014        4.28467645533357        4.15008260903126
H           -2.09781469584391        4.01262716770872        1.94472518100759
H            3.20168454322330        1.27769324041505        6.91230200857838
H            1.16247974171395       -2.28509148864354        8.22789510954546
H           -3.26774877088188       -3.17763078572485        6.41002641979606
H           -5.60418487797357        0.43410006961205        5.97359389848189
O            0.85070790887614        5.78304818177651        1.33311209292141
O           -1.00410976246751        6.51957595941161        2.55939577265997
C           -0.58985141736322        7.83897901027336        2.29737560623660
C            3.36128443233996       -1.45967431634673        8.49254692938396
O            3.34035429532428       -2.72573397125456        8.59814828477593
O            4.16923007216633       -0.69256749067249        9.31940653565233
C            5.13085630837014       -1.59175125993299        9.88844964376348
O           -6.75795112422215       -1.81501950829788        6.22669506344890
O           -5.48690056645740       -3.60603660697402        5.75042711202900
C           -6.76005945175558       -4.30784685648475        6.02908638728576
C           -2.74418700604046        2.97762731121300        6.58806663002842
C           -3.69755624902652        2.04897007370517        2.34823862967368
H           -6.51833620036208       -5.40145575140362        5.98358143271901
H           -7.52264556040189       -4.28658808687612        5.31674581911893
H           -7.27804763516304       -4.07579385137146        7.02604628282629
H            5.65606859987465       -1.30919874389088       10.76473862007205
H            5.97151296632262       -1.81534666515055        9.24211388243830
H            4.73162808467613       -2.51853107108662       10.02535515166620
H           -4.34765132368243        2.82233558338407        2.51255415521260
H           -4.37623083917848        1.21440567659155        2.18912243507467
H           -3.04648802929636        2.22240245174258        1.49645960194765
H           -2.76995043927549        4.23278279308506        6.38934021718128
H           -1.66034474363684        2.63152697271515        6.43667751904380
H           -2.70511354292068        2.86978939385901        7.74536210026368
H           -0.98219002013431        8.57135793525110        1.51212428545108
H            0.45955714616053        7.66091683788301        2.09764869523061
H           -0.68103071189423        8.44756569873066        3.17779260838571
116
 energy: -22.800171298689 gnorm: 0.424247690799 xtb: 6.6.1 (8d0f1dd)
C           -3.14826084570009        0.58518471023181       -1.39772892666595
C           -2.59592450159893       -0.34731388955332       -0.57468851871380
C           -1.56385459670651        0.18731557809424        0.26931932013700
C           -1.05580417418650        1.52565333650728        0.03709035345928
C           -1.52856811170244        2.28692280908726       -1.04356281598607
C           -2.66232612934288        1.83717235740095       -1.70303412376593
C           -0.95617672089902       -0.60876539964801        1.22186283035471
C            0.26240357556932       -0.00884570846589        1.70124078086085
C            0.77823923266224        1.23106234913197        1.30531977377000
N           -0.06692223154908        2.06380131199293        0.69031501274094
C           -1.42915450051429       -1.81325154818421        1.80922547243236
C           -0.58732726953101       -2.59235226423133        2.67696583204492
N            0.71359095303480       -2.20813795068773        2.76147020118487
C            1.10213147500315       -0.97514861480702        2.36651185699154
C            2.32764348959386       -0.48318806910530        2.98551874810963
C            2.62940338242724        0.89735526274149        2.80467918251821
C            1.92415222112783        1.76746964324279        1.91605844582015
C           -2.85291673143707       -2.19270167535075        1.76189886290807
C           -3.16627757284413       -3.34139736741006        2.52794149127302
C           -2.33250124674263       -3.97440379335657        3.38325482678611
C           -1.02907701123089       -3.61051494979397        3.42541631303979
O           -3.87765653072301       -1.29184462089451        1.36513374465608
O           -2.75980039979153       -1.75237690476323       -0.78438285699945
C           -3.37923606544207        2.71917119010338       -2.75059352611962
C           -2.88709935717578       -5.12081479253862        4.20204445184247
H           -1.16978434996114        3.32403617297047       -1.23080368533723
H           -3.98354655845887        0.30577068835534       -2.03075952651365
H            2.15834456735445        2.80893586366032        1.70768760917542
H            3.01917023248067       -1.22893164364209        3.52268867894632
H           -0.31299890110602       -4.32283754997666        3.94520687812053
H           -4.19717040023323       -3.65877595341922        2.63659491126700
O           -2.77532731567908        3.07988072858783       -3.75895677197041