110
 energy: -291.974010685249 gnorm: 0.354076514520 xtb: 6.7.1 (edcfbbe)
C           -0.26530000000000        2.09050000000000       -2.96670000000000
C           -0.51800000000000        1.14730000000000       -1.97340000000000
C            0.05460000000000        1.36240000000000       -0.67690000000000
C            1.05980000000000        2.35780000000000       -0.52370000000000
C            1.27080000000000        3.26140000000000       -1.57870000000000
C            0.60310000000000        3.14480000000000       -2.76550000000000
C           -0.24900000000000        0.54220000000000        0.45270000000000
C            0.69300000000000        0.54320000000000        1.48990000000000
C            1.72920000000000        1.51680000000000        1.51010000000000
N            1.86440000000000        2.45290000000000        0.55570000000000
C           -1.44310000000000       -0.21710000000000        0.68070000000000
C           -1.40900000000000       -1.18920000000000        1.71960000000000
N           -0.38590000000000       -1.33330000000000        2.58840000000000
C            0.58400000000000       -0.40660000000000        2.54090000000000
C            1.52410000000000       -0.36110000000000        3.57610000000000
C            2.51340000000000        0.59000000000000        3.60970000000000
C            2.61550000000000        1.51510000000000        2.59710000000000
C           -2.71810000000000        0.12640000000000        0.11210000000000
C           -3.83360000000000       -0.64090000000000        0.45060000000000
C           -3.76230000000000       -1.64840000000000        1.39070000000000
C           -2.56790000000000       -1.93510000000000        1.98550000000000
O           -2.87050000000000        1.29240000000000       -0.64330000000000
O           -1.22400000000000       -0.02360000000000       -2.19640000000000
H            1.99040000000000        4.05560000000000       -1.45060000000000
H           -0.73150000000000        2.00240000000000       -3.93290000000000
H            3.40130000000000        2.25410000000000        2.63400000000000
H            1.45470000000000       -1.08000000000000        4.37690000000000
H           -2.52110000000000       -2.70490000000000        2.73780000000000
H           -4.79650000000000       -0.39390000000000        0.03480000000000
C           -3.97850000000000        2.08810000000000       -0.27560000000000
C           -1.77780000000000       -0.17000000000000       -3.48000000000000
S            0.89880000000000        4.40300000000000       -4.15370000000000
F           -0.25250000000000        5.27560000000000       -3.50880000000000
F            1.95710000000000        5.10300000000000       -3.21330000000000
F            1.15100000000000        5.45350000000000       -5.30860000000000
F           -0.17450000000000        3.63310000000000       -5.01730000000000
F            2.02220000000000        3.42780000000000       -4.69240000000000
S           -5.32010000000000       -2.56910000000000        1.95860000000000
F           -5.33070000000000       -1.59060000000000        3.19120000000000
F           -6.17040000000000       -1.54910000000000        1.11360000000000
F           -6.60840000000000       -3.32420000000000        2.46010000000000
F           -5.16350000000000       -3.48610000000000        0.68660000000000
F           -4.38120000000000       -3.52100000000000        2.78250000000000
S            3.73000000000000        0.60230000000000        5.06220000000000
F            4.49450000000000        1.77470000000000        4.33170000000000
F            4.58230000000000       -0.46120000000000        4.25800000000000
F            4.74550000000000        0.60830000000000        6.27340000000000
F            2.79280000000000        1.65160000000000        5.77880000000000
F            2.88540000000000       -0.55840000000000        5.71540000000000
H           -2.31420000000000       -1.12050000000000       -3.50280000000000
H           -0.97960000000000       -0.18980000000000       -4.22460000000000
H           -2.48040000000000        0.64430000000000       -3.66780000000000
H           -3.68450000000000        3.13610000000000       -0.37570000000000
H           -4.23310000000000        1.89620000000000        0.77130000000000
H           -4.82310000000000        1.86750000000000       -0.93070000000000
C           -3.16040000000000       -0.05270000000000        4.96990000000000
C           -2.78950000000000       -0.86940000000000        6.03990000000000
C           -1.70680000000000       -0.43900000000000        6.88110000000000
C           -0.88670000000000        0.63740000000000        6.44610000000000
C           -1.33840000000000        1.42980000000000        5.38150000000000
C           -2.46210000000000        1.10600000000000        4.67760000000000
C           -1.32110000000000       -1.11060000000000        8.08510000000000
C            0.00230000000000       -0.92560000000000        8.50480000000000
C            0.80140000000000        0.08670000000000        7.90710000000000
N            0.33020000000000        0.91190000000000        6.95800000000000
C           -2.14070000000000       -1.93340000000000        8.92150000000000
C           -1.48440000000000       -2.79350000000000        9.84680000000000
N           -0.16580000000000       -2.72540000000000       10.12580000000000
C            0.53760000000000       -1.74330000000000        9.53610000000000
C            1.85990000000000       -1.51530000000000        9.93930000000000
C            2.62900000000000       -0.52370000000000        9.37700000000000
C            2.11410000000000        0.25860000000000        8.36960000000000
C           -3.57130000000000       -1.82440000000000        8.98020000000000
C           -4.27140000000000       -2.77240000000000        9.72330000000000
C           -3.62440000000000       -3.71850000000000       10.49240000000000
C           -2.26040000000000       -3.71160000000000       10.57470000000000
O           -4.18570000000000       -0.74200000000000        8.36940000000000
O           -3.34800000000000       -2.11010000000000        6.31000000000000
H           -0.78370000000000        2.31780000000000        5.11940000000000
H           -3.97780000000000       -0.32970000000000        4.32210000000000
H            2.73580000000000        1.00840000000000        7.89980000000000
H            2.28010000000000       -2.13180000000000       10.71930000000000
H           -1.76500000000000       -4.41220000000000       11.22940000000000
H           -5.34770000000000       -2.77440000000000        9.72540000000000
C           -5.54970000000000       -0.56200000000000        8.66290000000000
C           -4.39690000000000       -2.52620000000000        5.47700000000000
S           -2.99150000000000        2.27000000000000        3.27730000000000
F           -3.69490000000000        1.04570000000000        2.60830000000000
F           -4.29610000000000        2.56310000000000        4.10970000000000
F           -3.42680000000000        3.21110000000000        2.10400000000000
F           -1.64530000000000        1.88080000000000        2.57050000000000
F           -2.24130000000000        3.42980000000000        4.03160000000000
S           -4.63190000000000       -4.99490000000000       11.46890000000000
F           -4.64950000000000       -3.95420000000000       12.65990000000000
F           -5.94200000000000       -4.33790000000000       10.88410000000000
F           -5.46720000000000       -6.06040000000000       12.28520000000000
F           -4.53850000000000       -5.92990000000000       10.19660000000000
F           -3.26480000000000       -5.57930000000000       12.00030000000000
S            4.39140000000000       -0.23910000000000       10.01690000000000
F            4.45970000000000        1.04880000000000        9.10050000000000
F            4.91630000000000       -1.13690000000000        8.82060000000000
F            5.85790000000000        0.00700000000000       10.56310000000000
F            3.74550000000000        0.62990000000000       11.17530000000000
F            4.22280000000000       -1.53480000000000       10.90850000000000
H           -4.80930000000000       -3.45220000000000        5.88290000000000
H           -3.99420000000000       -2.72570000000000        4.48540000000000
H           -5.17770000000000       -1.76400000000000        5.43380000000000
H           -5.86730000000000        0.37480000000000        8.20080000000000
H           -5.68640000000000       -0.49370000000000        9.74390000000000
H           -6.13000000000000       -1.38460000000000        8.24200000000000
110
 energy: -292.066086231326 gnorm: 0.243510135612 xtb: 6.7.1 (edcfbbe)
C           -0.26747214742620        2.08197120241835       -2.96707395921410
C           -0.51848475423617        1.14690420175315       -1.97252369279915
C            0.05213125779884        1.35011546728071       -0.68484417375129
C            1.05828838287085        2.35039760742384       -0.52530707342999
C            1.27464735234611        3.26720010196828       -1.57518590066789
C            0.60141860724658        3.14292915175089       -2.75408469367465
C           -0.25258806581115        0.54118189164283        0.44748916354479
C            0.68832923314608        0.54217727591566        1.48642057183806
C            1.72779661661762        1.51491917917241        1.50480236056222
N            1.85098005834404        2.44387462309431        0.55358896708548
C           -1.44963930481405       -0.20693541319963        0.67608959952968
C           -1.41233092126462       -1.17983057722277        1.71831210107272
N           -0.39037308710033       -1.32418722067188        2.57678220175768
C            0.57714748333522       -0.40567935461102        2.54023119968018
C            1.52196088307842       -0.36776770643184        3.58081563124311
C            2.50947619278634        0.58926885493242        3.60527320707404
C            2.62050151447447        1.51972664138322        2.59602157290126
C           -2.71431759919685        0.12456714976660        0.11186486990813
C           -3.83041936938190       -0.63484690909842        0.44435700315236
C           -3.75057344064527       -1.65498086199599        1.37850559091655
C           -2.56592011205112       -1.94090318568324        1.98838712561342
O           -2.85611312317650        1.27620614069688       -0.62996735911328
O           -1.21528460859004       -0.00664444681356       -2.19184992502353
H            1.99711120478275        4.05070418311742       -1.43711828500971
H           -0.73318890260229        1.99198764830558       -3.93021697992996
H            3.39753780357979        2.26276624579047        2.62488968619477
H            1.44480580691267       -1.08928033787663        4.37263578810022
H           -2.50463148992719       -2.70062855326234        2.74479671996586
H           -4.78943756152661       -0.38569380466854        0.02606191109620
C           -3.97876231542726        2.07575083587632       -0.29008976807837
C           -1.77541260936631       -0.16764737998208       -3.47596526824659
S            0.89570554742484        4.38797706053502       -4.13494248043451
F           -0.26719066095905        5.29792274051943       -3.51065461909377
F            1.97688698777533        5.13134911025423       -3.22029078261870
F            1.14718689607188        5.44086476242235       -5.29598668646760
F           -0.18617996071470        3.63874355057324       -5.04602976770922
F            2.03965365746558        3.42328824079862       -4.71148170544481
S           -5.30367969130398       -2.55909924332961        1.93248035253655
F           -5.35519416915766       -1.57700483329842        3.19181973304541
F           -6.20583944530209       -1.54177887940199        1.09782226710644
F           -6.59795227687857       -3.31485185115542        2.44213577132099
F           -5.17884836087430       -3.51262724095544        0.65766652267089
F           -4.39532582152586       -3.55859117695346        2.78036476050003
S            3.71906415562158        0.60237562155213        5.04473887645868
F            4.52581222041776        1.79044148521923        4.34026443659292
F            4.60492790529194       -0.47815118460033        4.25988404925453
F            4.73819782501554        0.60925647876845        6.25922424183204
F            2.79298428990250        1.67174167192938        5.78879005318932
F            2.89079854483415       -0.57254087536352        5.74522187443126
H           -2.30768799327260       -1.11944980366185       -3.48774533794786
H           -0.98598516687028       -0.18989167001688       -4.23183779415268
H           -2.48201098159130        0.64053824281099       -3.67773864357224
H           -3.68186686438805        3.12271454873094       -0.38748025913562
H           -4.25967848893083        1.89337639294768        0.74350778715225
H           -4.82584996933100        1.86633458966082       -0.94354705987401
C           -3.15866649733306       -0.06145735990063        4.97219951624194
C           -2.78647700557119       -0.86830679580658        6.04305895317692
C           -1.70985194318528       -0.44896456115204        6.87768113354849
C           -0.88427192527004        0.62999532396602        6.44611196677801
C           -1.33136429891451        1.43622743431762        5.38215137627861
C           -2.45557993418043        1.10396311356164        4.69206151307140
C           -1.32731245977096       -1.11013647925409        8.08371072337449
C           -0.00265196279061       -0.92593062832242        8.50353474383915
C            0.79905671063896        0.08594398683630        7.90424113250172
N            0.31938711985547        0.90461309213425        6.96691592828019
C           -2.15028538183913       -1.92236277919478        8.92149011073248
C           -1.48834642260326       -2.78671724159358        9.84517844107909
N           -0.17543243411906       -2.71903135598546       10.11470978115223
C            0.53123777048984       -1.74289064332999        9.53892319746198
C            1.86046628919565       -1.52163054972262        9.94607831819551
C            2.62252806825314       -0.52795237378552        9.37447593893184
C            2.11757180970934        0.26365606493424        8.36890875423632
C           -3.57021137076883       -1.82397227517880        8.98012937719834
C           -4.27294152900120       -2.76397186617149        9.72090789806763
C           -3.61539344201659       -3.71711959810926       10.48528454321745
C           -2.25560749425825       -3.71687309974178       10.57698999434958
O           -4.17617607558899       -0.75458017399373        8.37945188427534
O           -3.33799105667593       -2.08546899705622        6.32107806913775
H           -0.76612635231413        2.31233328599070        5.12030064833261
H           -3.97817677799604       -0.33097651328041        4.33158897443016
H            2.72654450098493        1.01714407746886        7.90396782498467
H            2.26927914726489       -2.14062741878668       10.72394234436338
H           -1.75072144247936       -4.40476117184526       11.23019816255168
H           -5.34675001381635       -2.76316380910190        9.72198863025863
C           -5.54538468400242       -0.56508970397441        8.66249598322206
C           -4.38957122528453       -2.52174467525959        5.49410850270534
S           -2.98297871729611        2.25657825488004        3.31176054315479
F           -3.70922090909013        1.03594849872846        2.59760235203630
F           -4.32291542219647        2.57630669232248        4.12182802993350
F           -3.41924502671135        3.21467571730950        2.13927744709020
F           -1.62741897620282        1.88990686509493        2.55490607853797
F           -2.23793085514980        3.46487139028669        4.03943708801485
S           -4.61803471049690       -4.97961582808272       11.45638402397896
F           -4.65873633456713       -3.94901659571958       12.68404760700152
F           -5.97304433016020       -4.34486581130736       10.88791077098580
F           -5.45912445104718       -6.04755132376020       12.27524526946964
F           -4.54656397113935       -5.95368153964635       10.18537505240389
F           -3.26024906697697       -5.60689476545978       12.02199785343818
S            4.37141261481322       -0.24093763779336       10.00465312498481
F            4.48000759894053        1.07398493352011        9.09905428087067
F            4.93492370725437       -1.14629640245172        8.80736577327738
F            5.84248043488572        0.00574269593093       10.55462490448810
F            3.75070214799869        0.64147895824554       11.19534896687066
F            4.24698130216207       -1.54563411198611       10.92777139681733
H           -4.79439973327265       -3.44777214843325        5.90218191164108
H           -3.99406925509825       -2.72302989044388        4.50558968979000
H           -5.18006195288602       -1.77165463731605        5.44069973195485
H           -5.85162246911015        0.37250639382416        8.19657757173393
H           -5.69714997982845       -0.49514671005596        9.74270705164733
H           -6.13863249493314       -1.38150969510604        8.24440533196519
110
 energy: -292.140595227151 gnorm: 0.083133424416 xtb: 6.7.1 (edcfbbe)
C           -0.26980609211794        2.07612633170679       -2.97136888721167
C           -0.51873195284704        1.14308419800354       -1.97541338012737
C            0.04970144524320        1.33862284696063       -0.69262732531885
C            1.05751384256061        2.34520897115730       -0.52580232962530
C            1.28142715556206        3.27578851567635       -1.57385502770352
C            0.59949789968165        3.13729999062794       -2.73807930617212
C           -0.25354560972812        0.53955106466243        0.44372781927082
C            0.68644845966198        0.54045360386312        1.48524499149479
C            1.72756648119324        1.51455135999333        1.50089903315786
N            1.83811091889134        2.43291309367036        0.55023780357141
C           -1.45561013239420       -0.19915181702203        0.66947896139074
C           -1.41483418720023       -1.17425140499719        1.71641104669152
N           -0.39702075018563       -1.31314573443853        2.56737087533836
C            0.57159179755392       -0.40595040306253        2.54146786038811
C            1.52190067618699       -0.37521665739884        3.58839967267897
C            2.50136306829264        0.58806292968464        3.59455740483530
C            2.62805174170596        1.52540673185507        2.59718275373483
C           -2.71397802938137        0.12908731532084        0.11154553160427
C           -3.83139512118822       -0.63063988874431        0.43738230663481
C           -3.73315071810937       -1.65777855272666        1.36468466422177
C           -2.56697956160147       -1.94909664396489        1.99478563259834
O           -2.84474063232315        1.26229695777064       -0.60898220570694
O           -1.20645580829930        0.01353804905075       -2.19059732736732
H            2.00518907251576        4.05029785920822       -1.42451981512479
H           -0.73267430725281        1.98940373158485       -3.93278959484567
H            3.39724140334469        2.27191724950963        2.61804767228004
H            1.43741738989057       -1.09939492952212        4.37190916570547
H           -2.49075758295145       -2.70018102600314        2.75387010778268
H           -4.78853716676712       -0.38184962260417        0.02128061871212
C           -3.98165502344039        2.06839457289972       -0.29999824924118
C           -1.77524700473327       -0.16731550401692       -3.47448963736766
S            0.88952914203455        4.35992831105077       -4.10048090022376
F           -0.29122068266972        5.32944374172007       -3.50983447298548
F            2.00591778357438        5.16951106080503       -3.22502449478160
F            1.14167684989809        5.42061973861310       -5.27551948362221
F           -0.20581267048468        3.64281967703408       -5.08673479012391
F            2.06579667641808        3.41213735263810       -4.73669331517559
S           -5.26697863856479       -2.53793260179809        1.90071410898343
F           -5.38508220635451       -1.55181900355729        3.20586695812154
F           -6.25214131568666       -1.52808218996240        1.08077037332262
F           -6.57541200232469       -3.29943429414678        2.42670762779058
F           -5.19510526094524       -3.54927802404524        0.62204589461246
F           -4.40521889774698       -3.61173636675306        2.78774936372525
S            3.69540999116920        0.60269005610473        5.01213396872297
F            4.56716034807798        1.81501842761994        4.34788340697418
F            4.63448313762089       -0.50351284119140        4.25681389574902
F            4.72280695483717        0.60945275314516        6.23677165576737
F            2.78671586026895        1.70257818671710        5.80430746604618
F            2.89324781383234       -0.59744296182460        5.78638190911528
H           -2.30176721655459       -1.12037535091842       -3.47137267623427
H           -0.99207298479201       -0.19159548415218       -4.23813065465492
H           -2.48445113964224        0.63638426215242       -3.68708129420423
H           -3.67642631711734        3.11134866345707       -0.40068092846745
H           -4.28078781785734        1.89589261124024        0.72651872162542
H           -4.82505949376145        1.86311724148684       -0.95923983529654
C           -3.16183282975173       -0.06860853667409        4.97297546250939
C           -2.78616062521447       -0.87127305627534        6.04516547625933
C           -1.71260087204663       -0.45758401955864        6.87473532700027
C           -0.88054709239567        0.62495713098877        6.44697005291749
C           -1.32224120344858        1.44502239135460        5.37947907349748
C           -2.44709582999081        1.09767642332322        4.71192152448815
C           -1.33040831281181       -1.10937393344242        8.08365222827949
C           -0.00389587947822       -0.92590357087677        8.50347497451576
C            0.79864107377937        0.08746418602136        7.90238045393087
N            0.30877852904102        0.89542433061022        6.97500909377040
C           -2.15968379349371       -1.91250695547866        8.92138585338895
C           -1.49096523726204       -2.78233362918743        9.84373497563044
N           -0.18608402170075       -2.71081213970891       10.10425928655731
C            0.52773735350697       -1.74397463853304        9.54270371586966
C            1.86507601038927       -1.52853220018826        9.95490481576997
C            2.61016003837915       -0.53260666316865        9.36999351360322
C            2.12407658972575        0.27161599182269        8.37004264006075
C           -3.57248007134353       -1.82014060288246        8.98260476512046
C           -4.27800267271219       -2.75829356601243        9.72089319975595
C           -3.60303048721948       -3.71222430654165       10.47567669443058
C           -2.25124629683011       -3.72488299204316       10.58310877608385
O           -4.16879379659974       -0.76939782035974        8.39313920120778
O           -3.32831893058380       -2.05832614803286        6.32482832478152
H           -0.74939227797294        2.31185480811355        5.12197636931742
H           -3.98122004178806       -0.32936373522417        4.33564923013603
H            2.72193680196315        1.02792079208341        7.90734995115335
H            2.26344942460204       -2.15008083303657       10.73101661637510
H           -1.73604310514383       -4.40181645076728       11.23287889462689
H           -5.34894206087312       -2.75950651381360        9.72375446534047
C           -5.54429998299225       -0.56613670667282        8.66153506630054
C           -4.38528199435877       -2.51938270040780        5.50538680472892
S           -2.96959436790394        2.22838560803664        3.36276520277929
F           -3.73427952148463        1.01449421835172        2.57406483756213
F           -4.36660664011457        2.59395271423327        4.13225592413989
F           -3.40871322772091        3.20972146279525        2.17761320793713
F           -1.59959388593465        1.89634430636925        2.52421072191460
F           -2.23183899070807        3.51506235586380        4.04397439433362
S           -4.59266505144844       -4.95101161850886       11.43325311466731
F           -4.66985351938677       -3.93670140820441       12.71843960046875
F           -6.01839393911662       -4.35120334234572       10.89008821675291
F           -5.44524866041387       -6.02706649974670       12.25978802373531
F           -4.55586372102363       -5.98722062197299       10.16518522486425
F           -3.24876275627561       -5.64344730539516       12.05118484714602
S            4.33448384860604       -0.24544168263567        9.98414438570133
F            4.50768319365566        1.10907692006186        9.09412278045915
F            4.95978321246718       -1.16243061597787        8.78707505491070
F            5.81730555578320        0.00213618112157       10.54404956525741
F            3.75230290437057        0.65961925747825       11.22409518171169
F            4.27580095600007       -1.56535411365698       10.95486932834401
H           -4.77874495133642       -3.44421937625617        5.92203246834696
H           -3.99739435351504       -2.72163235611343        4.51623040265995
H           -5.18378618361166       -1.77940466117913        5.44689117422906
H           -5.83530943057780        0.37199578230184        8.19090894242296
H           -5.70766051428248       -0.49523733883973        9.74101612359666
H           -6.14644794639422       -1.37795835535197        8.24522110758582
110
 energy: -292.156156954654 gnorm: 0.028809122072 xtb: 6.7.1 (edcfbbe)
C           -0.26617303963380        2.07932013607355       -2.97583225429083
C           -0.51746803538769        1.14280977050324       -1.98157802763511
C            0.05278510121245        1.33345033862521       -0.69730672257393
C            1.05934730574937        2.34054041373205       -0.52729785920957
C            1.28671252353187        3.27986455666218       -1.56892946165575
C            0.60142492872660        3.13726838431584       -2.72938083180481
C           -0.25071159052201        0.53458272390026        0.44006161643131
C            0.68732593358272        0.53613848983782        1.48447113109902
C            1.72789567333676        1.50988312183779        1.49899577708849
N            1.83529161547515        2.42555657445169        0.54792110378042
C           -1.45454465319127       -0.20214807523353        0.66544909368429
C           -1.41805480049535       -1.17336428932805        1.71494923929590
N           -0.40575343075882       -1.30670338759404        2.56955227695477
C            0.56725746085387       -0.40526980603919        2.54386955434483
C            1.51927195059752       -0.37949084247897        3.59118650574121
C            2.49766907312070        0.58445763411116        3.58596244252429
C            2.63065100719316        1.52542964625666        2.59458802387286
C           -2.71239246840546        0.13233839715644        0.10777666543038
C           -3.82935354780737       -0.63773148923887        0.42045881799226
C           -3.72281633930135       -1.66717979356489        1.34069786842819
C           -2.56706385822712       -1.95664867152071        1.99147374884345
O           -2.83348646868010        1.26238707271940       -0.60290393881268
O           -1.20783547322973        0.02147516909147       -2.19415247037194
H            2.01486532640826        4.05069037359498       -1.40867935799970
H           -0.72559774364602        1.99420174274283       -3.93971244439730
H            3.39460159752256        2.28010922470857        2.61246776064595
H            1.43282373457987       -1.11008195605473        4.37100793978060
H           -2.48335059668637       -2.69959696131936        2.76016330767525
H           -4.78701275274615       -0.38302825804457        0.00854074098836
C           -3.99217680559474        2.05984976302558       -0.33596714461865
C           -1.77912950893983       -0.17196436440229       -3.47654188590446
S            0.88733158470274        4.35295384475309       -4.08887338181493
F           -0.30095821707469        5.34951780023249       -3.51311566411564
F            2.02121927084198        5.19522743275069       -3.23541434498878
F            1.13830731686154        5.41499734073251       -5.27329280180227
F           -0.21525676974595        3.64958905201398       -5.10806636465340
F            2.07690882743861        3.41059152599179       -4.75094646067614
S           -5.26287942475769       -2.53314589756293        1.85610991163501
F           -5.41707043014802       -1.53722549557359        3.17732502356835
F           -6.28177081586335       -1.52902527347167        1.03656466774441
F           -6.58182977583441       -3.29301307075338        2.38911430165033
F           -5.21479515018830       -3.57385844706935        0.57844670976562
F           -4.42908485272800       -3.64388117483840        2.76816053349581
S            3.69293237158382        0.60434510319171        4.99704996381185
F            4.60104817268564        1.82053103864442        4.34768652999432
F            4.65231520901933       -0.52107936454781        4.26129333540266
F            4.72042383574386        0.61319010293201        6.22999218571607
F            2.79376738270059        1.72719854845818        5.80298027931098
F            2.89818231099625       -0.60161441854079        5.81406220927192
H           -2.29697167124074       -1.12869444697103       -3.44706637404986