      -----------------------------------------------------------      
     |                   =====================                   |     
     |                           x T B                           |     
     |                   =====================                   |     
     |                         S. Grimme                         |     
     |          Mulliken Center for Theoretical Chemistry        |     
     |                    University of Bonn                     |     
      -----------------------------------------------------------      

   * xtb version 6.6.1 (8d0f1dd) compiled by 'conda@1efc2f54142f' on 2023-08-01

   xtb is free software: you can redistribute it and/or modify it under
   the terms of the GNU Lesser General Public License as published by
   the Free Software Foundation, either version 3 of the License, or
   (at your option) any later version.
   
   xtb is distributed in the hope that it will be useful,
   but WITHOUT ANY WARRANTY; without even the implied warranty of
   MERCHANTABILITY or FITNESS FOR A PARTICULAR PURPOSE.  See the
   GNU Lesser General Public License for more details.
   
   Cite this work as:
   * C. Bannwarth, E. Caldeweyher, S. Ehlert, A. Hansen, P. Pracht,
     J. Seibert, S. Spicher, S. Grimme, WIREs Comput. Mol. Sci., 2020, 11,
     e01493. DOI: 10.1002/wcms.1493
   
   for GFN2-xTB:
   * C. Bannwarth, S. Ehlert and S. Grimme., J. Chem. Theory Comput., 2019,
     15, 1652-1671. DOI: 10.1021/acs.jctc.8b01176
   for GFN1-xTB:
   * S. Grimme, C. Bannwarth, P. Shushkov, J. Chem. Theory Comput., 2017,
     13, 1989-2009. DOI: 10.1021/acs.jctc.7b00118
   for GFN0-xTB:
   * P. Pracht, E. Caldeweyher, S. Ehlert, S. Grimme, ChemRxiv, 2019, preprint.
     DOI: 10.26434/chemrxiv.8326202.v1
   for GFN-FF:
   * S. Spicher and S. Grimme, Angew. Chem. Int. Ed., 2020, 59, 15665-15673.
     DOI: 10.1002/anie.202004239
   
   for ALPB and GBSA implicit solvation:
   * S. Ehlert, M. Stahn, S. Spicher, S. Grimme, J. Chem. Theory Comput.,
     2021, 17, 4250-4261. DOI: 10.1021/acs.jctc.1c00471
   
   for DFT-D4:
   * E. Caldeweyher, C. Bannwarth and S. Grimme, J. Chem. Phys., 2017,
     147, 034112. DOI: 10.1063/1.4993215
   * E. Caldeweyher, S. Ehlert, A. Hansen, H. Neugebauer, S. Spicher,
     C. Bannwarth and S. Grimme, J. Chem. Phys., 2019, 150, 154122.
     DOI: 10.1063/1.5090222
   * E. Caldeweyher, J.-M. Mewes, S. Ehlert and S. Grimme, Phys. Chem. Chem. Phys.
     2020, 22, 8499-8512. DOI: 10.1039/D0CP00502A
   
   for sTDA-xTB:
   * S. Grimme and C. Bannwarth, J. Chem. Phys., 2016, 145, 054103.
     DOI: 10.1063/1.4959605
   
   in the mass-spec context:
   * V. Asgeirsson, C. Bauer and S. Grimme, Chem. Sci., 2017, 8, 4879.
     DOI: 10.1039/c7sc00601b
   * J. Koopman and S. Grimme, ACS Omega 2019, 4, 12, 15120-15133.
     DOI: 10.1021/acsomega.9b02011
   
   for metadynamics refer to:
   * S. Grimme, J. Chem. Theory Comput., 2019, 155, 2847-2862
     DOI: 10.1021/acs.jctc.9b00143
   
   for SPH calculations refer to:
   * S. Spicher and S. Grimme, J. Chem. Theory Comput., 2021, 17, 1701-1714
     DOI: 10.1021/acs.jctc.0c01306
   
   with help from (in alphabetical order)
   P. Atkinson, C. Bannwarth, F. Bohle, G. Brandenburg, E. Caldeweyher
   M. Checinski, S. Dohm, S. Ehlert, S. Ehrlich, I. Gerasimov, C. Hölzer
   A. Katbashev, J. Koopman, C. Lavigne, S. Lehtola, F. März, M. Müller,
   F. Musil, H. Neugebauer, J. Pisarek, C. Plett, P. Pracht, F. Pultar,
   J. Seibert, P. Shushkov, S. Spicher, M. Stahn, M. Steiner, T. Strunk,
   J. Stückrath, T. Rose, and J. Unsleber
   
 * started run on 2025/03/13 at 17:57:21.734     

           -------------------------------------------------
          |                Calculation Setup                |
           -------------------------------------------------

          program call               : xtb scoord.19 --md --gfnff --input md_settings.inp
          hostname                   : cx3-15-4.cx3.hpc.ic.ac.uk
          coordinate file            : scoord.19
          omp threads                :                     8

   ID    Z sym.   atoms
    1    6 C      1-9, 11, 12, 14-21, 24, 25, 34, 35, 38, 41-43, 59-67, 69,
                  70, 72-79, 82, 83, 92, 93, 96, 99-101
    2    7 N      10, 13, 68, 71
    3    8 O      22, 23, 32, 33, 36, 37, 39, 40, 80, 81, 90, 91, 94, 95, 97,
                  98
    4    1 H      26-31, 44-58, 84-89, 102-116

molecular fragmentation (1/2 indicates fragments):
111111111111111111111111111111111111111111111111111111111122222222222222
22222222222222222222222222222222222222222222
# atoms in fragment 1/2:    58    58
 fragment masses (1/2) :      501.47      501.47
CMA distance (Bohr)    :   6.577
constraining FC (au)   :  0.0500

          ==================== Thresholds ====================
          CN  :   150.00000
          rep :   500.00000
          disp:  2500.00000
          HB1 :   250.00000
          HB2 :   450.00000

          Pauling EN used:
          Z : 1  EN :  2.20
          Z : 6  EN :  2.55
          Z : 7  EN :  3.04
          Z : 8  EN :  3.44
          electric field strengths (au): 0.000

           ------------------------------------------------- 
          |           Force Field Initialization            |
           ------------------------------------------------- 

          distances ...
          ----------------------------------------
          generating topology and atomic info file ...
          pair mat ...
          computing topology distances matrix with Floyd-Warshall algo ...
          making topology EEQ charges ...
          #fragments for EEQ constrain: 2
          ----------------------------------------
          generating topology and atomic info file ...
          pair mat ...
          computing topology distances matrix with Floyd-Warshall algo ...
          making topology EEQ charges ...
          rings ...
          # BATM   1140
          # H in HB   42
          doing iterative Hueckel for 2 subsystem(s) ...

  atom   neighbors  erfCN metchar sp-hybrid imet pi  qest     coordinates
    1  C       3    2.82   0.00         2    0    1  -0.013   -6.257315    1.508942   -1.747574
    2  C       3    2.81   0.00         2    0    1   0.104   -4.618128   -0.231876   -0.522720
    3  C       3    2.83   0.00         2    0    1   0.014   -2.670884    0.747948    1.064582
    4  C       3    2.85   0.00         2    0    1   0.068   -1.686886    3.133194    0.517361
    5  C       3    2.83   0.00         2    0    1  -0.010   -3.262908    4.751364   -0.934439
    6  C       3    2.81   0.00         2    0    1   0.024   -5.583085    4.043148   -1.917968
    7  C       3    2.82   0.00         2    0    1   0.003   -1.400254   -0.820359    2.831283
    8  C       3    2.84   0.00         2    0    1   0.018    1.074736    0.071472    3.519579
    9  C       3    2.85   0.00         2    0    1   0.069    1.961203    2.445349    2.851360
   10  N       2    1.95   0.00         2    0    1  -0.182    0.590331    3.913007    1.231983
   11  C       3    2.82   0.00         2    0    1   0.014   -2.450894   -2.645542    4.565091
   12  C       3    2.86   0.00         2    0    1   0.068   -0.722698   -4.120752    5.919239
   13  N       2    1.95   0.00         2    0    1  -0.182    1.725481   -3.597413    6.242241
   14  C       3    2.86   0.00         2    0    1   0.069    2.602389   -1.414878    5.325457
   15  C       3    2.83   0.00         2    0    1  -0.009    4.764932   -0.335234    6.413339
   16  C       3    2.82   0.00         2    0    1   0.024    5.590737    1.940394    5.576693
   17  C       3    2.82   0.00         2    0    1  -0.009    4.238447    3.373129    3.845650
   18  C       3    2.79   0.00         2    0    1   0.104   -5.194119   -3.297533    4.505129
   19  C       3    2.82   0.00         2    0    1  -0.013   -5.847121   -5.510714    5.679971
   20  C       3    2.80   0.00         2    0    1   0.024   -4.096662   -7.139173    6.864466
   21  C       3    2.83   0.00         2    0    1  -0.010   -1.619664   -6.434429    6.964533
   22  O       2    1.91   0.00         3    0    1  -0.326   -7.029676   -1.794949    3.169574
   23  O       2    1.90   0.00         3    0    1  -0.326   -4.832079   -2.782465   -1.081710
   24  C       3    2.87   0.00         2    0    1   0.224   -7.262177    5.921597   -3.041305
   25  C       3    2.86   0.00         2    0    1   0.224   -5.079009   -9.521707    8.134981
   26  H       1    0.97   0.00         0    0    0   0.083   -2.639321    6.637691   -1.451429
   27  H       1    0.97   0.00         0    0    0   0.084   -8.081653    1.041349   -2.515350
   28  H       1    0.97   0.00         0    0    0   0.084    5.032900    5.176199    3.260957
   29  H       1    0.98   0.00         0    0    0   0.084    5.778318   -1.310894    7.871392
   30  H       1    0.97   0.00         0    0    0   0.083   -0.466970   -7.786316    7.992525
   31  H       1    0.98   0.00         0    0    0   0.084   -7.775807   -5.758236    5.730494
   32  O       1    0.98   0.00         2    0    1  -0.364   -7.971335    7.623792   -1.657543
   33  O       2    1.92   0.00         3    0    1  -0.315   -8.400033    5.492366   -5.326259
   34  C       4    3.54   0.00         3    0    0   0.037  -10.284202    7.243321   -5.716205
   35  C       3    2.85   0.00         2    0    1   0.223    8.004628    2.834669    6.787247
   36  O       1    0.98   0.00         2    0    1  -0.365    9.560646    1.248729    7.402326
   37  O       2    1.91   0.00         3    0    1  -0.315    8.447101    5.411895    7.041226
   38  C       4    3.52   0.00         3    0    0   0.039   10.950160    5.831401    7.858032
   39  O       1    0.98   0.00         2    0    1  -0.364   -7.223048   -9.965427    7.873279
   40  O       2    1.92   0.00         3    0    1  -0.315   -3.496432  -10.956017    9.574412
   41  C       4    3.53   0.00         3    0    0   0.037   -4.821062  -12.968292   10.637842
   42  C       4    3.48   0.00         3    0    0   0.033   -9.584637   -2.690954    3.001462
   43  C       4    3.47   0.00         3    0    0   0.033   -2.515035   -4.225852   -1.875827
   44  H       1    0.97   0.01         0    0    0   0.079   -4.809552  -14.672342    9.432304
   45  H       1    0.97   0.01         0    0    0   0.079   -6.750002  -12.177499   10.850735
   46  H       1    0.97   0.01         0    0    0   0.079   -3.952052  -13.266705   12.548202
   47  H       1    0.98   0.00         0    0    0   0.078   10.822612    6.553533    9.640173
   48  H       1    0.97   0.01         0    0    0   0.078   11.981999    7.152022    6.615363
   49  H       1    0.97   0.01         0    0    0   0.078   11.677243    3.836342    7.924422
   50  H       1    0.97   0.01         0    0    0   0.076   -1.735954   -4.868882   -0.025726
   51  H       1    0.97   0.01         0    0    0   0.076   -0.940512   -3.035868   -2.534018
   52  H       1    0.98   0.00         0    0    0   0.076   -2.884335   -5.566561   -3.313851
   53  H       1    0.97   0.00         0    0    0   0.076   -9.671408   -4.569562    2.220810
   54  H       1    0.97   0.00         0    0    0   0.076  -10.732318   -1.315621    1.971016
   55  H       1    0.97   0.01         0    0    0   0.076  -10.537091   -2.690656    4.874138
   56  H       1    0.98   0.00         0    0    0   0.079  -11.584970    7.106039   -4.219245
   57  H       1    0.96   0.01         0    0    0   0.079  -11.085428    6.537287   -7.609341
   58  H       1    0.97   0.00         0    0    0   0.079   -9.703357    9.217914   -5.637328
   59  C       3    2.84   0.00         2    0    1  -0.013   -2.611468    7.060330    5.503498
   60  C       3    2.83   0.00         2    0    1   0.104   -3.492620    4.912956    6.609422
   61  C       3    2.82   0.00         2    0    1   0.014   -2.002099    3.887745    8.710177
   62  C       3    2.83   0.00         2    0    1   0.068    0.375941    5.090484    9.189779
   63  C       3    2.83   0.00         2    0    1  -0.010    0.952902    7.457432    8.102556
   64  C       3    2.81   0.00         2    0    1   0.024   -0.491929    8.447044    6.142983
   65  C       3    2.82   0.00         2    0    1   0.003   -2.276912    1.406982    9.729284
   66  C       3    2.84   0.00         2    0    1   0.018   -0.118819    0.051855   10.600052
   67  C       3    2.82   0.00         2    0    1   0.069    2.252719    1.349672   10.939301
   68  N       2    1.94   0.00         2    0    1  -0.182    2.256875    3.899343   10.634332
   69  C       3    2.82   0.00         2    0    1   0.014   -4.561070    0.149827    9.925775
   70  C       3    2.85   0.00         2    0    1   0.068   -4.645922   -2.506950   10.586962
   71  N       2    1.96   0.00         2    0    1  -0.182   -2.446557   -3.747678   11.147812
   72  C       3    2.83   0.00         2    0    1   0.069   -0.273550   -2.496660   11.316146
   73  C       3    2.83   0.00         2    0    1  -0.009    1.836989   -3.759770   12.342892
   74  C       3    2.80   0.00         2    0    1   0.024    4.194865   -2.588433   12.636674
   75  C       3    2.84   0.00         2    0    1  -0.009    4.356989   -0.184160   11.837942
   76  C       3    2.83   0.00         2    0    1   0.104   -7.049028    1.348652    9.936374
   77  C       3    2.82   0.00         2    0    1  -0.013   -9.258987   -0.116872    9.849340
   78  C       3    2.83   0.00         2    0    1   0.024   -9.120158   -2.631046   10.334937
   79  C       3    2.84   0.00         2    0    1  -0.010   -6.938020   -3.758948   10.719763
   80  O       2    1.92   0.00         3    0    1  -0.326   -7.097219    3.925056   10.432573
   81  O       2    1.92   0.00         3    0    1  -0.326   -5.559431    3.614365    5.700524
   82  C       3    2.91   0.00         2    0    1   0.224    0.402011   10.395120    4.436418
   83  C       3    2.85   0.00         2    0    1   0.224  -11.464218   -4.112132   10.972536
   84  H       1    0.97   0.00         0    0    0   0.083    2.678813    8.279521    8.824530
   85  H       1    0.98   0.00         0    0    0   0.084   -3.455943    7.785341    3.911584
   86  H       1    0.98   0.00         0    0    0   0.084    6.177289    0.617103   11.937805
   87  H       1    0.97   0.01         0    0    0   0.084    1.646824   -5.829267   12.431193
   88  H       1    0.97   0.00         0    0    0   0.083   -6.948841   -5.782549   11.017474
   89  H       1    0.97   0.01         0    0    0   0.084  -10.910895    0.823829    8.900934
   90  O       1    0.99   0.00         2    0    1  -0.364    2.540923   11.009844    4.628723
   91  O       2    1.92   0.00         3    0    1  -0.315   -1.411980   11.488813    3.020693
   92  C       4    3.56   0.00         3    0    0   0.037   -0.405783   13.681918    1.998457
   93  C       3    2.91   0.00         2    0    1   0.223    6.675043   -3.797737   13.275454
   94  O       1    0.98   0.00         2    0    1  -0.365    6.880362   -5.942013   14.174295
   95  O       2    1.92   0.00         3    0    1  -0.315    8.627833   -2.323173   12.643912
   96  C       4    3.56   0.00         3    0    0   0.039   10.820182   -3.414591   13.648474
   97  O       1    0.98   0.00         2    0    1  -0.364  -13.318813   -3.698703    9.716861
   98  O       2    1.92   0.00         3    0    1  -0.315  -11.366975   -5.550949   13.129162
   99  C       4    3.52   0.00         3    0    0   0.037  -13.630457   -6.853695   13.513730
  100  C       4    3.49   0.00         3    0    0   0.033   -9.362833    5.025928   11.090211
  101  C       4    3.50   0.00         3    0    0   0.033   -6.959561    4.896832    3.882995
  102  H       1    0.96   0.01         0    0    0   0.079  -14.042926   -7.986130   11.728068
  103  H       1    0.97   0.01         0    0    0   0.079  -15.241557   -5.513575   13.790865
  104  H       1    0.98   0.00         0    0    0   0.079  -13.366311   -8.184164   14.951956
  105  H       1    0.97   0.00         0    0    0   0.078   12.421778   -2.444420   12.818792
  106  H       1    0.97   0.00         0    0    0   0.078   10.859571   -5.372154   13.003006
  107  H       1    0.98   0.00         0    0    0   0.078   10.760596   -3.265106   15.674528
  108  H       1    0.97   0.01         0    0    0   0.076   -7.756971    6.506105    4.922429
  109  H       1    0.97   0.01         0    0    0   0.076   -8.489496    3.541723    3.447486
  110  H       1    0.97   0.01         0    0    0   0.076   -6.026366    5.388642    2.017886
  111  H       1    0.97   0.01         0    0    0   0.076  -10.495810    5.228837    9.334316
  112  H       1    0.98   0.00         0    0    0   0.076   -9.045332    6.842521   11.829368
  113  H       1    0.96   0.01         0    0    0   0.076  -10.270389    3.727352   12.571701
  114  H       1    0.97   0.01         0    0    0   0.079    1.684972   13.962025    2.150057
  115  H       1    0.97   0.00         0    0    0   0.079   -1.188541   15.197096    3.114980
  116  H       1    0.97   0.01         0    0    0   0.079   -1.120278   14.091672    0.070280

          #atoms :   116
          #bonds :   124
          #angl  :   206
          #tors  :   302
          #nmol  :   2
          #optfrag :   2
           ------------------------------------------------- 
          |                   G F N - F F                   |
          |          A general generic force-field          |
          |                  Version 1.0.3                  | 
           ------------------------------------------------- 
          Number of HB bonds (bound hydrogen)     21147
          Number of HB bonds (unbound hydrogen)   544
          Number of XB bonds                      0

 E+G (total)                   0 d,  0 h,  0 min,  0.007 sec
 distance/D3 list               ...        0 min,  0.000 sec (  0.738%)
 non bonded repulsion           ...        0 min,  0.000 sec (  5.137%)
 dCN                            ...        0 min,  0.001 sec (  8.123%)
 EEQ energy and q               ...        0 min,  0.001 sec (  9.090%)
 D3                             ...        0 min,  0.001 sec ( 14.092%)
 EEQ gradient                   ...        0 min,  0.000 sec (  1.499%)
 bonds                          ...        0 min,  0.000 sec (  3.502%)
 bend and torsion               ...        0 min,  0.000 sec (  1.633%)
 bonded ATM                     ...        0 min,  0.000 sec (  3.471%)
 HB/XB (incl list setup)        ...        0 min,  0.003 sec ( 52.399%)

         :::::::::::::::::::::::::::::::::::::::::::::::::::::
         ::                     SUMMARY                     ::
         :::::::::::::::::::::::::::::::::::::::::::::::::::::
         :: total energy             -22.928061455056 Eh    ::
         :: gradient norm              0.329736929581 Eh/a0 ::
         ::.................................................::
         :: bond energy              -23.609151880979 Eh    ::
         :: angle energy               0.099180172486 Eh    ::
         :: torsion energy             0.076272996865 Eh    ::
         :: repulsion energy           1.653045762620 Eh    ::
         :: electrostat energy        -0.948161601361 Eh    ::
         :: dispersion energy         -0.162379140635 Eh    ::
         :: HB energy                 -0.006573648220 Eh    ::
         :: XB energy                  0.000000000000 Eh    ::
         :: bonded atm energy         -0.030294115832 Eh    ::
         :: external energy            0.000000000000 Eh    ::
         :: add. restraining           0.000000000000 Eh    ::
         :: total charge              -0.000000000000 e     ::
         :::::::::::::::::::::::::::::::::::::::::::::::::::::

           -------------------------------------------------
          |                Property Printout                |
           -------------------------------------------------

           -------------------------------------------------
          | TOTAL ENERGY              -22.928061455056 Eh   |
          | GRADIENT NORM               0.329736929581 Eh/α |
           -------------------------------------------------
           ------------------------------------------------- 
          |               Molecular Dynamics                |
           ------------------------------------------------- 
 trajectories on xtb.trj or xtb.trj.<n>

 MD time /ps        :   10.00
 dt /fs             :    2.00
 SCC accuracy       :    2.00
Note: The following floating-point exceptions are signalling: IEEE_UNDERFLOW_FLAG IEEE_DENORMAL
normal termination of xtb
 temperature /K     :  480.00
 max steps          :  5000
 block length (av.) :  2500
 dumpstep(trj) /fs  :  500.00   250
 dumpstep(coords)/fs: 1000.00   500
 H atoms mass (amu) :     4
 # deg. of freedom  :   348
 SHAKE off
 Berendsen THERMOSTAT on
         time (ps)    <Epot>      Ekin   <T>   T     Etot
      0    0.00      0.00000   0.5518    0.    0.   -22.37628
est. speed in wall clock h for 100 ps :  0.05
    200    0.40    -22.65037   0.2939  639.  533.   -22.46314
    400    0.80    -22.71523   0.3088  606.  560.   -22.48822
    600    1.20    -22.74093   0.2578  583.  468.   -22.53720
    800    1.60    -22.75439   0.2653  564.  481.   -22.51197
   1000    2.00    -22.76362   0.2666  551.  484.   -22.53367
   1200    2.40    -22.77073   0.2641  542.  479.   -22.51890
   1400    2.80    -22.77647   0.2999  535.  544.   -22.54332
   1600    3.20    -22.78168   0.2710  530.  492.   -22.54695
   1800    3.60    -22.78583   0.2583  525.  469.   -22.56250
   2000    4.00    -22.78980   0.2909  522.  528.   -22.55635
   2200    4.40    -22.79266   0.2614  518.  474.   -22.55272
   2400    4.80    -22.79507   0.2425  515.  440.   -22.56654
block <Epot> / <T> :     -22.80510  513.     drift:  0.99D+02   Tbath : 480.
   2600    5.20    -22.79656   0.2383  511.  432.   -22.55906
   2800    5.60    -22.79799   0.2825  509.  513.   -22.53736
   3000    6.00    -22.79963   0.2552  507.  463.   -22.57199
   3200    6.40    -22.80143   0.2761  506.  501.   -22.56470
   3400    6.80    -22.80274   0.2442  505.  443.   -22.57848
   3600    7.20    -22.80384   0.2651  503.  481.   -22.56705
   3800    7.60    -22.80482   0.2730  502.  495.   -22.55635
   4000    8.00    -22.80582   0.2731  501.  496.   -22.56391
   4200    8.40    -22.80671   0.2631  500.  477.   -22.55918
   4400    8.80    -22.80731   0.2406  499.  437.   -22.54894
   4600    9.20    -22.80770   0.2585  498.  469.   -22.54386
   4800    9.60    -22.80821   0.3107  497.  564.   -22.54323
 average properties 
 Epot               :  -22.808684243874232     
 Epot (accurate SCC):  -22.813479210543981     
 Ekin               :  0.27357235365417543     
 Etot               :  -22.535111890220058     
 T                  :   496.47929992055123     
 thermostating problem
 normal exit of md()
########################################################################
[WARNING] Runtime exception occurred
-1- gfnff_setup: Could not read topology file.
########################################################################

------------------------------------------------------------------------
 * finished run on 2025/03/13 at 17:57:42.016     
------------------------------------------------------------------------
 total:
 * wall-time:     0 d,  0 h,  0 min, 20.282 sec
 *  cpu-time:     0 d,  0 h,  2 min, 39.486 sec
 * ratio c/w:     7.863 speedup
 SCF:
 * wall-time:     0 d,  0 h,  0 min,  0.009 sec
 *  cpu-time:     0 d,  0 h,  0 min,  0.070 sec
 * ratio c/w:     7.730 speedup
 MD:
 * wall-time:     0 d,  0 h,  0 min, 19.929 sec
 *  cpu-time:     0 d,  0 h,  2 min, 38.464 sec
 * ratio c/w:     7.951 speedup

