116
 energy: -22.928061455056 gnorm: 0.329736929581 xtb: 6.6.1 (8d0f1dd)
C           -3.31122850772930        0.79849766164622       -0.92477639677520
C           -2.44380812530352       -0.12270372891954       -0.27661132624697
C           -1.41337090092821        0.39579727573559        0.56335275196199
C           -0.89266158675590        1.65801491088749        0.27377586709581
C           -1.72665675402493        2.51431363229076       -0.49448366572522
C           -2.95444148494349        2.13954154133227       -1.01494489940871
C           -0.74098268209890       -0.43411532818871        1.49825021926784
C            0.56872586496315        0.03782116815119        1.86248088067890
C            1.03782416582094        1.29402317993033        1.50887470833621
N            0.31238977034758        2.07067427098208        0.65193736800696
C           -1.29695700510141       -1.39996043042223        2.41574187746061
C           -0.38243517664656       -2.18060797534842        3.13232615520648
N            0.91308504082021       -1.90366887689689        3.30325166013478
C            1.37712470144904       -0.74872102533751        2.81811050966982
C            2.52149331701875       -0.17739833758153        3.39379298866852
C            2.95849061756259        1.02681208890480        2.95105897606587
C            2.24288949469137        1.78498308775960        2.03503020483770
C           -2.74860936222260       -1.74497937691422        2.38401158947411
C           -3.09416315450955       -2.91614440870436        3.00571134491758
C           -2.16786021984049       -3.77788778654213        3.63251872101904
C           -0.85708937311598       -3.40495313382985        3.68547234358092
O           -3.71994433332149       -0.94984598373544        1.67726658385724
O           -2.55702603277562       -1.47241711578389       -0.57241635275616
C           -3.84297843593025        3.13357444054366       -1.60938954875544
C           -2.68769581069131       -5.03867041417370        4.30484659386931
H           -1.39666850744143        3.51251503834900       -0.76806311868865
H           -4.27662633836220        0.55105838579656       -1.33106614114542
H            2.66329581305412        2.73912661909249        1.72562431984580
H            3.05775395548473       -0.69369546277216        4.16536137542516
H           -0.24710966264510       -4.12034095424229        4.22946223699121
H           -4.11477991332403       -3.04712728052358        3.03244694615357
O           -4.21824883374556        4.03433712717988       -0.87713382485991
O           -4.44510595673734        2.90643496899600       -2.81853501752979
C           -5.44216520282800        3.83300025693726       -3.02488532025093
C            4.23586651889298        1.50004220933226        3.59165660008449
O            5.05927614697201        0.66079890002952        3.91714215179376
O            4.47001334453535        2.86385149488593        3.72605651435371
C            5.79457498613219        3.08584475587818        4.15829123132174
O           -3.82227255313510       -5.27347675879771        4.16636005494405
O           -1.85023202017753       -5.79767454267276        5.06656077253571
C           -2.55119635829503       -6.86252441382958        5.62930343183426
C           -5.07197156564436       -1.42399175670916        1.58830531863830
C           -1.33089900128490       -2.23622472573986       -0.99264499351172
H           -2.54510546830388       -7.76426885143998        4.99136022291012
H           -3.57194749219491       -6.44405511486021        5.74196173723541
H           -2.09133598235598       -7.02043774843818        6.64022264233588
H            5.72707967266424        3.46798026205549        5.10135971236643
H            6.34060091246885        3.78468702308830        3.50069950143490
H            6.17933064298187        2.03010500085905        4.19342358084693
H           -0.91862729772622       -2.57650129080332       -0.01361370304871
H           -0.49769766914251       -1.60651221708571       -1.34094446550576
H           -1.52632419730509       -2.94569707152159       -1.75361447637286
H           -5.11788846557077       -2.41810833635233        1.17520213188926
H           -5.67929807973498       -0.69619639428435        1.04301666067831
H           -5.57598832326623       -1.42383358739762        2.57928294206544
H           -6.13050215934830        3.76035386975488       -2.23272855695873
H           -5.86615610071888        3.45938329385866       -4.02668959924245
H           -5.13479557532099        4.87790991548477       -2.98314551356402
C           -1.38192942069774        3.73616555005018        2.91232598411686
C           -1.84821468128685        2.59982427735607        3.49755545445181
C           -1.05946531454833        2.05730632010638        4.60922730982276
C            0.19893954712228        2.69376791964407        4.86302140881997
C            0.50425395911860        3.94630308659851        4.28768785650746
C           -0.26031777722226        4.46998310053134        3.25072669343212
C           -1.20488993561782        0.74454293276906        5.14851520323437
C           -0.06287609782692        0.02744069315890        5.60930570802864
C            1.19208754369866        0.71421540266195        5.78882868583885
N            1.19428660993148        2.06344359410476        5.62744624321596
C           -2.41361422770794        0.07928500213936        5.25249410304426
C           -2.45851584031083       -1.32662100968547        5.60237876023992
N           -1.29466212405906       -1.98318595734370        5.89916817085159
C           -0.14475655767527       -1.32117560077092        5.98824682881008
C            0.97209270935794       -1.98958449505532        6.53157704134458
C            2.21982707914082       -1.36973967291181        6.68703967237737
C            2.30561929262884       -0.09745313075593        6.26436900324455
C           -3.73018485967715        0.71367583494582        5.25810242262992
C           -4.89964478833448       -0.06184623426677        5.21204641615509
C           -4.82617965800088       -1.39228978090841        5.46901303780036
C           -3.67144193418464       -1.98914944386360        5.67265433266067
O           -3.75568638935321        2.07705011038914        5.52067969627343
O           -2.94192434743730        1.91263938797883        3.01658762327703
C            0.21273512614467        5.50086066357994        2.34765104514621
C           -6.06660304520411       -2.17604633098929        5.80641622556876
H            1.41756699010566        4.38133362238595        4.66974005703471
H           -1.82880610647429        4.11982501512100        2.06992133318584
H            3.26888037378556        0.32655662585251        6.31721410015598
H            0.87146188387207       -3.08471526305024        6.57830423410869
H           -3.67716811065157       -3.05999292755990        5.83019634570050
H           -5.77379677507622        0.43595144608221        4.71017130754348
O            1.34459852619901        5.82615848916894        2.44941456579099
O           -0.74718748219123        6.07961784856304        1.59848183464284
C           -0.21473095568964        7.24015934882472        1.05753806029483
C            3.53228080814219       -2.00967610361154        7.02506769044485
O            3.64093082622715       -3.14437803815732        7.50071391725347
O            4.56565258381079       -1.22937033368332        6.69086985080897
C            5.72579357310716       -1.80692399125161        7.22246151275881
O           -7.04801223588612       -1.95726935745904        5.14194115322235
O           -6.01514389321278       -2.93743591896022        6.94765316328794
C           -7.21292732384718       -3.62681918543340        7.15115816329978
C           -4.95459780685163        2.65960679932188        5.86868674392943
C           -3.68284113682406        2.59129188358641        2.05479246020704
H           -7.43119628931628       -4.22607794725959        6.20622607140901
H           -8.06548455146707       -2.91765848248592        7.29781126410398
H           -7.07314693247270       -4.33087306029711        7.91223421050944
H            6.57332189837178       -1.29353136199234        6.78341268688262
H            5.74663761932316       -2.84282155125561        6.88089468184451
H            5.69426191474290       -1.72781984964892        8.29460302186842
H           -4.10481209541493        3.44288266176275        2.60483747673152
H           -4.49244774344916        1.87419893016926        1.82433103764650
H           -3.18901540870812        2.85154642679373        1.06781919454921
H           -5.55414326821421        2.76698137191684        4.93950725322359
H           -4.78658370641210        3.62090640967288        6.25983200635257
H           -5.43485580473958        1.97242995129449        6.65265772412460
H            0.89164886030839        7.38838561720231        1.13776105146914
H           -0.62894889903848        8.04195665205089        1.64837664327952
H           -0.59282546386754        7.45699159724320        0.03719083132488
116
 energy: -22.791527346546 gnorm: 0.447368682820 xtb: 6.6.1 (8d0f1dd)
C           -2.61855933394047        0.88814387383264       -2.33703235396473
C           -1.93283351965666        0.10162876376354       -1.41362340059062
C           -1.18089562100072        0.76101832137042       -0.36948883240238
C           -0.69996655458752        2.09738705715729       -0.57839386483951
C           -1.31356868310757        2.85354498168154       -1.75630041954205
C           -2.21968429107985        2.23101059105632       -2.58130902509168
C           -0.90741587924707        0.33625667764695        1.00397852074152
C            0.29842494588512        0.78620970178771        1.54844129689605
C            0.88481249938468        1.95482204261754        1.04869676456514
N            0.25152266302890        2.74448417626484        0.18974382659430
C           -1.48232810821624       -0.76309950323554        1.77498533186985
C           -0.60086767039642       -1.27744886798320        2.79482288096778
N            0.67994466153282       -0.94618534010732        3.15294661950778
C            1.23931504221479        0.04504936132414        2.37506603861116
C            2.45555300700054        0.59602465841412        2.75629076126234
C            2.97471704368470        1.78012510611877        2.24871604449871
C            2.09046691756858        2.42196505517570        1.40901464910309
C           -2.72254197661807       -1.41909321414618        1.53209058631036
C           -3.08706025152266       -2.58059676925379        2.33635476541099
C           -2.24420891868559       -3.06752125781798        3.26925092340714
C           -1.04651735060165       -2.40362178629102        3.50170266681883
O           -3.61288609221988       -0.78777310731132        0.69592048428352
O           -1.68840377200310       -1.33981633844416       -1.55826601961968
C           -3.05402410309069        3.05005248797692       -3.49279233849758
C           -2.55527324479390       -4.31770704502341        4.01506045538072
H           -1.02755469577626        3.86245062462722       -1.89389649868531
H           -3.31264998417979        0.36823439603652       -3.01624700131182
H            2.56697773075247        3.24825641319464        0.83939204365787
H            3.05794061674444        0.10030735631877        3.51928432613322
H           -0.40011180975403       -2.93072575912372        4.12047894244143
H           -3.94684688668345       -3.14605156385130        2.02262674820168
O           -2.77942447037649        4.21546748088662       -3.65646174119873
O           -4.07165921566056        2.33018122968401       -4.11758022229997
C           -4.81338686295189        3.18116163899088       -4.85992890973861
C            4.30398101158488        2.41746314837383        2.64084854254096
O            4.95873036411644        2.16200819842736        3.65085145705911
O            4.83199964754097        3.10158626203526        1.54347299137214
C            6.12223110906206        3.58203882155196        1.78389650223100
O           -3.72264290519241       -4.69640155068245        4.11445354518638
O           -1.41959020555959       -5.01596719034117        4.39287947230757
C           -1.77293878386668       -6.00924842547771        5.27879876406417
C           -4.56632929703635       -1.71950019540659        0.30129767980373
C           -2.41592164069224       -2.14253675832842       -2.46003937656280
H           -0.97291692080468       -6.76663691084164        5.19360749694530
H           -2.75810080561247       -6.41553207099917        5.02080120420876
H           -1.71220896908626       -5.60870076727140        6.35049432981106
H            6.21334901374394        4.38057824451923        2.60990699817536
H            6.46840198876094        4.14447279692379        0.96463382735004
H            6.78144867661321        2.73673594014699        2.05986026190683
H           -1.82347217148671       -3.11780973578944       -2.43512332209615
H           -2.31426160020497       -1.80373931031177       -3.36567476448589
H           -3.60423966923148       -2.15755998296686       -2.16449720877684
H           -5.46601711189423       -1.25439875935140        0.02317728741635
H           -4.89972078002991       -2.20094527038554        1.21090481816800
H           -4.18108632306522       -2.39295209225699       -0.38132800236761
H           -4.56037937297738        4.22703741617763       -4.44745626015521
H           -5.75995169067434        2.93175393146799       -4.56721900223945
H           -4.57911162981289        3.08034185426819       -5.90560225499666
C           -1.73657916337417        3.08166576043203        3.79624014214011
C           -1.96381694972404        1.82927475259483        4.41402124459939
C           -0.96032738467918        1.31444802247419        5.29014817633123
C            0.36619639804271        1.82646811556781        5.11917428135748
C            0.59948017421164        2.88227808052143        4.26161543352393
C           -0.44963204623225        3.66058463291510        3.77038437768469
C           -1.19028982100562        0.37883721215995        6.29995124448260
C           -0.06733064269151       -0.46230316632604        6.61273452409959
C            1.21062738990105        0.11440048826640        6.42968248358144
N            1.44798085334940        1.28769591230038        5.82341821341074
C           -2.55517946492078       -0.03360076667996        6.70396025472974
C           -2.58325343008612       -1.40491234089951        7.05005344343177
N           -1.58167056345282       -2.20714257393738        7.26092283488023
C           -0.29783760594504       -1.80835160641250        7.06787934443258
C            0.82745830913694       -2.58296997761539        7.45471620628065
C            2.04993341768984       -1.93559865473291        7.54536849414819
C            2.24900632091670       -0.66724260560262        6.93832886680264
C           -3.61879350103148        0.90274612864598        6.88467897205720
C           -4.85815974635581        0.17093478616450        7.13543386941807
C           -5.01548731841228       -1.27553190302791        7.13988026159612
C           -3.88576729087788       -2.06000462582330        7.12284803284898
O           -3.39006948574191        2.25064877727236        6.96470930420314
O           -3.10774134774954        1.05433897884594        4.23210444537877
C           -0.18791625033858        5.03592389290966        3.24823143721262
C           -6.38010399196467       -1.88093176584791        7.36951255949202
H            1.53241159621618        3.27097399368067        4.22324626758544
H           -2.45860495655596        3.51696538073291        3.17177844364988
H            3.25798800824844       -0.30984469654955        6.81025464138618
H            0.66923486915469       -3.60292343371147        7.74562929548594
H           -3.95337773135512       -3.09887241047556        7.30554922568062
H           -5.76948142982341        0.75371980245209        7.21500263671535
O            0.87560625732682        5.68284127184584        3.54231594056591
O           -1.24866193107663        5.36935476969969        2.50716834054848
C           -1.23225824334963        6.79568621989172        2.21400946807243
C            3.21840992270202       -2.73750244671883        8.09087142464924
O            3.07635452613997       -3.89032591110284        8.39770558095795
O            4.48159349112169       -2.15617700581161        7.87844077268445
C            5.40707459590899       -3.08071310936867        8.09955611035567
O           -7.13868320965142       -1.17995372745619        8.03292403948857
O           -6.62733796058175       -3.21142248350350        6.91756129188725
C           -8.01328019572115       -3.40360203540094        7.19124571233716
C           -4.51579847065222        3.15781080236538        6.60835262790696
C           -3.83277231769945        1.07545829415749        2.97218963753333
H           -8.05645793373639       -4.29120895458400        7.81195505192856
H           -8.82541556124007       -3.32248058505563        6.39549037708057
H           -8.46982262075622       -2.60479911066818        7.80460002406606
H            5.66428070744054       -2.66777457158758        9.19522469512256
H            6.26732174429382       -2.69556603992223        7.41533313103291
H            5.17821127075178       -4.07777924875164        7.70087399552230
H           -4.71756271356127        1.72647533372105        3.07002615780785
H           -4.25771701317850        0.06183655745408        2.73698376240317
H           -3.38807073525436        1.45486085847177        2.13282672086187
H           -4.98578805601242        2.69875128207937        5.69477366259490
H           -3.95766316950262        3.98289724576533        6.20717191173762
H           -5.04787891885417        3.12976702457287        7.59960744956058
H           -0.90418254427573        7.30553636791328        3.07047991247966
H           -2.17694368114109        7.06489665381820        1.91689483960227
H           -0.61042138801326        6.85547717142772        1.39477971700014
116
 energy: -22.785044634765 gnorm: 0.432225092215 xtb: 6.6.1 (8d0f1dd)
C           -2.51068247403426        0.42536487192047       -2.60225112583461
C           -2.08575847908644        0.09480307540714       -1.34903291769793
C           -1.35243082024732        1.06820983522789       -0.56259324162336
C           -0.87706397693538        2.21314589353005       -1.19271471540205
C           -1.40384442816292        2.52247020298476       -2.42412299677850
C           -2.30771290855944        1.71487795208283       -3.08759946278020
C           -0.70014286837881        0.67894479649477        0.69474987523552
C            0.58047387885873        1.15161892266021        0.96233091235314
C            0.92189273016556        2.45105934809243        0.43252312119116
N            0.17373325116272        2.87280883760444       -0.65247700849603
C           -1.25356911112208       -0.27964701809405        1.56660747434608
C           -0.41428422178024       -0.80197226263996        2.56184141516842
N            0.81840187008564       -0.37249951086312        2.77507641756635
C            1.38613644511862        0.60723183107075        1.99977657311464
C            2.56248382779661        1.34349751435500        2.35116245324802
C            2.84200544253016        2.61954702281898        1.74160518869995
C            1.94246325310005        3.22683531976972        0.92639294194347
C           -2.63078813987132       -0.72702403941091        1.49937621961305
C           -3.11582530508722       -1.76585161059983        2.20565187457142
C           -2.22830073918148       -2.33632928728622        3.07796408708447
C           -0.90985725629310       -1.95568752343916        3.21443902394682
O           -3.57664788493559        0.07038890383270        0.85291255481528
O           -2.17695596655238       -1.23735421282909       -1.00802714853887
C           -2.82242635071791        2.09072506355658       -4.38450279502467
C           -2.42596708972069       -3.51779224051830        3.94249404070667
H           -1.20142080394915        3.49015622901049       -2.74103965464625
H           -3.21112337670136       -0.28928258440557       -3.06999916288927
H            2.14264582333935        4.23231186828498        0.59261731840432
H            3.10207706215500        1.08362199400361        3.22944803016662
H           -0.22472441958594       -2.34498270341421        3.85915184284965
H           -4.11700558153262       -2.21894688669158        2.03966858305841
O           -2.71956280172968        3.23530579573517       -4.84169624884215
O           -3.26629375513011        1.14067438611219       -5.18366435736554
C           -3.61207565245312        1.77954273170516       -6.46144778014552
C            3.89009219096109        3.54764563739737        2.26263104496316
O            4.65538262597372        3.15672774310370        3.09084300829457
O            3.82801649887174        4.70461128633257        1.55071469831652
C            4.59431351703037        5.58977930506590        2.33044299482632
O           -3.48266827477334       -4.21843831564862        3.82737133096579
O           -1.31892132590219       -3.85178886248547        4.66686992081954
C           -1.73724134887068       -5.01572825408483        5.31031333805393
C           -4.99991814901699       -0.31407978253317        0.64047255816710
C           -2.03642547137008       -2.25074982660465       -2.12413857184080
H           -2.30683953663704       -4.83994250284707        6.25949156162352
H           -0.92626977497919       -5.70392379075141        5.39361335303779
H           -2.49754102252315       -5.55605711498803        4.76221502546087
H            4.87304891487923        5.16490482152813        3.27176309616329
H            3.74480877063318        6.42487608985527        2.48374223828669
H            5.44456362764055        5.87831846439989        1.64966049777478
H           -1.35782621923725       -3.11550643107828       -1.90750766307345
H           -1.79539470708721       -1.72400843385501       -2.98333038488396
H           -3.14311634591122       -2.78090484532799       -2.27337816153582
H           -5.71411528795341        0.44849152673631        0.88454705512752
H           -5.02952097302070       -1.14168480372511        1.28791660144731
H           -4.95559077328482       -0.60730790432320       -0.31854040303443
H           -4.11531922756208        0.97074013380869       -6.99422847459636
H           -2.79425397462241        2.26940237095236       -7.02621811591953
H           -4.43313638980357        2.58174850396121       -6.09333798028492
C           -1.61543226421592        2.87870952723049        3.76084413747745
C           -2.06263790604941        1.81044964227717        4.51526084505656
C           -1.10035356436800        1.05989974039612        5.36217901721420
C            0.31283689136402        1.14012695990589        5.09429212719627
C            0.74349948146681        2.32566707199098        4.38992197405654
C           -0.20334792799779        3.17132186437244        3.78945943844254
C           -1.45192446022576       -0.11942855038219        6.15912902829722
C           -0.38223596134022       -0.97556810892433        6.59379607854331
C            0.94321349410737       -0.67389698451555        6.34258507067174
N            1.21742585718544        0.35006758315168        5.56917556930330
C           -2.68006062682170       -0.52654318216536        6.74262871593207
C           -2.82131360179923       -1.82159121738610        7.25331932062609
N           -1.85863476305386       -2.64900558144344        7.57078784789876
C           -0.58992564663827       -2.20406553901105        7.25915635331772
C            0.45736564339021       -3.05306308457465        7.64681850366146
C            1.77810960502963       -2.66408999783046        7.45044067869572
C            1.96986066619200       -1.40163546355106        6.97819337748586
C           -3.66771783664778        0.37578857824546        7.03058679537061
C           -4.87393816107025       -0.05980032068443        7.57911944170587
C           -4.99100380859342       -1.40920786591606        7.84341096614062
C           -3.98535418257053       -2.31869726343408        7.82480609173014
O           -3.44918057234597        1.75088832494140        6.97509029752506
O           -3.34126605438674        1.42285498934403        4.49641740963447
C            0.43803746261937        4.44997075736883        3.31684298388926
C           -6.31200350397707       -2.02721040606324        8.14573904903653
H            1.64374014986911        2.77931422087736        4.53798103852007
H           -2.26635902822492        3.56559596837941        3.33201436080368
H            2.96888815136401       -1.02791037460131        7.05581725466097
H            0.24489938185892       -3.98446199592462        8.17985800033185
H           -4.00161119397471       -3.37562442020711        8.01496408591286
H           -5.77977957270477        0.48122010005420        7.41178858481593
O            1.60617398676874        4.59793366990291        3.29342139088287
O           -0.39866417593818        5.46140064884962        2.76517784447693
C            0.40871437052150        6.53097386309332        2.27325496600649
C            2.83949774941328       -3.60808416104352        7.83657980829797
O            2.37061222870065       -4.72014894058693        7.91770372682733
O            4.10677018892666       -3.12266588081301        8.02798725146464
C            5.02735644497924       -4.17101487851598        8.19083401747653
O           -7.23087479511127       -1.20258081943368        8.25054505834247
O           -6.39253349443761       -3.40955565450880        8.14708145029328
C           -7.67049544254689       -3.73442733436541        8.52110258309319
C           -4.05611223212911        2.43676733340129        8.12960598277135
C           -4.25807649485798        2.14740066189792        3.75498539417834
H           -8.25542062753659       -3.65878494256269        7.63663982745427
H           -7.92405745255986       -3.17432346928388        9.50005369209432
H           -7.63555690422413       -4.82494936373925        8.71584078356637
H            5.11800497157619       -4.32752209199094        7.17226128631992
H            4.62407275533051       -5.00550175799051        8.68636816223468
H            6.03908107255542       -3.84320677912183        8.50700926563016
H           -3.92992114992614        3.17625695266629        3.69926255608530
H           -5.20236166787669        2.01733665207707        4.29711092510014
H           -4.49309391995081        1.81372345360443        2.75316657639299
H           -5.02073240759450        2.76930079549888        7.91024696632905
H           -3.41226545082908        3.29910782802235        8.33802607072227
H           -4.30571767231074        1.73365331899512        9.02079463184292
H            1.00295152403610        7.04266690122530        3.10707727637929
H           -0.15210394723415        7.15846412130491        1.45937011821844
H            1.07347290181100        6.08756564319764        1.50606522357057
116
 energy: -22.791913115766 gnorm: 0.394758394054 xtb: 6.6.1 (8d0f1dd)
C           -2.25315278440845        0.00002469682906       -2.96241035141000
C           -1.64602605944277       -0.25104100189378       -1.71509477864423
C           -1.07729732953106        0.86747399130137       -1.01141861859385
C           -0.71905714594243        2.11776610586606       -1.73482420640780
C           -1.18008775349650        2.22930402037664       -3.09410308543681
C           -1.95688061204397        1.13598291343660       -3.61900282214371
C           -0.55598130142272        0.71757603074641        0.30216025791919
C            0.42670787361726        1.59504759061072        0.70683507073648
C            0.77040775359032        2.71196843749710       -0.07133106031563
N            0.16850237518546        3.05772436285360       -1.20887686054862
C           -1.21261172060192       -0.03977636395114        1.29854649129137
C           -0.45192860690127       -0.34070727273613        2.41823250928653
N            0.83803059658196        0.11164976923100        2.57418972366343
C            1.14897489146364        1.25259188647557        1.89710908159411
C            2.16058724519398        2.06765047281247        2.36239575921675
C            2.54774371016330        3.24485245806897        1.63437877216068
C            1.80617469237902        3.50599048485009        0.49932829274032
C           -2.59636987602895       -0.43313846329070        1.26482390748800
C           -2.96988555368234       -1.47014695606351        2.18465241027678
C           -2.17866035444308       -2.00524329538663        3.25667336142610
C           -0.96789723450135       -1.23628930045810        3.40361360696055
O           -3.43550422730593       -0.07630351205094        0.14537206112785
O           -1.50305142101136       -1.57189796362765       -1.31795062026720
C           -2.37620312105168        1.45378429014222       -5.04409438340974
C           -2.33823784645439       -3.37474303270063        3.96360049008089
H           -0.69145057369922        2.95330995776666       -3.77173357960949
H           -2.98553462005304       -0.72335440744338       -3.38693628939466
H            2.17310349198274        4.31763131840057       -0.07002235504497
H            2.70243730922411        1.77627135445080        3.20190846344703
H           -0.64049836124699       -1.07130430463862        4.36532322889838
H           -3.78126546984077       -2.05246636111977        1.78701824234134
O           -1.76655824339004        2.34241117305435       -5.62144278010170