116
 energy: -22.928061455056 gnorm: 0.329736929581 xtb: 6.6.1 (8d0f1dd)
C           -3.31122850772930        0.79849766164622       -0.92477639677520
C           -2.44380812530352       -0.12270372891954       -0.27661132624697
C           -1.41337090092821        0.39579727573559        0.56335275196199
C           -0.89266158675590        1.65801491088749        0.27377586709581
C           -1.72665675402493        2.51431363229076       -0.49448366572522
C           -2.95444148494349        2.13954154133227       -1.01494489940871
C           -0.74098268209890       -0.43411532818871        1.49825021926784
C            0.56872586496315        0.03782116815119        1.86248088067890
C            1.03782416582094        1.29402317993033        1.50887470833621
N            0.31238977034758        2.07067427098208        0.65193736800696
C           -1.29695700510141       -1.39996043042223        2.41574187746061
C           -0.38243517664656       -2.18060797534842        3.13232615520648
N            0.91308504082021       -1.90366887689689        3.30325166013478
C            1.37712470144904       -0.74872102533751        2.81811050966982
C            2.52149331701875       -0.17739833758153        3.39379298866852
C            2.95849061756259        1.02681208890480        2.95105897606587
C            2.24288949469137        1.78498308775960        2.03503020483770
C           -2.74860936222260       -1.74497937691422        2.38401158947411
C           -3.09416315450955       -2.91614440870436        3.00571134491758
C           -2.16786021984049       -3.77788778654213        3.63251872101904
C           -0.85708937311598       -3.40495313382985        3.68547234358092
O           -3.71994433332149       -0.94984598373544        1.67726658385724
O           -2.55702603277562       -1.47241711578389       -0.57241635275616
C           -3.84297843593025        3.13357444054366       -1.60938954875544
C           -2.68769581069131       -5.03867041417370        4.30484659386931
H           -1.39666850744143        3.51251503834900       -0.76806311868865
H           -4.27662633836220        0.55105838579656       -1.33106614114542
H            2.66329581305412        2.73912661909249        1.72562431984580
H            3.05775395548473       -0.69369546277216        4.16536137542516
H           -0.24710966264510       -4.12034095424229        4.22946223699121
H           -4.11477991332403       -3.04712728052358        3.03244694615357
O           -4.21824883374556        4.03433712717988       -0.87713382485991
O           -4.44510595673734        2.90643496899600       -2.81853501752979
C           -5.44216520282800        3.83300025693726       -3.02488532025093
C            4.23586651889298        1.50004220933226        3.59165660008449
O            5.05927614697201        0.66079890002952        3.91714215179376
O            4.47001334453535        2.86385149488593        3.72605651435371
C            5.79457498613219        3.08584475587818        4.15829123132174
O           -3.82227255313510       -5.27347675879771        4.16636005494405
O           -1.85023202017753       -5.79767454267276        5.06656077253571
C           -2.55119635829503       -6.86252441382958        5.62930343183426
C           -5.07197156564436       -1.42399175670916        1.58830531863830
C           -1.33089900128490       -2.23622472573986       -0.99264499351172
H           -2.54510546830388       -7.76426885143998        4.99136022291012
H           -3.57194749219491       -6.44405511486021        5.74196173723541
H           -2.09133598235598       -7.02043774843818        6.64022264233588
H            5.72707967266424        3.46798026205549        5.10135971236643
H            6.34060091246885        3.78468702308830        3.50069950143490
H            6.17933064298187        2.03010500085905        4.19342358084693
H           -0.91862729772622       -2.57650129080332       -0.01361370304871
H           -0.49769766914251       -1.60651221708571       -1.34094446550576
H           -1.52632419730509       -2.94569707152159       -1.75361447637286
H           -5.11788846557077       -2.41810833635233        1.17520213188926
H           -5.67929807973498       -0.69619639428435        1.04301666067831
H           -5.57598832326623       -1.42383358739762        2.57928294206544
H           -6.13050215934830        3.76035386975488       -2.23272855695873
H           -5.86615610071888        3.45938329385866       -4.02668959924245
H           -5.13479557532099        4.87790991548477       -2.98314551356402
C           -1.38192942069774        3.73616555005018        2.91232598411686
C           -1.84821468128685        2.59982427735607        3.49755545445181
C           -1.05946531454833        2.05730632010638        4.60922730982276
C            0.19893954712228        2.69376791964407        4.86302140881997
C            0.50425395911860        3.94630308659851        4.28768785650746
C           -0.26031777722226        4.46998310053134        3.25072669343212
C           -1.20488993561782        0.74454293276906        5.14851520323437
C           -0.06287609782692        0.02744069315890        5.60930570802864
C            1.19208754369866        0.71421540266195        5.78882868583885
N            1.19428660993148        2.06344359410476        5.62744624321596
C           -2.41361422770794        0.07928500213936        5.25249410304426
C           -2.45851584031083       -1.32662100968547        5.60237876023992
N           -1.29466212405906       -1.98318595734370        5.89916817085159
C           -0.14475655767527       -1.32117560077092        5.98824682881008
C            0.97209270935794       -1.98958449505532        6.53157704134458
C            2.21982707914082       -1.36973967291181        6.68703967237737
C            2.30561929262884       -0.09745313075593        6.26436900324455
C           -3.73018485967715        0.71367583494582        5.25810242262992
C           -4.89964478833448       -0.06184623426677        5.21204641615509
C           -4.82617965800088       -1.39228978090841        5.46901303780036
C           -3.67144193418464       -1.98914944386360        5.67265433266067
O           -3.75568638935321        2.07705011038914        5.52067969627343
O           -2.94192434743730        1.91263938797883        3.01658762327703
C            0.21273512614467        5.50086066357994        2.34765104514621
C           -6.06660304520411       -2.17604633098929        5.80641622556876
H            1.41756699010566        4.38133362238595        4.66974005703471
H           -1.82880610647429        4.11982501512100        2.06992133318584
H            3.26888037378556        0.32655662585251        6.31721410015598
H            0.87146188387207       -3.08471526305024        6.57830423410869
H           -3.67716811065157       -3.05999292755990        5.83019634570050
H           -5.77379677507622        0.43595144608221        4.71017130754348
O            1.34459852619901        5.82615848916894        2.44941456579099
O           -0.74718748219123        6.07961784856304        1.59848183464284
C           -0.21473095568964        7.24015934882472        1.05753806029483
C            3.53228080814219       -2.00967610361154        7.02506769044485
O            3.64093082622715       -3.14437803815732        7.50071391725347
O            4.56565258381079       -1.22937033368332        6.69086985080897
C            5.72579357310716       -1.80692399125161        7.22246151275881
O           -7.04801223588612       -1.95726935745904        5.14194115322235
O           -6.01514389321278       -2.93743591896022        6.94765316328794
C           -7.21292732384718       -3.62681918543340        7.15115816329978
C           -4.95459780685163        2.65960679932188        5.86868674392943
C           -3.68284113682406        2.59129188358641        2.05479246020704
H           -7.43119628931628       -4.22607794725959        6.20622607140901
H           -8.06548455146707       -2.91765848248592        7.29781126410398
H           -7.07314693247270       -4.33087306029711        7.91223421050944
H            6.57332189837178       -1.29353136199234        6.78341268688262
H            5.74663761932316       -2.84282155125561        6.88089468184451
H            5.69426191474290       -1.72781984964892        8.29460302186842
H           -4.10481209541493        3.44288266176275        2.60483747673152
H           -4.49244774344916        1.87419893016926        1.82433103764650
H           -3.18901540870812        2.85154642679373        1.06781919454921
H           -5.55414326821421        2.76698137191684        4.93950725322359
H           -4.78658370641210        3.62090640967288        6.25983200635257
H           -5.43485580473958        1.97242995129449        6.65265772412460
H            0.89164886030839        7.38838561720231        1.13776105146914
H           -0.62894889903848        8.04195665205089        1.64837664327952
H           -0.59282546386754        7.45699159724320        0.03719083132488
116
 energy: -22.761640656583 gnorm: 0.480123716799 xtb: 6.6.1 (8d0f1dd)
C           -2.91017916332708        0.39103905848754       -1.75270261090937
C           -2.37784907901836       -0.35956406470448       -0.63890927313108
C           -1.54596196319252        0.24925175963592        0.34843066775652
C           -1.28886377423908        1.61249548199699        0.12414474755011
C           -1.66528971190251        2.31177522005890       -1.11912438901576
C           -2.52144714121856        1.71724583426343       -2.04944638282074
C           -0.84711539810465       -0.48646109797030        1.43373906710576
C            0.43844706549415        0.04014132238769        1.61424739381174
C            0.62030351792366        1.46517120487496        1.42713454816095
N           -0.29013482740007        2.25087345343685        0.86310934890839
C           -1.29273007457499       -1.67214014224908        2.06058307458712
C           -0.25958920928889       -2.50695096492514        2.67048611502266
N            1.06704530268244       -2.09500853282735        2.65201004451284
C            1.30051807404950       -0.78735007807004        2.39436371563072
C            2.46044996378942       -0.15456263721083        2.82629939537663
C            2.72589555659302        1.17983921608519        2.59596275484692
C            1.83731503118876        2.02475408523991        1.89345300778978
C           -2.63269897035426       -2.10623294900093        2.18391856151615
C           -2.90918716878897       -3.42183097496339        2.67407762076984
C           -1.93727372169984       -4.27523929034829        3.07709345652791
C           -0.57419080982284       -3.77628116322845        3.22208579399113
O           -3.61162909608885       -1.26354890912832        1.86923665580827
O           -2.68684454186603       -1.72066402560820       -0.43689671066026
C           -3.27001671077698        2.40546965012904       -3.09920360909449
C           -2.32524038971441       -5.67272441859025        3.34690641942005
H           -1.34328414148213        3.30211155540809       -1.39786545966094
H           -3.45081130409360       -0.25505525347387       -2.48419124433030
H            2.13850556044188        2.97432346263042        1.36787477267811
H            3.17483576047983       -0.63817197289948        3.51452532752662
H            0.24294710365875       -4.44504123996922        3.33854241621626
H           -3.95325559732789       -3.80741151101072        2.52146323376307
O           -2.75135346284118        2.67788006891953       -4.10660632067713
O           -4.49203413784469        2.90158308139660       -2.80640170102068
C           -5.29621874158178        3.37799638309080       -3.95358627699265
C            3.86312939821726        1.69625244989818        3.18765377510062
O            4.62120767445416        0.95475556803431        3.86135320179555
O            4.11144684744894        3.04685624283631        3.02869181695658
C            4.85624297763431        3.39584398076071        4.11673526561988
O           -3.27867296545487       -6.23852155436239        2.71566607433825
O           -1.41249872567593       -6.21316809408674        4.18380460858965
C           -1.59437998984927       -7.56577293452105        4.40128149137953
C           -4.93804256365327       -1.60001938514214        2.18823324378770
C           -2.03608524382239       -2.81063172100140       -1.04928510608660
H           -2.63772058330827       -7.83226138879319        4.16873602174204
H           -1.33327011982761       -7.93166858661804        5.45488036705764
H           -0.98806770842193       -8.16773742254865        3.77301291301530
H            5.71162174910627        2.66153877437307        4.11840445587325
H            4.31489530163108        3.47443811781498        5.05797719396117
H            5.13636003538896        4.47524615490827        3.83788769256499
H           -0.95745815058822       -2.69557116196986       -0.70730756713113
H           -2.00716684804865       -2.67478401579051       -2.22355253107790
H           -2.51037325638671       -3.76830670084681       -0.79020249434953
H           -5.53674349453356       -2.19095974986301        1.36909505991225
H           -5.64732783205498       -0.72350890192644        2.26013849343879
H           -5.08952425926846       -1.95434871185773        3.28184511679796
H           -6.06432933022486        2.61530667529435       -4.15223113954292
H           -4.64600903534945        2.95661001771006       -4.73164516040781
H           -5.58436119796058        4.33300424397207       -4.20195844299750
C           -1.74486976192630        4.01147668007741        3.87251602039149
C           -1.97590181384518        2.72740571026723        4.43885373421427
C           -0.91627418202676        2.17574535174920        5.17724807497652
C            0.43428441332987        2.67875362267334        5.11297921862679
C            0.61860407785569        3.87170589412662        4.53148080827846
C           -0.45096401019412        4.65392968651924        3.90764806330801
C           -1.00771134587966        0.94454840801604        5.93498109223603
C            0.07968742536153        0.06774806130010        6.02897654655887
C            1.31803669655153        0.61760350955758        5.84572502504728
N            1.49996866256368        1.99580055038052        5.68848740982660
C           -2.29192632817361        0.28069788831862        6.27766604805010
C           -2.34954202603134       -1.05440436345470        5.89009911771045
N           -1.27107719406762       -1.95645800487165        6.05523127812339
C           -0.02441131897794       -1.35812809672057        6.24406514902192
C            1.16780657628406       -2.08071601680685        6.54109394538844
C            2.41949837873195       -1.46286753134530        6.52942965652426
C            2.51515403304274       -0.10089158393021        6.23880867182266
C           -3.44617693353928        1.05602716421191        6.58624037697295
C           -4.67052295489899        0.48365127119267        6.25078841581474
C           -4.74225270351207       -0.77878144545371        5.65044903365991
C           -3.68949065601683       -1.62544607951308        5.86750772419969
O           -3.17740495451543        2.29289187397640        7.14233547155617
O           -3.10098910476217        1.94956038728678        4.14103327194985
C           -0.28210397489196        5.96068899452385        3.28421905859183
C           -6.10796584065328       -1.38004667588897        5.68767775297134
H            1.59939551125365        4.29579866384382        4.51225413855891
H           -2.41298310661557        4.58372676509416        3.33481198851516
H            3.47393119291594        0.18515922979706        5.86053893163585
H            1.31009781866593       -3.11551552723052        6.59989217135216
H           -3.68858662943981       -2.68294257165319        5.73676802482554
H           -5.60872042780242        1.07665134303791        6.30753997618871
O            0.86865419458307        6.33196190258333        3.27017333253688
O           -1.39906422466795        6.54654014392634        2.59010731187473
C           -0.90393391256841        7.74178756081517        1.91400258176501
C            3.67715642726358       -2.18014903423274        7.02820544647757
O            3.72542093588678       -3.42815939785836        7.24995869707126
O            4.75614376199942       -1.30778718822483        7.41919884248010
C            5.68354586542588       -2.17758140493372        7.88560027658415
O           -6.27612185167901       -2.49150261920176        5.11251988885061
O           -7.07513351750038       -0.67304164905649        6.32717968801455
C           -8.15911832969671       -1.49726025098394        6.75674924883323
C           -4.42265853387648        3.09092413965670        7.34420320297740
C           -3.95623533471475        2.45042883316916        3.11461181285093
H           -9.13737312579139       -1.07999054393470        6.86935264347554
H           -7.85288411255566       -2.02100019831178        7.78914583983253
H           -8.34068732387293       -2.34134791237239        6.10486979907875
H            6.49551388155321       -1.53599648924655        8.21079815487595
H            6.12483423746188       -2.76308374382277        7.04158761605720
H            5.42931549703756       -2.88768570692184        8.74771642507809
H           -3.69561225404542        3.17798531774109        2.27625501283657
H           -4.90516426842290        2.86490303238090        3.44813007188809
H           -4.16145791799732        1.47144416520187        2.64674852297049
H           -4.93162341293701        3.36151473429931        6.43871271042656
H           -4.06063041713199        4.06974470092043        7.80071575946229
H           -5.07583215829099        2.35463688633621        7.94154147769371
H            0.06508979063201        7.50557757537709        1.20671107790805
H           -0.67251949456368        8.35763364923745        2.69324970823641
H           -1.61768401059490        8.08577385429457        1.20853095742288
116
 energy: -22.765683054220 gnorm: 0.440643110675 xtb: 6.6.1 (8d0f1dd)
C           -3.49342334119494        0.10186047626682       -1.34807751281546
C           -2.78344264206976       -0.47844501165322       -0.34168824047382
C           -1.69192588785298        0.24504228175890        0.30990261282808
C           -1.25979347583442        1.43637030556246       -0.31561979894794
C           -2.12309389090303        2.06661006485933       -1.28551813346166
C           -3.20601194646496        1.38572210954603       -1.87684483027304
C           -0.85243090050820       -0.46490572759062        1.23509270872236
C            0.39584115957077        0.11389903488497        1.45608848658444
C            0.58815269424380        1.44440400136168        1.08763939476483
N           -0.15462017699712        2.06296188305185        0.15937159395260
C           -1.14704606910883       -1.57123016119540        2.04235791953065
C           -0.03056722929123       -2.39071056633492        2.53055481240356
N            1.24141338599301       -1.83565827478369        2.58226157314550
C            1.36504386722608       -0.48776951981948        2.41346782264839
C            2.52583336698750        0.26457537082072        2.82665845262475
C            2.65950989822746        1.57649238353186        2.34466500333919
C            1.69848460553638        2.07421078963442        1.50571173791724
C           -2.44307008310470       -2.00817940796050        2.50688359483999
C           -2.59051526175477       -3.31382161597781        3.01212679974838
C           -1.51068853829976       -4.22247852945117        3.13107531022277
C           -0.29104318571634       -3.77653229515955        2.89151790108728
O           -3.51626340212206       -1.11193613581311        2.34053474119353
O           -2.99880784682227       -1.84401056668604       -0.12151200472116
C           -3.97957830979024        2.03172106834683       -2.95848204729135
C           -1.79969289384621       -5.59145955483899        3.64607879182432
H           -1.76010144128311        3.02582978806929       -1.39173934437827
H           -4.31635620638846       -0.51901063464746       -1.80854155079951
H            1.86156303132052        3.11687816947130        1.31201667521064
H            3.27936116757098       -0.18108376376923        3.51808377864388
H            0.57084372151525       -4.23911388946139        3.09624273227435
H           -3.53675743523902       -3.60016618178518        3.54823057885770
O           -4.01888331199858        3.25017687308979       -3.12150883479899
O           -4.65072975448495        1.11007603227089       -3.78635080009006
C           -5.54826427187780        1.98174383228497       -4.43710115230129
C            3.94691434009585        2.38033174824455        2.58547222386225
O            4.48963833481395        2.25620309697390        3.63059665970518
O            4.34498283498795        3.22453281174155        1.58617623854210
C            5.53112537926171        3.84067616309627        1.90373751757724
O           -2.11766077984823       -5.69659395919999        4.78699276578942
O           -1.78218024497160       -6.61434029551090        2.64092727522545
C           -1.52196670425862       -7.93009408303821        3.25408303197197
C           -4.81671444152566       -1.52520974637647        2.31397596200181
C           -2.66811387811033       -2.63410255034947       -1.35031159841239
H           -0.77564619545071       -7.88153348381634        4.05709763092465
H           -1.14942897540233       -8.56655574101406        2.39446893139421
H           -2.59298889968707       -8.18246619354837        3.49973611494595
H            6.10279697858581        3.15740345729645        2.50167336733942
H            4.96696553689816        4.52028745174675        2.63250349468804
H            6.04680610992145        4.40684906466805        1.12841028150123
H           -1.53719115274522       -2.67606873176788       -1.67254357910999
H           -3.14500556154745       -2.17227983917072       -2.28344475500477
H           -3.05360018370283       -3.60398161810776       -0.98794819588780
H           -4.70465144298124       -2.16077331467102        1.36489750386955
H           -5.33245329651209       -0.56090220693489        2.06191131724899
H           -5.11088854614739       -2.08217567950002        3.28548193851420
H           -5.22211972837010        3.00148312894197       -4.73086583507975
H           -6.31137003317783        2.15728175455398       -3.64912729214969
H           -5.91090016836534        1.38290054124375       -5.38248888748086
C           -1.24569262441309        4.58209307228625        4.49192226792060
C           -1.58405770978330        3.27899583640744        4.77412876726831
C           -0.73751698092826        2.24173289531508        5.54457701760953
C            0.58869849931368        2.72322629938462        5.69520956280602
C            0.96610168049481        4.08580042370754        5.44749444221886
C            0.00374589044665        4.93976360643567        4.95696314490128
C           -1.11803224426795        1.04030426771020        6.10929777534801
C           -0.06947604528567        0.27639152533117        6.67145514967651
C            1.24144953456925        0.76846363073926        6.69193624300561
N            1.54255537769532        2.00615138443740        6.24758907175254
C           -2.56462706834432        0.53757943552013        6.22484674017022
C           -2.56317634708907       -0.90292897113720        6.36343719655352
N           -1.50328293098698       -1.65650655648910        6.64517729384780
C           -0.24563102384425       -1.16119519818684        6.85803345523924
C            0.71875498457206       -1.95087722960275        7.36897578200038
C            2.05300621787969       -1.33793750158723        7.41496280154993
C            2.24704780617638       -0.01126864886926        7.23589961821782
C           -3.78000399478752        1.29460362728984        6.40346604918520
C           -4.88119161109493        0.36662232150455        6.27632873737548
C           -4.90024025749782       -0.99051079639873        6.02701170315776
C           -3.75480268511205       -1.69306057127264        6.07702849385624
O           -3.87153169922885        2.64813464396300        6.55333627430721
O           -2.79448662204548        2.95099693324644        4.22195961714264
C            0.51804357999125        6.23252833289400        4.47793292574910
C           -6.14061776786202       -1.81131769534068        5.71685201347814
H            2.04522998521208        4.34202968551427        5.51555169951427
H           -1.74545585445282        5.35495967390266        4.02864281951030
H            3.14483119966852        0.41687737309334        7.21104185264277
H            0.62795162447653       -2.99280874722877        7.40275879391823
H           -3.62932389087140       -2.77072652454666        6.17743828059088
H           -5.84036335387367        0.65741785165377        5.94326391142836
O            1.72852495000467        6.35083738735632        4.26930221850324
O           -0.50090894153785        6.93108914748040        3.92031980372517
C            0.00418612878522        7.83734303202128        2.99353952497913
C            3.14106894466718       -2.33211730990655        7.55319134095947
O            3.01311599578282       -3.49956948705454        7.90757319527084
O            4.33599672048175       -1.79040975992558        7.21160732464166
C            5.17546196994076       -2.87170028091842        7.05669948997407
O           -6.33177077179929       -2.93008457697430        6.08433213541283
O           -6.94519678443921       -1.10270777329301        4.85160008842691
C           -7.97199260593869       -1.90143573794287        4.28966131543919
C           -5.17168433383951        3.14597199662580        6.28132751324603
C           -2.83115059199059        1.76854411324376        3.48838341864470
H           -8.57278392708359       -1.14666351852258        3.62275353268344
H           -8.63102601811316       -2.36357976198347        5.03064977431138
H           -7.48575943188605       -2.81383830123267        3.76173794499016
H            6.18106759712905       -2.65138058987778        6.85081832939809
H            4.96190589727155       -3.54850573803659        6.24587807805622
H            5.27656260328667       -3.50898785475345        7.97404736696096
H           -3.45788139099470        1.69973994289347        2.64867803213588
H           -3.19507138346351        0.97351406086064        4.06706567275315
H           -1.86658620306914        1.62196961377795        2.96251140864347
H           -5.08670136170227        3.03756201953488        5.18693361615371
H           -5.20825849473461        4.20001644846412        6.67969736782304
H           -5.89090248248942        2.43081820735983        6.75052999366471
H            0.14661012955215        7.30622357816183        2.04584849287521
H            0.97596779252809        8.20980093833157        3.34147140879886
H           -0.68204777150216        8.71947386808377        2.70466606140017
116
 energy: -22.831028513347 gnorm: 0.419491638296 xtb: 6.6.1 (8d0f1dd)
C           -3.02675860034821       -0.27544078438536       -1.72283065013140
C           -2.18234212811096       -0.86494783664374       -0.79260121193710
C           -1.43897009513980       -0.02366221426062        0.13565992738250
C           -1.33734621125079        1.35973829407809       -0.27285909920069
C           -2.21164315116265        1.87548227648631       -1.26449826042165
C           -3.17654265228455        1.07666772644693       -1.83112565913555
C           -0.58719183541968       -0.40344071021276        1.23455027700752
C            0.43521966851178        0.48874721671613        1.62205253426851
C            0.64015089082183        1.70551063720444        0.98994920004409
N           -0.30526089356758        2.18156142177944        0.15904285947803
C           -0.68710384363672       -1.68854409855942        1.80730628321401
C            0.41064306525347       -2.09823825583275        2.52159351071946
N            1.58926973445662       -1.49740948734357        2.72407653266421
C            1.61528392064594       -0.17269253182457        2.33124871913859
C            2.80244862370706        0.52439783614621        2.49841419352310
C            2.94322628779391        1.80169446609588        1.93120753899086
C            1.86298961666305        2.40472486352024        1.22772756520104
C           -1.95527402277038       -2.25269637834462        2.08129491436490
C           -2.03903953461925       -3.47998717829776        2.80830844888528
C           -0.95861829048711       -4.09040206832648        3.33378038538008
C            0.22436515463013       -3.30254826064098        3.29266280143337
O           -3.00999256872809       -1.43949065292514        1.82959887079970
O           -2.02681115818460       -2.25244323796212       -0.68878269579956
C           -4.32157638436256        1.70112823100852       -2.67002402480116
C           -1.13920029617491       -5.19691873039576        4.33432977849907
H           -2.17656898975407        2.91695949673315       -1.43750391019737
H           -3.51200280102046       -0.97468949337691       -2.54102484454314
H            1.86696136540991        3.45165240040591        1.12902739078337
H            3.71405925367848        0.20686793977165        2.99556400785281
H            0.98681601488309       -3.56652164217940        3.90282722939215
H           -2.98873705673812       -3.95473669693132        2.97989699017391
O           -4.14348945389387        2.71034794028842       -3.32890177786996