156
 energy: -222.311362312890 gnorm: 0.086727218602 xtb: 6.7.1 (edcfbbe)
C           -1.26940000000000        1.71520000000000        1.75780000000000
C           -1.20230000000000        0.38790000000000        1.31990000000000
C            0.00930000000000       -0.05920000000000        0.69220000000000
C            0.94950000000000        0.92100000000000        0.29550000000000
C            0.81260000000000        2.22790000000000        0.72920000000000
C           -0.26670000000000        2.63370000000000        1.50420000000000
C            0.24720000000000       -1.44110000000000        0.36350000000000
C            1.13330000000000       -1.73590000000000       -0.72510000000000
C            2.02240000000000       -0.75670000000000       -1.21720000000000
C            2.03510000000000        0.58150000000000       -0.62700000000000
C           -0.35670000000000       -2.54590000000000        1.06430000000000
C           -0.47500000000000       -3.79800000000000        0.41580000000000
C            0.22320000000000       -4.05000000000000       -0.84650000000000
C            1.13720000000000       -3.01300000000000       -1.32560000000000
C            2.00200000000000       -3.27580000000000       -2.37320000000000
C            2.89250000000000       -2.32360000000000       -2.84940000000000
C            2.88550000000000       -1.06930000000000       -2.25320000000000
C           -0.75180000000000       -2.46490000000000        2.44280000000000
C           -1.50140000000000       -3.51760000000000        2.97920000000000
C           -1.78400000000000       -4.66620000000000        2.26010000000000
C           -1.20960000000000       -4.81250000000000        1.00310000000000
O           -0.31090000000000       -1.38450000000000        3.18510000000000
O           -2.27300000000000       -0.48690000000000        1.38890000000000
O            2.89130000000000        1.39930000000000       -0.92850000000000
O            0.08350000000000       -5.10210000000000       -1.45170000000000
C           -0.72690000000000       -1.36720000000000        4.52700000000000
C           -3.37850000000000       -0.02490000000000        2.12610000000000
C           -2.65800000000000       -5.76220000000000        2.88350000000000
C           -3.06770000000000       -6.82100000000000        1.84090000000000
C           -3.94320000000000       -5.12890000000000        3.44960000000000
C           -0.41640000000000        4.07730000000000        2.00220000000000
C           -0.73520000000000        4.07150000000000        3.50840000000000
C            0.87710000000000        4.88740000000000        1.78940000000000
C           -1.56090000000000        4.75920000000000        1.23320000000000
C            3.84120000000000       -2.68280000000000       -4.00120000000000
C            4.75700000000000       -1.50150000000000       -4.37400000000000
C            3.01220000000000       -3.06800000000000       -5.23950000000000
C            4.72560000000000       -3.86980000000000       -3.57790000000000
H            2.36700000000000       -2.24380000000000       -5.54150000000000
H            2.37930000000000       -3.93120000000000       -5.03910000000000
H            3.65910000000000       -3.31650000000000       -6.08010000000000
H            5.42690000000000       -1.77410000000000       -5.18880000000000
H            5.37310000000000       -1.20100000000000       -3.52730000000000
H            4.17410000000000       -0.64100000000000       -4.70040000000000
H            5.42360000000000       -4.13820000000000       -4.37010000000000
H            4.12560000000000       -4.74960000000000       -3.35080000000000
H            5.30330000000000       -3.62040000000000       -2.68860000000000
H            1.97190000000000       -4.25560000000000       -2.81370000000000
H            3.55380000000000       -0.29810000000000       -2.58810000000000
H           -1.31090000000000       -5.73100000000000        0.45550000000000
H           -1.84600000000000       -3.44750000000000        3.99270000000000
H           -3.74850000000000       -7.55060000000000        2.27800000000000
H           -2.20140000000000       -7.36660000000000        1.46940000000000
H           -3.57340000000000       -6.35800000000000        0.99420000000000
H           -3.72400000000000       -4.45060000000000        4.27240000000000
H           -4.62270000000000       -5.89550000000000        3.81960000000000
H           -4.46440000000000       -4.56340000000000        2.67790000000000
H           -0.32850000000000       -0.46740000000000        4.99680000000000
H           -0.33570000000000       -2.24260000000000        5.04580000000000
H           -1.81580000000000       -1.33830000000000        4.58270000000000
H           -4.11110000000000       -0.82990000000000        2.19270000000000
H           -3.83370000000000        0.82920000000000        1.62350000000000
H           -3.05910000000000        0.24420000000000        3.13280000000000
H           -2.14720000000000        2.04720000000000        2.27670000000000
H            1.56850000000000        2.92970000000000        0.42960000000000
H           -1.68850000000000        5.79150000000000        1.55720000000000
H           -2.50470000000000        4.23880000000000        1.39070000000000
H           -1.35640000000000        4.76300000000000        0.16310000000000
H            1.72250000000000        4.40710000000000        2.28100000000000
H            0.77750000000000        5.89050000000000        2.20280000000000
H            1.10750000000000        4.99290000000000        0.73010000000000
H           -0.79700000000000        5.08960000000000        3.89090000000000
H            0.04040000000000        3.54450000000000        4.06310000000000
H           -1.68580000000000        3.58290000000000        3.71550000000000
C           -1.87370000000000       -6.45280000000000        4.01020000000000
H           -2.47430000000000       -7.22330000000000        4.49180000000000
H           -1.57170000000000       -5.73690000000000        4.77170000000000
H           -0.97030000000000       -6.92050000000000        3.62090000000000
C           -1.69020000000000        2.33630000000000        7.26330000000000
C           -1.76250000000000        0.95210000000000        7.06200000000000
C           -0.76960000000000        0.12330000000000        7.68810000000000
C            0.38590000000000        0.75980000000000        8.20160000000000
C            0.41700000000000        2.13520000000000        8.34480000000000
C           -0.63880000000000        2.93780000000000        7.93250000000000
C           -0.85650000000000       -1.31610000000000        7.72040000000000
C            0.36900000000000       -2.06070000000000        7.79620000000000
C            1.57320000000000       -1.43640000000000        8.18550000000000
C            1.57980000000000       -0.01750000000000        8.53450000000000
C           -2.09630000000000       -2.05110000000000        7.68530000000000
C           -2.08840000000000       -3.40910000000000        7.28650000000000
C           -0.82600000000000       -4.12080000000000        7.08390000000000
C            0.40180000000000       -3.43450000000000        7.47720000000000
C            1.59840000000000       -4.12710000000000        7.53100000000000
C            2.78440000000000       -3.51820000000000        7.91640000000000
C            2.74490000000000       -2.17040000000000        8.24750000000000
C           -3.33730000000000       -1.50290000000000        8.15560000000000
C           -4.50940000000000       -2.24250000000000        7.95450000000000
C           -4.50220000000000       -3.53400000000000        7.46050000000000
C           -3.27540000000000       -4.10790000000000        7.15680000000000
O           -3.31190000000000       -0.31310000000000        8.86180000000000
O           -2.69500000000000        0.35230000000000        6.23320000000000
O            2.55900000000000        0.50720000000000        9.04290000000000
O           -0.80330000000000       -5.25990000000000        6.64320000000000
C           -4.56160000000000        0.14910000000000        9.31470000000000
C           -3.67840000000000        1.21640000000000        5.71680000000000
C           -5.82470000000000       -4.29410000000000        7.28090000000000
C           -5.58490000000000       -5.79060000000000        7.00140000000000
C           -6.59260000000000       -3.68030000000000        6.09820000000000
C           -0.64980000000000        4.45520000000000        8.16760000000000
C           -1.91950000000000        4.83550000000000        8.95130000000000
C            0.57690000000000        4.91360000000000        8.98000000000000
C           -0.63830000000000        5.18390000000000        6.81410000000000
C            4.07880000000000       -4.34110000000000        7.96780000000000
C            5.28230000000000       -3.48270000000000        8.40230000000000
C            4.36970000000000       -4.91610000000000        6.56960000000000
C            3.90880000000000       -5.49000000000000        8.97820000000000
H            4.46800000000000       -4.11520000000000        5.83770000000000
H            3.56890000000000       -5.57480000000000        6.23740000000000
H            5.29540000000000       -5.49060000000000        6.56880000000000
H            6.19320000000000       -4.07970000000000        8.42970000000000
H            5.12990000000000       -3.06890000000000        9.39840000000000
H            5.44800000000000       -2.66000000000000        7.70770000000000
H            4.81950000000000       -6.08340000000000        9.05120000000000
H            3.09890000000000       -6.15690000000000        8.68660000000000
H            3.67980000000000       -5.09940000000000        9.96910000000000
H            1.58580000000000       -5.16950000000000        7.27000000000000
H            3.63420000000000       -1.65410000000000        8.55780000000000
H           -3.21410000000000       -5.13160000000000        6.83780000000000
H           -5.45110000000000       -1.80170000000000        8.21650000000000
H           -6.53060000000000       -6.32380000000000        6.91140000000000
H           -5.01880000000000       -6.25190000000000        7.81000000000000
H           -5.03790000000000       -5.93820000000000        6.07250000000000
H           -6.81180000000000       -2.62880000000000        6.27870000000000
H           -7.53650000000000       -4.19860000000000        5.93330000000000
H           -6.00690000000000       -3.74500000000000        5.18230000000000
H           -4.40830000000000        1.08890000000000        9.84630000000000
H           -5.00130000000000       -0.57660000000000        9.99980000000000
H           -5.22260000000000        0.32870000000000        8.46610000000000
H           -4.39760000000000        0.62370000000000        5.15060000000000
H           -3.21910000000000        1.94970000000000        5.05320000000000
H           -4.20260000000000        1.71290000000000        6.53390000000000
H           -2.46670000000000        2.96110000000000        6.86700000000000
H            1.29910000000000        2.56610000000000        8.78130000000000
H           -0.62270000000000        6.26440000000000        6.95210000000000
H           -1.52090000000000        4.93560000000000        6.22690000000000
H            0.24300000000000        4.90530000000000        6.23760000000000
H            0.61820000000000        4.40890000000000        9.94460000000000
H            0.53670000000000        5.98570000000000        9.16900000000000
H            1.50250000000000        4.71010000000000        8.44280000000000
H           -1.94790000000000        5.90580000000000        9.15230000000000
H           -1.95280000000000        4.31120000000000        9.90570000000000
H           -2.82030000000000        4.57730000000000        8.39680000000000
C           -6.67310000000000       -4.18450000000000        8.56300000000000
H           -7.58610000000000       -4.77260000000000        8.47550000000000
H           -6.96570000000000       -3.15590000000000        8.76570000000000
H           -6.11690000000000       -4.55280000000000        9.42430000000000
156
 energy: -222.323194717582 gnorm: 0.036015036162 xtb: 6.7.1 (edcfbbe)
C           -1.26726518883095        1.71637822969865        1.74669451968836
C           -1.18875389344578        0.39516621847479        1.32283586582887
C            0.00005413694154       -0.06362073110349        0.68745503990851
C            0.94121161503210        0.91499626797321        0.29630956930167
C            0.81382353579006        2.23021341153540        0.72190955068434
C           -0.26003877214168        2.64105655604772        1.49551333064040
C            0.24121487726962       -1.44105187517014        0.36853842110434
C            1.12364540367717       -1.73403044629123       -0.71522052492811
C            2.01012455548546       -0.75749085148540       -1.21454644931713
C            2.04332864822089        0.58213209209576       -0.61741110519760
C           -0.34891399835654       -2.54387303030469        1.06900539774187
C           -0.47277835174262       -3.79255112170621        0.41979025081563
C            0.21165388729817       -4.05152750359641       -0.85448576331513
C            1.13777462338219       -3.01054569717736       -1.31604417082529
C            2.00270947667415       -3.27488668385297       -2.36938633097077
C            2.89538476857280       -2.32210612501132       -2.85169191002264
C            2.88074049908566       -1.06779646044109       -2.25213090167336
C           -0.75993894625220       -2.47662894284636        2.43090014501061
C           -1.49556797766637       -3.52381070462625        2.97422852788544
C           -1.78520372039505       -4.67695217135092        2.25283484317980
C           -1.20630351279436       -4.81756018430836        0.99989450276621
O           -0.33797709853462       -1.39889123835983        3.16264287559600
O           -2.24522902017062       -0.47510192023598        1.40695796159422
O            2.89886144120008        1.40510415936144       -0.92391031121116
O            0.07573954752192       -5.10880536616930       -1.45929769322445
C           -0.72394101508245       -1.36863904996369        4.51507315577325
C           -3.37070038647022       -0.03010146544054        2.12525857719273
C           -2.65938826423042       -5.76278187564371        2.87383927804013
C           -3.06933688132790       -6.81893524502658        1.83918738607998
C           -3.93755997791877       -5.12652442667912        3.44276543909359
C           -0.40994895373433        4.07475103333548        1.99905388541934
C           -0.73221604110919        4.06779990004780        3.50066116385962
C            0.87423597454983        4.88694193151691        1.79000864921292
C           -1.55616299764865        4.75257061765869        1.23294282416570
C            3.84066365314824       -2.67748314157586       -3.99825107335119
C            4.75469414223035       -1.50373425249904       -4.37306292914847
C            3.01030425078421       -3.06524011173339       -5.23132958829978
C            4.71922859788725       -3.86463457532498       -3.57421066356571
H            2.36880396730781       -2.23917255515793       -5.53311592954684
H            2.38007146642842       -3.92855819271480       -5.03083658762453
H            3.66518503841401       -3.31169680316230       -6.06534086661488
H            5.41667258354792       -1.79250068660260       -5.18745223709123
H            5.37349368648955       -1.20668560961500       -3.52864704271030
H            4.17263704567177       -0.64594825193382       -4.70410838266487
H            5.41276275264060       -4.12494557964055       -4.37196032763795
H            4.11943888711771       -4.74352598799013       -3.34959438711424
H            5.29769832167874       -3.61207811481722       -2.68736033998579
H            1.96257632254326       -4.25896063187618       -2.80956763694546
H            3.55083539641109       -0.28941563103110       -2.57680054970029
H           -1.30250158235682       -5.73213644621305        0.44085015191833
H           -1.84295399108288       -3.45162135238845        3.99052076576858
H           -3.74929283218339       -7.53838652092828        2.29200646401290
H           -2.20435468098657       -7.36854201035480        1.47569287487581
H           -3.57490508535570       -6.35667595240394        0.99349906042237
H           -3.71664675587926       -4.45440901026815        4.26956291281919
H           -4.60967598860440       -5.90145652706949        3.80752941773359
H           -4.45807364715406       -4.56324124972674        2.66952932153986
H           -0.30730906655974       -0.46176778396557        4.95307456755257
H           -0.32864153659468       -2.23441370693598        5.05220875052278
H           -1.81273499638925       -1.33895836317043        4.61187345922423
H           -4.08023381423838       -0.85722402358784        2.16680762850708
H           -3.84683349516162        0.81938968667910        1.62576123533483
H           -3.08322309241258        0.24553406403541        3.14289780102864
H           -2.14820172718766        2.04932905040053        2.26755445904579
H            1.57946950636982        2.92280718365905        0.41777894989440
H           -1.67665571847570        5.78301809266534        1.56305663627657
H           -2.49957600727036        4.23339559513769        1.39124823012471
H           -1.34833525219359        4.75752321723419        0.16482171762598
H            1.71752920935648        4.40628816919637        2.28165602862025
H            0.75886177842956        5.88440283443806        2.21056751079314
H            1.10000582961353        4.99805926719256        0.73211813673505
H           -0.79098186256134        5.08872119817118        3.87259560734463
H            0.04316853704430        3.54120855840898        4.05380859772881
H           -1.68411147350777        3.58319577007678        3.70698184979504
C           -1.87549222812995       -6.45084003124406        3.99842227510100
H           -2.48182621028664       -7.22036835907719        4.47230495978779
H           -1.57138496689962       -5.74399507778083        4.76511289502712
H           -0.97622195414895       -6.92009125117130        3.60540247012256
C           -1.68289372982254        2.33727627353968        7.26472742389372
C           -1.75690853353380        0.96116399406815        7.08025258413325
C           -0.77310035676183        0.12254757968892        7.67928577576565
C            0.37775442429625        0.75828715479303        8.19821520009735
C            0.42193525251357        2.13704010185448        8.34538155436447
C           -0.63056597534398        2.94365740148329        7.94163948841664
C           -0.86353598704631       -1.30981740242903        7.72111149708281
C            0.35698218201112       -2.05099108700948        7.79783577282669
C            1.56491002711386       -1.43240822200611        8.17932985232004
C            1.57747872653716       -0.01393238303176        8.54926778771469
C           -2.09621707653787       -2.04469036688025        7.69735199366472
C           -2.08923528264649       -3.40020192692500        7.29534066939987
C           -0.82675411514868       -4.11925489376691        7.08026049316850
C            0.39670548667222       -3.42614405538308        7.48664094081304
C            1.59657197445218       -4.12405049414288        7.53597871758633
C            2.78905151982769       -3.51763348377967        7.91804761305693
C            2.74237959942894       -2.16694977308585        8.24537423740440
C           -3.33976892924974       -1.51218352387428        8.14358198805362
C           -4.50629054323607       -2.24665378635377        7.95303103834923
C           -4.50232984963980       -3.54344617683201        7.45347924479110
C           -3.27282602977853       -4.11391293961521        7.16186866558191
O           -3.32065723786816       -0.32517751791916        8.82826259426294
O           -2.69658361198506        0.36852673959389        6.27301328117032
O            2.56111093530232        0.51385314416950        9.05351435958355
O           -0.80386509923328       -5.26730162283552        6.65022714533120
C           -4.55650465562671        0.14959824596793        9.30886880748698
C           -3.68097778176350        1.21565865500107        5.72866806259639
C           -5.82023991701189       -4.29779486003320        7.28155188434706
C           -5.58610746918154       -5.78782308479161        7.00208286046271
C           -6.58544633721235       -3.67875126310876        6.10235207480444
C           -0.64537724866302        4.45322547744938        8.17370468117011
C           -1.91644573846542        4.82847290933403        8.95125225334767
C            0.57458023342012        4.91363586121781        8.98068362725188
C           -0.63790153663457        5.17885362902789        6.82131892703804
C            4.07821689787879       -4.33528091311998        7.96891677856092
C            5.27903708376641       -3.48400883018095        8.40141078400660
C            4.36288977875339       -4.91088846887268        6.57293211097314
C            3.90306144269552       -5.48314219467606        8.97522696370243
H            4.46464096449241       -4.10920185453888        5.84369378877819
H            3.56416123692404       -5.57080223948119        6.24247349874393
H            5.28909217079444       -5.48255477533328        6.58313467996456
H            6.17925893330135       -4.09518912999901        8.42309967884315
H            5.12952107280465       -3.07519102561720        9.39878889082957
H            5.44802440028167       -2.66555336795271        7.70444187114241
H            4.81770027983468       -6.06962960900804        9.04028162986100
H            3.09561201385696       -6.15017590572394        8.68198488609219
H            3.67812048766502       -5.09074539289965        9.96543234078071
H            1.57566541565110       -5.16845135520458        7.26611189343846
H            3.62758756626302       -1.64210363513568        8.56310104946280
H           -3.19719125403731       -5.13871372370902        6.84129231204122
H           -5.45017168712597       -1.80697473918058        8.22268607305813
H           -6.54006144401296       -6.30484812418866        6.91760422932270
H           -5.02305770178931       -6.24761332786118        7.81192176803957
H           -5.04594419459700       -5.93471541739459        6.07087710193039
H           -6.80587389554259       -2.62852204556861        6.28525639582988
H           -7.52719369974390       -4.20130754253507        5.94602351273913
H           -6.00056717114300       -3.74923555671421        5.18744024661182
H           -4.36299428277248        1.08475560000358        9.83524091200271
H           -5.00473984822919       -0.56323400210383       10.00695011937727
H           -5.24477653233615        0.34296933241623        8.48064596555834
H           -4.37828285898034        0.59165703589228        5.16773753792475
H           -3.23359244130611        1.94957341543982        5.05144373256501
H           -4.22711209735152        1.73072508925058        6.52322089699716
H           -2.46010551332217        2.96477705859918        6.86438180630394
H            1.31155856042314        2.55586762164588        8.78287816295083
H           -0.62271880701384        6.25706020199888        6.96927837590807
H           -1.51984845085839        4.93205567231988        6.23499497379591
H            0.24416913859420        4.90077707334033        6.24855058455906
H            0.61412880028972        4.41132443763951        9.94489453006570
H            0.51790442779247        5.98543854669749        9.16061556318579
H            1.49767362998461        4.71551215673655        8.44024442246069
H           -1.93572052286427        5.89890381870948        9.14686251909166
H           -1.94564357227405        4.30554017911057        9.90524562101653
H           -2.81616702237960        4.57371222994151        8.39524828496441
C           -6.66690798733489       -4.18391169548879        8.56007907184049
H           -7.57452439766384       -4.77640991686488        8.46224512959189
H           -6.96585296446060       -3.15795039897384        8.76118979458916
H           -6.10961427443566       -4.55343478108939        9.41883421997975
156
 energy: -222.327241782487 gnorm: 0.011953676231 xtb: 6.7.1 (edcfbbe)
C           -1.26333713829580        1.72108225035903        1.73639394310921
C           -1.17893092148465        0.40480640567398        1.32291636060394
C           -0.00271380021130       -0.06595622475994        0.68669791082741
C            0.93773791705158        0.91030525926018        0.29705620752542
C            0.81892818594979        2.23188018748121        0.71627607445143
C           -0.25075169245097        2.64884445971420        1.48730461664442
C            0.23611297680666       -1.44102174880718        0.37237645278704
C            1.11559995956014       -1.73207695826214       -0.70784447261345
C            2.00264611493366       -0.75930038002622       -1.21006303056451
C            2.04456313321892        0.58468667135947       -0.61802011876925
C           -0.34821091314841       -2.54361689980917        1.06833541784589
C           -0.47218955195636       -3.78950588797916        0.41832919360461
C            0.21058902031229       -4.05601846375366       -0.85832228743395
C            1.13554458988186       -3.00651534106241       -1.31202817802123
C            1.99867771349224       -3.27031648558224       -2.36794814571610
C            2.89585035720138       -2.31939172553103       -2.85100045500762
C            2.87865028328441       -1.06778605779263       -2.24626426458326
C           -0.76802903574642       -2.49017394785885        2.42202304995894
C           -1.49259979971012       -3.53465933279497        2.96724837559868
C           -1.78587432931791       -4.69031716464285        2.24169571215110
C           -1.20453313697286       -4.82318588401372        0.99124736086660
O           -0.36613493731836       -1.41149298944980        3.14420421981641
O           -2.22063608132897       -0.46556099070635        1.42408525728411
O            2.90754974983542        1.40359335611147       -0.91446140225381
O            0.06538763669009       -5.10736535442734       -1.47106411338299
C           -0.71415197398090       -1.36368240659316        4.50648805575806
C           -3.36764915186339       -0.04533479401306        2.12137414386831
C           -2.65909786634296       -5.76583602723652        2.86201833858177
C           -3.07483037997630       -6.82166835284193        1.83572467033282
C           -3.93300030018255       -5.12679993917991        3.43277992941750
C           -0.40435282709045        4.07319275749304        1.99323651397006
C           -0.72760658940650        4.06353004350377        3.49260357951429
C            0.87214997193349        4.89067554774109        1.78976049148560
C           -1.55152935226015        4.74938716362661        1.22866933681749
C            3.83661045804393       -2.67321512739017       -3.99230631737770
C            4.75206110962808       -1.50728521027719       -4.37246242492916
C            3.00681338291488       -3.06120708146094       -5.22399599416927
C            4.71364722138093       -3.85982590596906       -3.56919517126187
H            2.36762347957678       -2.23412283315768       -5.52561302925145
H            2.37800891913911       -3.92366586571629       -5.02233436961786
H            3.66639516463040       -3.30712964992899       -6.05394921718883
H            5.40793429507127       -1.80893961452378       -5.18677747764917
H            5.37453314353326       -1.21040212834725       -3.53193622091714
H            4.17356877286627       -0.64986135464316       -4.70760947124937
H            5.40425073898449       -4.11568279541608       -4.37039321757051
H            4.11333153014388       -4.73699177667215       -3.34538554573093
H            5.29248642263536       -3.60551498013418       -2.68386983634838
H            1.95133889318167       -4.25892751541253       -2.80204884339688
H            3.54528876681867       -0.28069147038154       -2.56255910735008
H           -1.29411831988471       -5.73140590640704        0.41854999320197
H           -1.83938068295461       -3.46434515733476        3.98536159644247
H           -3.75652783057355       -7.53229559492291        2.29891646316309
H           -2.21285240115387       -7.37653048608305        1.47673854208528
H           -3.57901752097938       -6.36157428797821        0.98930771382661
H           -3.70951379750317       -4.46082901166660        4.26273953118636
H           -4.60282047607460       -5.90546845611477        3.79297202609020
H           -4.45189765330846       -4.56104636469437        2.66090316168321
H           -0.27642743048057       -0.44730647064946        4.90435522930284
H           -0.30759712995467       -2.21975541383853        5.05458107455539
H           -1.80144977708528       -1.33321074557771        4.64705290701548
H           -4.04793664737911       -0.89870328588327        2.13619053665044
H           -3.86290968673401        0.79595638431770        1.62119243162271
H           -3.11528050384328        0.23789397992674        3.14908675400681
H           -2.14694825340735        2.05645545777990        2.25438772017989
H            1.59445089707458        2.91227853926541        0.40526037240790
H           -1.66858839574801        5.77825661174688        1.56332694337130
H           -2.49319027550533        4.22920822909373        1.38800816353842
H           -1.34195564503482        4.75446693452537        0.16181704264640
H            1.71588134383269        4.41128714515440        2.27959596969343