134
 energy: -186.424892319654 gnorm: 0.085479064377 xtb: 6.7.1 (edcfbbe)
C           -1.00590000000000        1.91600000000000        0.25350000000000
C           -1.07930000000000        0.52690000000000        0.26230000000000
C            0.13470000000000       -0.19100000000000        0.32870000000000
C            1.39130000000000        0.45390000000000        0.38410000000000
C            1.38540000000000        1.85780000000000        0.37350000000000
C            0.21350000000000        2.59180000000000        0.30540000000000
C            0.09480000000000       -1.58450000000000        0.33480000000000
C            1.27940000000000       -2.30160000000000        0.39080000000000
C            2.50530000000000       -1.59130000000000        0.44170000000000
N            2.56210000000000       -0.23440000000000        0.43910000000000
C           -1.11950000000000       -2.26680000000000        0.27830000000000
C           -1.10640000000000       -3.68020000000000        0.28280000000000
N            0.04640000000000       -4.39840000000000        0.33560000000000
C            1.22080000000000       -3.71830000000000        0.38850000000000
C            2.44140000000000       -4.40590000000000        0.43740000000000
C            3.66290000000000       -3.74440000000000        0.48510000000000
C            3.67910000000000       -2.35530000000000        0.48960000000000
C           -2.31830000000000       -1.52380000000000        0.21350000000000
C           -3.51320000000000       -2.23380000000000        0.15520000000000
C           -3.54470000000000       -3.62860000000000        0.15700000000000
C           -2.35110000000000       -4.32680000000000        0.22290000000000
C            0.29090000000000        4.12600000000000        0.29930000000000
C           -4.86570000000000       -4.41010000000000        0.09110000000000
C            4.99680000000000       -4.50530000000000        0.53840000000000
C           -6.08280000000000       -3.47020000000000       -0.00480000000000
C           -5.01180000000000       -5.26280000000000        1.36340000000000
C           -4.85840000000000       -5.32210000000000       -1.14920000000000
C            5.85950000000000       -4.10980000000000       -0.67400000000000
C            5.73130000000000       -4.14310000000000        1.84110000000000
C            4.78800000000000       -6.03170000000000        0.50760000000000
C           -1.10290000000000        4.76920000000000        0.16650000000000
C            0.92150000000000        4.60280000000000        1.61900000000000
C            1.15300000000000        4.59100000000000       -0.88880000000000
H            2.33320000000000        2.36030000000000        0.42100000000000
H           -1.93130000000000        2.45650000000000        0.20400000000000
H            4.61450000000000       -1.82940000000000        0.53000000000000
H            2.40050000000000       -5.47820000000000        0.43540000000000
H           -2.35540000000000       -5.40070000000000        0.22860000000000
H           -4.42120000000000       -1.66440000000000        0.10690000000000
H            0.73430000000000        4.23550000000000       -1.82970000000000
H            1.20360000000000        5.67860000000000       -0.93150000000000
H            2.17200000000000        4.21440000000000       -0.81260000000000
H            0.98150000000000        5.69030000000000        1.65440000000000
H            1.92890000000000        4.20770000000000        1.74320000000000
H            0.32380000000000        4.26890000000000        2.46590000000000
H           -1.74300000000000        4.49590000000000        1.00480000000000
H           -1.02690000000000        5.85620000000000        0.15260000000000
H           -1.59040000000000        4.46080000000000       -0.75780000000000
H            6.08640000000000       -3.04470000000000       -0.66970000000000
H            5.34140000000000       -4.33760000000000       -1.60510000000000
H            6.80520000000000       -4.65110000000000       -0.67280000000000
H            4.27840000000000       -6.33960000000000       -0.40500000000000
H            5.74430000000000       -6.55300000000000        0.54250000000000
H            4.20080000000000       -6.36490000000000        1.36280000000000
H            5.95410000000000       -3.07810000000000        1.88900000000000
H            6.67260000000000       -4.68570000000000        1.92420000000000
H            5.11700000000000       -4.39540000000000        2.70420000000000
H           -4.72950000000000       -4.73440000000000       -2.05750000000000
H           -4.04860000000000       -6.04870000000000       -1.10320000000000
H           -5.79480000000000       -5.87300000000000       -1.23340000000000
H           -5.94640000000000       -5.82290000000000        1.35440000000000
H           -5.00730000000000       -4.62680000000000        2.24720000000000
H           -4.19490000000000       -5.97660000000000        1.45970000000000
H           -6.14560000000000       -2.81920000000000        0.86670000000000
H           -6.02950000000000       -2.84960000000000       -0.89880000000000
H           -7.00920000000000       -4.04180000000000       -0.05520000000000
O           -2.30440000000000       -0.13170000000000        0.20350000000000
C           -1.05130000000000        1.91840000000000        6.75460000000000
C           -1.12230000000000        0.52900000000000        6.74430000000000
C            0.09330000000000       -0.18750000000000        6.79570000000000
C            1.34860000000000        0.45890000000000        6.86230000000000
C            1.34020000000000        1.86270000000000        6.87240000000000
C            0.16700000000000        2.59550000000000        6.81790000000000
C            0.05580000000000       -1.58100000000000        6.79240000000000
C            1.24120000000000       -2.29640000000000        6.85460000000000
C            2.46540000000000       -1.58440000000000        6.92040000000000
N            2.52000000000000       -0.22750000000000        6.92460000000000
C           -1.15780000000000       -2.26500000000000        6.74310000000000
C           -1.14270000000000       -3.67830000000000        6.75670000000000
N            0.01080000000000       -4.39480000000000        6.81480000000000
C            1.18430000000000       -3.71310000000000        6.86320000000000
C            2.40480000000000       -4.39880000000000        6.93710000000000
C            3.62450000000000       -3.73550000000000        7.00390000000000
C            3.63910000000000       -2.34650000000000        6.99460000000000
C           -2.35860000000000       -1.52370000000000        6.69440000000000
C           -3.55320000000000       -2.23570000000000        6.65560000000000
C           -3.58260000000000       -3.63060000000000        6.66790000000000
C           -2.38720000000000       -4.32690000000000        6.71770000000000
C            0.24220000000000        4.12960000000000        6.84670000000000
C           -4.90330000000000       -4.41480000000000        6.63890000000000
C            4.95670000000000       -4.49410000000000        7.10810000000000
C           -6.12300000000000       -3.47830000000000        6.54280000000000
C           -5.02820000000000       -5.24710000000000        7.92760000000000
C           -4.91260000000000       -5.34770000000000        5.41480000000000
C            5.86610000000000       -4.09270000000000        5.93270000000000
C            5.64060000000000       -4.13510000000000        8.43970000000000
C            4.75190000000000       -6.02060000000000        7.06080000000000
C           -1.15130000000000        4.77310000000000        6.71260000000000
C            0.86220000000000        4.58100000000000        8.18110000000000
C            1.11470000000000        4.61960000000000        5.67680000000000
H            2.28690000000000        2.36610000000000        6.93040000000000
H           -1.97770000000000        2.45800000000000        6.71570000000000
H            4.57260000000000       -1.81890000000000        7.05230000000000
H            2.36470000000000       -5.47110000000000        6.94570000000000
H           -2.39010000000000       -5.40060000000000        6.73270000000000
H           -4.46270000000000       -1.66790000000000        6.61910000000000
H            0.70970000000000        4.27030000000000        4.72860000000000
H            1.15470000000000        5.70810000000000        5.64780000000000
H            2.13630000000000        4.25170000000000        5.75950000000000
H            0.91720000000000        5.66780000000000        8.23820000000000
H            1.87140000000000        4.18920000000000        8.30060000000000
H            0.26520000000000        4.22820000000000        9.02150000000000
H           -1.79860000000000        4.48510000000000        7.54030000000000
H           -1.07690000000000        5.86030000000000        6.71760000000000
H           -1.63000000000000        4.47960000000000        5.77880000000000
H            6.09360000000000       -3.02790000000000        5.94980000000000
H            5.38150000000000       -4.31620000000000        4.98380000000000
H            6.81050000000000       -4.63520000000000        5.96610000000000
H            4.27240000000000       -6.32290000000000        6.13030000000000
H            5.70750000000000       -6.54060000000000        7.12330000000000
H            4.13820000000000       -6.36070000000000        7.89440000000000
H            5.85410000000000       -3.06890000000000        8.50000000000000
H            6.58280000000000       -4.67080000000000        8.55150000000000
H            5.00140000000000       -4.39600000000000        9.28270000000000
H           -4.78240000000000       -4.77270000000000        4.49960000000000
H           -4.10880000000000       -6.08060000000000        5.46580000000000
H           -5.85460000000000       -5.89080000000000        5.34340000000000
H           -5.96440000000000       -5.80440000000000        7.94300000000000
H           -5.00430000000000       -4.60230000000000        8.80560000000000
H           -4.21250000000000       -5.96320000000000        8.01690000000000
H           -6.17690000000000       -2.81390000000000        7.40470000000000
H           -6.08120000000000       -2.87180000000000        5.63860000000000
H           -7.04900000000000       -4.05190000000000        6.51230000000000
O           -2.34690000000000       -0.13150000000000        6.69280000000000
134
 energy: -186.432440863553 gnorm: 0.038779206204 xtb: 6.7.1 (edcfbbe)
C           -1.01821421963610        1.90659361180455        0.25269967592763
C           -1.07521200249449        0.52211561805745        0.26306375780175
C            0.13339931937700       -0.18814831547014        0.32879424639661
C            1.39440752871782        0.45566374504241        0.38451703119097
C            1.38974054042022        1.86178687988099        0.37445235325829
C            0.20998786827788        2.58486192032142        0.30617180162412
C            0.09922554743828       -1.58655815972978        0.33516797646865
C            1.28318718918970       -2.30301502809303        0.39140048071021
C            2.50713625808904       -1.58657736171961        0.44197839235019
N            2.55300274886591       -0.23919707873180        0.43907406501605
C           -1.12231626904124       -2.26609626166282        0.27828790583337
C           -1.10655288322372       -3.68276748325139        0.28287723164516
N            0.04651289230715       -4.38649047213819        0.33579328925200
C            1.21692446960415       -3.72012007998627        0.38836610374556
C            2.44110747105108       -4.41496934813569        0.43702675486998
C            3.66249728590702       -3.74709348330965        0.48513427209731
C            3.68749828747510       -2.35258116708125        0.49007755109550
C           -2.31209697044411       -1.52468524878792        0.21423391096146
C           -3.51046088584059       -2.21807634440001        0.15484820821166
C           -3.54013085898709       -3.62188629871020        0.15720197252214
C           -2.35242244618193       -4.33194895930188        0.22287917981462
C            0.28232965894937        4.11413346993762        0.29757153331341
C           -4.85903546762114       -4.39671554699275        0.09035170382897
C            4.98961319094924       -4.50661534133560        0.53712233845044
C           -6.07831540260230       -3.47045032471282       -0.00521160738208
C           -5.00352494596169       -5.25157740402123        1.35816962827240
C           -4.85082073695518       -5.31052021962370       -1.14473588598613
C            5.84955934306524       -4.10778287607066       -0.67144663811029
C            5.72145851306648       -4.14088395272314        1.83655667995362
C            4.78879023763685       -6.02727646289481        0.50712112401765
C           -1.10059573632233        4.76535746561438        0.16617074982961
C            0.91572334863848        4.59034018114064        1.61318115048611
C            1.14614943786967        4.57905181417542       -0.88501386380458
H            2.34190701137029        2.36269829684145        0.42079707877696
H           -1.94885394273339        2.44413364920296        0.20121281999860
H            4.62362828083030       -1.82072136376343        0.53018934833826
H            2.39277315329700       -5.48939820559794        0.43432174722828
H           -2.35310130253113       -5.40888635143953        0.22817705906871
H           -4.41826449764859       -1.64263961790137        0.10531344733862
H            0.72594942019093        4.22650653326542       -1.82501345038412
H            1.18932251857106        5.66660092588273       -0.91629210979660
H            2.16407034020645        4.20534764734009       -0.80660939534161
H            0.97129512728517        5.67746889554733        1.63730994602033
H            1.92212852520347        4.19742700386338        1.73635396098293
H            0.31627942767444        4.25971986990166        2.45906164608833
H           -1.73860029207520        4.50007396326698        1.00696800744388
H           -1.00139418297907        5.84943820584386        0.15365362160055
H           -1.58627461425503        4.46351470417322       -0.75970651675087
H            6.07744361019593       -3.04454027738051       -0.66539136180160
H            5.33122719910157       -4.33946698872443       -1.60015744395518
H            6.79117231383635       -4.65404566412635       -0.65980193967132
H            4.28493443680875       -6.33624578399182       -0.40663208406745
H            5.75413159448174       -6.52913818008382        0.54245552997135
H            4.20765234072825       -6.36145137857990        1.36443053029355
H            5.94544518182554       -3.07784291287409        1.88399801544686
H            6.65978936370245       -4.68788428076916        1.90999693273326
H            5.10671227391373       -4.39670675915447        2.69738197597409
H           -4.72544475796802       -4.72309771950607       -2.05231434345067
H           -4.04394280410118       -6.03761538946527       -1.09655372297943
H           -5.79065498201508       -5.85560843255805       -1.21727927381166
H           -5.93971947647667       -5.80702099907329        1.33775126229556
H           -5.00285312167552       -4.61624328057846        2.24132755392925
H           -4.18916299566460       -5.96559177622616        1.45351179321758
H           -6.14700604766962       -2.82494803820391        0.86831461619991
H           -6.03036004481518       -2.85473126156876       -0.90122613205239
H           -6.99131219934413       -4.06138210181327       -0.05463550656858
O           -2.28697161875217       -0.14197302189679        0.20647333832765
C           -1.06329622700994        1.90895326670880        6.75493136811423
C           -1.11780030413028        0.52423863150684        6.74411784519665
C            0.09235667876043       -0.18461546717064        6.79556474480043
C            1.35198625042578        0.46072339040300        6.86341846729223
C            1.34476452290873        1.86671231736542        6.87484478059839
C            0.16372010127800        2.58861507081373        6.82033543316629
C            0.06058555092613       -1.58307240818113        6.79235831435199
C            1.24535338886840       -2.29782334792376        6.85461105375375
C            2.46749860808470       -1.57971714421862        6.92121971154520
N            2.51121302720155       -0.23234174412098        6.92462240620314
C           -1.16028484396779       -2.26436314951334        6.74290166465446
C           -1.14260692743304       -3.68094897689105        6.75741644599570
N            0.01122240499848       -4.38297731223759        6.81491127531996
C            1.18079423363184       -3.71494017207101        6.86336992736646
C            2.40481187043138       -4.40786615963545        6.93820359389701
C            3.62431671777814       -3.73819685886927        7.00678232782753
C            3.64765076113050       -2.34375192432310        6.99720603002886
C           -2.35196347198208       -1.52465382758885        6.69426230215525
C           -3.55015124176361       -2.22004787560659        6.65653199328433
C           -3.57781434730821       -3.62393390353728        6.67000570425374
C           -2.38827891784900       -4.33207923578063        6.71935092767291
C            0.23393822411421        4.11779663524925        6.84582675151066
C           -4.89638391223898       -4.40154405050771        6.63916399160004
C            4.94997362072907       -4.49541147849096        7.10734855758257
C           -6.11825826818881       -3.47870147762447        6.54360811729003
C           -5.01955743760972       -5.23561338868901        7.92343617513722
C           -4.90475942556216       -5.33628877399440        5.42011140234579
C            5.85658370321080       -4.09088436365687        5.93558052833117
C            5.63092957827892       -4.13279878028625        8.43549326272656
C            4.75304309242706       -6.01616011337985        7.06113808048422
C           -1.14867951822967        4.76932191434024        6.71314582316871
C            0.85648370119699        4.56836992307675        8.17605620742630
C            1.10813909253839        4.60763014084602        5.68121040460176
H            2.29584038677077        2.36851630418280        6.93130762020893
H           -1.99504641082682        2.44558871879680        6.71512705750215
H            4.58193029466195       -1.81017476198969        7.05350968809206
H            2.35733430842322       -5.48232525285552        6.94543892976866
H           -2.38756662093753       -5.40886467858231        6.73352423138936
H           -4.45959011405635       -1.64620964693751        6.61988588858516
H            0.70346885560431        4.26134905530886        4.73293866223416
H            1.14052666408240        5.69574054220069        5.66287609268621
H            2.12871069305611        4.24322480452486        5.76578369445406
H            0.90709986292102        5.65515929014045        8.22074489294543
H            1.86488905913082        4.17841860602351        8.29301084882465
H            0.25787841888488        4.21918123931386        9.01535877840548
H           -1.79401419161157        4.48951561371316        7.54343997019671
H           -1.05125671998865        5.85362038053213        6.71931530428608
H           -1.62539392677801        4.48179970894897        5.77792867308799
H            6.08542800019246       -3.02821098074291        5.95375237833267
H            5.37246896854667       -4.31725442053991        4.98813574084135
H            6.79639696146868       -4.63844694003775        5.97875136801315
H            4.27852498510017       -6.31920075218503        6.12976179881077
H            5.71760368007525       -6.51679089595083        7.12380549960601
H            4.14598387416679       -6.35762626532375        7.89722682617495
H            5.84524498349449       -3.06816365666468        8.49399843643352
H            6.57074719925548       -4.67287020895359        8.53640597187003
H            4.99206692950488       -4.39776628646968        9.27609786657699
H           -4.77707952765027       -4.76273997447028        4.50477001538866
H           -4.10441497799174       -6.06995538656241        5.47275903914849
H           -5.84996505729887       -5.87327428933856        5.35941044731236
H           -5.95770661563235       -5.78835025458257        7.92647996380323
H           -4.99964129124372       -4.59113227714241        8.80031934086254
H           -4.20603243401809       -5.95192751257525        8.01021176817162
H           -6.17834177719388       -2.81968066254933        7.40749340895095
H           -6.08113891265763       -2.87701090071221        5.63747033347489
H           -7.03090297286767       -4.07151671444684        6.51374081789766
O           -2.32888041033584       -0.14177229702705        6.69116300167410
134
 energy: -186.434416541835 gnorm: 0.006806074679 xtb: 6.7.1 (edcfbbe)
C           -1.02833908493138        1.89861158378428        0.25112556911721
C           -1.07330121255603        0.51697522507088        0.26401276931122
C            0.13284613479237       -0.18819463694322        0.32975998701325
C            1.39742507944562        0.45450518458723        0.38549634308230
C            1.38985810800079        1.86190286439799        0.37457359130051
C            0.20574447854465        2.57546166726206        0.30499820158673
C            0.10480935471989       -1.58979357263653        0.33642165815925
C            1.28733344393923       -2.30560044437247        0.39252403783539
C            2.50927590454475       -1.58298340016832        0.44274840739866
N            2.54681275778098       -0.24420575043661        0.43965886070742
C           -1.12267988852423       -2.26491894213060        0.27902050265189
C           -1.10504566269545       -3.68410845607390        0.28327521905257
N            0.04695406295799       -4.37797654451423        0.33605859889449
C            1.21308792289180       -3.72318799565915        0.38851272327940
C            2.44024553110414       -4.42170135027939        0.43628863420243
C            3.65827309499094       -3.74849149008451        0.48424495275948
C            3.69196127054541       -2.35219104045184        0.49025548113174
C           -2.30676141386024       -1.52321495323945        0.21514069526007
C           -3.50825793447052       -2.20443158119490        0.15399490856031
C           -3.53433351955615       -3.61283923963540        0.15656612574746
C           -2.35315848483381       -4.33133714783809        0.22259418424032
C            0.27504212662412        4.09998014545616        0.29612980396625
C           -4.85014838836428       -4.38313725055136        0.08964597897475
C            4.98142815777436       -4.50455993346704        0.53587075948150
C           -6.07287855792469       -3.46742764646994       -0.00593103899251
C           -4.99456951267546       -5.23801304258136        1.35618131230542
C           -4.84217148023323       -5.29676325976843       -1.14396549490606
C            5.84050592856038       -4.10614631786751       -0.67152212011114
C            5.71205609827281       -4.13911993660600        1.83461177204957
C            4.79346142407480       -6.02337658625570        0.50643781975421
C           -1.10033065275598        4.75894418632935        0.16542314787745
C            0.90822393757456        4.57601591122565        1.61080185887502
C            1.13810497060024        4.56539441487824       -0.88492834951022
H            2.34377913497387        2.36139802068492        0.42085145203935
H           -1.96019283979408        2.43550582219650        0.19800930922438
H            4.62755884147498       -1.81717055752585        0.53017644472329
H            2.38621736581780       -5.49658223747735        0.43253663873962
H           -2.35160523588777       -5.40912561496639        0.22785224764031
H           -4.41593814912800       -1.62741625574293        0.10324198468224
H            0.71716005640183        4.21465252568872       -1.82444940531569
H            1.17667597545873        5.65276922945222       -0.90920247779284
H            2.15495575868131        4.19318686897776       -0.80588897059455
H            0.96167074084344        5.66280602452915        1.62810383442793
H            1.91312865446621        4.18312558770727        1.73362059682763
H            0.30734016514337        4.24724867538120        2.45571087291658
H           -1.73982159828226        4.50240840281288        1.00656702829445
H           -0.98303924609783        5.84094449537444        0.15378137957278
H           -1.58816095311597        4.46481630276973       -0.76069001683685
H            6.06741064607368       -3.04410787062312       -0.66554977538497
H            5.32164416817267       -4.34018658087107       -1.59849975642474
H            6.78039412782976       -4.65419601748076       -0.65494950063475
H            4.29436883658142       -6.33746192968153       -0.40698389334256
H            5.76610112310837       -6.51021106437855        0.54198869352080
H            4.21761505977100       -6.36262034576366        1.36408366379585
H            5.93500335933307       -3.07729795119594        1.88242932921141
H            6.64905708212164       -4.68785091646327        1.90394497786909
H            5.09609715381403       -4.39700142883242        2.69331800352684
H           -4.71878712521776       -4.70958263874213       -2.05111090238837
H           -4.03678518976004       -6.02335187179898       -1.09493026369083
H           -5.78385116044321       -5.83845455411580       -1.20948167942562
H           -5.93131670012967       -5.79115390685004        1.32845748968618
H           -4.99653665408622       -4.60290903311367        2.23884103586417
H           -4.18100559230508       -5.95082509551139        1.45126433342537
H           -6.14987907110834       -2.82442794326141        0.86755564081558
H           -6.03297152970421       -2.85374485916966       -0.90254195223123
H           -6.97549853907882       -4.07365964420140       -0.05471999040875
O           -2.27569133846699       -0.14830744304502        0.20915778328755
C           -1.07280226101429        1.90086723863057        6.75434685524522
C           -1.11516822157869        0.51902678579601        6.74386392461464
C            0.09250596501882       -0.18471471223881        6.79570762330649
C            1.35559424666048        0.45955691111273        6.86521691574686
C            1.34542442897499        1.86680136851349        6.87637519914655
C            0.16002596647652        2.57921839252308        6.82035144173761
C            0.06689192755205       -1.58636995082526        6.79251334108254
C            1.25019133544120       -2.30045114665254        6.85515007993593
C            2.47022698326752       -1.57618392654633        6.92286127902223
N            2.50560471420203       -0.23741754910284        6.92627907613029
C           -1.15994556831679       -2.26327863672277        6.74283689813216
C           -1.14049499489031       -3.68239026708309        6.75859729895793
N            0.01229752754612       -4.37456092224147        6.81599710615148
C            1.17765705125120       -3.71805005262257        6.86408688497876
C            2.40462134204155       -4.41462332617045        6.93854903237235
C            3.62075973514156       -3.73964562816280        7.00705924899399
C            3.65267227216630       -2.34337029792332        6.99892775045364
C           -2.34587114505664       -1.52328625968903        6.69405351243351
C           -3.54731612235790       -2.20649438615786        6.65686606573849
C           -3.57146046200654       -3.61495436830556        6.67080034678178
C           -2.38842118556802       -4.33153037715026        6.72063835589989
C            0.22718971391920        4.10360679412325        6.84561872811127
C           -4.88692997539742       -4.38805031409717        6.64008399607014
C            4.94247504853170       -4.49341538882042        7.10703489335171
C           -6.11220498740369       -3.47573012565643        6.54466103701968
C           -5.00989105871740       -5.22207314246341        7.92310503239879
C           -4.89545495879796       -5.32290929163888        5.42271237586852
C            5.84822196787835       -4.08934886855482        5.93652195172095
C            5.62264858723622       -4.13087357357729        8.43411139918830
C            4.75832660474304       -6.01230027369511        7.06191226409685
C           -1.14792480801964        4.76279782697237        6.71373593448327
C            0.84968553310538        4.55410344394438        8.17470395735990
C            1.10097937301788        4.59403413102843        5.68281644955883
H            2.29823922283792        2.36717342983352        6.93303606709245
H           -2.00588695458644        2.43684821717375        6.71447460649165
H            4.58638648286887       -1.80661172450323        7.05535672112673
H            2.35146727779087       -5.48955257235892        6.94503305650857
H           -2.38550376236071       -5.40918123821609        6.73511540044328
H           -4.45675189999963       -1.63108344714578        6.62063227165503
H            0.69692830426685        4.24916022407956        4.73442644193763
H            1.12793539986748        5.68184470938639        5.67099976392863
H            2.12073468561907        4.23192440372536        5.76844000176489
H            0.89843342579708        5.64071194283548        8.21228364072415
H            1.85659789214228        4.16386267212644        8.29060112200197
H            0.24975200743513        4.20696578744080        9.01294795678604
H           -1.79471797031009        4.49206445341671        7.54465190389362