190
 energy: -557.693656186693 gnorm: 0.000309336484 xtb: 6.7.1 (edcfbbe)
 C    1.929000    2.812300    2.112300
 C    1.964400    1.493400    1.664900
 C    2.557000    1.164100    0.412400
 C    2.812600    2.295100   -0.449000
 C    2.643500    3.638700   -0.004300
 C    2.295400    3.862600    1.287500
 C    3.030400   -0.133000   -0.016900
 C    3.758200   -0.124100   -1.233100
 C    3.781500    1.029100   -2.072200
 N    3.284900    2.189000   -1.680400
 C    3.044800   -1.393600    0.705400
 C    4.123000   -2.304200    0.352100
 N    4.781500   -2.241700   -0.788900
 C    4.554800   -1.240800   -1.623800
 C    5.225100   -1.245900   -2.869500
 C    5.114700   -0.150300   -3.688600
 C    4.425900    0.979600   -3.334700
 C    2.132600   -1.929500    1.661700
 C    2.521500   -3.014600    2.457300
 C    3.715500   -3.670900    2.260900
 C    4.501800   -3.392300    1.191900
 O    1.391200    0.598600    2.461400
 O    0.865600   -1.598700    1.832500
 C   -1.095200   -2.318100    3.739500
 C   -1.473800   -1.408400    2.752800
 C   -2.429900   -1.775000    1.772500
 C   -2.977300   -3.107400    1.845700
 C   -2.478300   -4.039800    2.796700
 C   -1.564000   -3.615100    3.706800
 C   -2.960000   -0.899600    0.764400
 C   -4.112600   -1.352000    0.089500
 C   -4.530800   -2.712000    0.208400
 N   -3.942000   -3.549600    1.049100
 C   -2.510600    0.422300    0.404200
 C   -3.521900    1.298500   -0.137100
 N   -4.653200    0.853900   -0.666600
 C   -4.874400   -0.455000   -0.717800
 C   -5.926000   -0.959300   -1.516000
 C   -6.227200   -2.297300   -1.444300
 C   -5.591700   -3.179100   -0.608300
 C   -1.181400    0.918800    0.429400
 C   -0.974500    2.284400    0.254300
 C   -2.032800    3.140100    0.028300
 C   -3.295200    2.702300   -0.205300
 O   -0.858000   -0.227200    2.740400
 O   -0.109200    0.140100    0.541700
 B    0.348800   -0.255600    1.888900
 S    2.361200    5.568400    2.009100
 F    1.455500    5.104100    3.325900
 F    3.728500    5.103600    2.858200
 F    2.506400    6.998100    2.712100
 F    3.381200    6.112200    0.823400
 F    1.113000    6.133400    1.142200
 S    4.138400   -4.947200    3.524600
 F    4.792200   -5.964200    2.392900
 F    5.637600   -4.246700    3.731000
 F    4.555700   -6.007700    4.644200
 F    3.566500   -3.960300    4.727800
 F    2.690000   -5.695000    3.374200
 S    5.977300   -0.181700   -5.326200
 F    4.649600    0.447300   -6.084400
 F    5.423500   -1.709100   -5.634600
 F    6.705800   -0.218700   -6.755700
 F    7.345700   -0.820900   -4.670100
 F    6.570700    1.340000   -5.120100
 S   -0.850200   -4.811400    4.930200
 F   -0.497500   -5.876400    3.714800
 F   -2.341500   -5.503500    5.126100
 F   -0.271300   -5.861500    5.962400
 F   -1.126300   -3.718600    6.163800
 F    0.666600   -4.127500    4.810100
 S   -1.609100    4.935000    0.142300
 F   -2.384100    5.289600   -1.279200
 F   -3.010600    5.229300    0.980500
 F   -1.275900    6.477800    0.289300
 F   -0.823700    4.586300    1.585600
 F   -0.182300    4.723900   -0.683300
 S   -7.611500   -2.925700   -2.497700
 F   -7.049200   -2.066700   -3.797700
 F   -8.600500   -1.677500   -2.119800
 F   -8.771000   -3.488600   -3.457600
 F   -8.231900   -3.857100   -1.298000
 F   -6.685600   -4.215500   -2.981000
 H   -2.854200   -5.047800    2.772600
 H   -5.878600   -4.216200   -0.555100
 H   -6.477700   -0.286000   -2.150200
 H   -0.386700   -1.993600    4.481200
 H    0.025600    2.670500    0.309100
 H    4.393800    1.852000   -3.967200
 H    1.839600   -3.350700    3.216600
 H    5.830800   -2.097600   -3.133300
 H    2.865800    4.426600   -0.702200
 H    5.372900   -3.965200    0.925500
 H   -4.102600    3.350600   -0.496400
 H    1.517400    2.979800    3.090000
 C    0.816400    3.863100    7.605500
 C    1.031700    2.581700    7.075800
 C    2.139600    2.321000    6.218200
 C    2.868200    3.505200    5.798100
 C    2.589300    4.801200    6.314500
 C    1.592600    4.938400    7.222600
 C    2.683600    1.038900    5.820000
 C    3.790700    1.105900    4.935700
 C    4.230600    2.346100    4.380900
 N    3.836900    3.484300    4.907500
 C    2.377700   -0.311200    6.288100
 C    3.495900   -1.240100    6.227100
 N    4.516400   -1.102800    5.408300
 C    4.575600   -0.042900    4.615700
 C    5.491200   -0.014400    3.544600
 C    5.680100    1.175900    2.883300
 C    5.138900    2.361500    3.296100
 C    1.168000   -0.915800    6.728600
 C    1.199300   -2.182800    7.358600
 C    2.346300   -2.938800    7.449400
 C    3.512500   -2.488300    6.918800
 O    0.139800    1.673500    7.414500
 O   -0.060100   -0.504300    6.513000
 C   -2.610300   -1.294900    7.574700
 C   -2.614400   -0.288100    6.606500
 C   -3.276000   -0.488100    5.372100
 C   -3.951200   -1.752700    5.194900
 C   -3.833200   -2.794400    6.159400
 C   -3.190900   -2.521700    7.323700
 C   -3.451300    0.528000    4.363700
 C   -4.539700    0.295300    3.486900
 C   -5.183600   -0.977600    3.443000
 N   -4.793100   -1.996600    4.201000
 C   -2.777800    1.798300    4.226000
 C   -3.523200    2.827800    3.528300
 N   -4.596800    2.588500    2.793800
 C   -5.076700    1.356200    2.700700
 C   -6.240000    1.146400    1.919500
 C   -6.836100   -0.089300    1.941900
 C   -6.327300   -1.159800    2.632900
 C   -1.462100    2.170100    4.628400
 C   -1.065800    3.510700    4.532700
 C   -1.925000    4.509700    4.113500
 C   -3.139800    4.198500    3.596200
 O   -1.974300    0.839700    6.883600
 O   -0.535400    1.327900    5.067400
 B   -0.572800    0.850400    6.462300
 S    1.264300    6.596500    7.967100
 F   -0.360600    6.475000    7.809300
 F    1.126600    5.896200    9.471200
 F    1.031200    8.011700    8.699400
 F    2.887200    6.795200    8.262900
 F    1.454500    7.414100    6.570000
 S    2.246700   -4.628100    8.201200
 F    2.453100   -5.371000    6.762300
 F    3.887200   -4.660900    8.451400
 F    2.208200   -6.071400    8.907000
 F    2.069400   -3.954600    9.705800
 F    0.627500   -4.720800    8.058200
 S    6.665500    1.178200    1.323100
 F    5.429000    1.990200    0.537300
 F    5.939300   -0.257300    0.857100
 F    7.421700    1.139100   -0.098100
 F    7.915900    0.327000    1.968000
 F    7.416400    2.600500    1.641400
 S   -3.055500   -3.784400    8.669900
 F   -2.629900   -5.007300    7.680000
 F   -4.643800   -4.222400    8.477500
 F   -2.973900   -4.823300    9.893100
 F   -3.542100   -2.651400    9.787800
 F   -1.493200   -3.364600    8.984100
 S   -1.491600    6.280000    4.493200
 F   -2.825800    6.867100    3.716300
 F   -2.410400    6.095700    5.869800
 F   -1.199100    7.779600    4.977700
 F   -0.141500    5.821800    5.351200
 F   -0.600800    6.579300    3.168400
 S   -8.473400   -0.316100    1.105000
 F   -7.923300    0.436700   -0.261900
 F   -9.035700    1.130100    1.663500
 F   -9.870600   -0.535800    0.370300
 F   -9.101000   -1.075800    2.427000
 F   -7.973600   -1.787700    0.507100
 H   -4.313300   -3.738300    5.967500
 H   -6.820100   -2.117600    2.643000
 H   -6.670200    1.979900    1.390300
 H   -2.115700   -1.094600    8.510300
 H   -0.067700    3.757800    4.844400
 H    5.351000    3.307400    2.825600
 H    0.263800   -2.555600    7.742000
 H    6.011500   -0.919400    3.276800
 H    3.161200    5.629200    5.932400
 H    4.412900   -3.075500    6.870000
 H   -3.823800    4.928200    3.200400
 H   -0.008500    3.992500    8.287200
