Optimization of monomers started
      -----------------------------------------------------------      
     |                   =====================                   |     
     |                           x T B                           |     
     |                   =====================                   |     
     |                         S. Grimme                         |     
     |          Mulliken Center for Theoretical Chemistry        |     
     |                    University of Bonn                     |     
      -----------------------------------------------------------      

   * xtb version 6.7.1 (edcfbbe) compiled by 'runner@Mac-1732539442253.local' on 2024-11-25

   xtb is free software: you can redistribute it and/or modify it under
   the terms of the GNU Lesser General Public License as published by
   the Free Software Foundation, either version 3 of the License, or
   (at your option) any later version.
   
   xtb is distributed in the hope that it will be useful,
   but WITHOUT ANY WARRANTY; without even the implied warranty of
   MERCHANTABILITY or FITNESS FOR A PARTICULAR PURPOSE.  See the
   GNU Lesser General Public License for more details.
   
   Cite this work as:
   * C. Bannwarth, E. Caldeweyher, S. Ehlert, A. Hansen, P. Pracht,
     J. Seibert, S. Spicher, S. Grimme, WIREs Comput. Mol. Sci., 2020, 11,
     e01493. DOI: 10.1002/wcms.1493
   
   for GFN2-xTB:
   * C. Bannwarth, S. Ehlert and S. Grimme., J. Chem. Theory Comput., 2019,
     15, 1652-1671. DOI: 10.1021/acs.jctc.8b01176
   for GFN1-xTB:
   * S. Grimme, C. Bannwarth, P. Shushkov, J. Chem. Theory Comput., 2017,
     13, 1989-2009. DOI: 10.1021/acs.jctc.7b00118
   for GFN0-xTB:
   * P. Pracht, E. Caldeweyher, S. Ehlert, S. Grimme, ChemRxiv, 2019, preprint.
     DOI: 10.26434/chemrxiv.8326202.v1
   for GFN-FF:
   * S. Spicher and S. Grimme, Angew. Chem. Int. Ed., 2020, 59, 15665-15673.
     DOI: 10.1002/anie.202004239
   
   for ALPB and GBSA implicit solvation:
   * S. Ehlert, M. Stahn, S. Spicher, S. Grimme, J. Chem. Theory Comput.,
     2021, 17, 4250-4261. DOI: 10.1021/acs.jctc.1c00471
   
   for ddCOSMO and CPCM-X implicit solvation:
   * M. Stahn, S. Ehlert, S. Grimme, J. Phys. Chem. A,
     2023, XX, XXXX-XXXX. DOI: 10.1021/acs.jpca.3c04382
   
   for DFT-D4:
   * E. Caldeweyher, C. Bannwarth and S. Grimme, J. Chem. Phys., 2017,
     147, 034112. DOI: 10.1063/1.4993215
   * E. Caldeweyher, S. Ehlert, A. Hansen, H. Neugebauer, S. Spicher,
     C. Bannwarth and S. Grimme, J. Chem. Phys., 2019, 150, 154122.
     DOI: 10.1063/1.5090222
   * E. Caldeweyher, J.-M. Mewes, S. Ehlert and S. Grimme, Phys. Chem. Chem. Phys.
     2020, 22, 8499-8512. DOI: 10.1039/D0CP00502A
   
   for sTDA-xTB:
   * S. Grimme and C. Bannwarth, J. Chem. Phys., 2016, 145, 054103.
     DOI: 10.1063/1.4959605
   
   in the mass-spec context:
   * V. Asgeirsson, C. Bauer and S. Grimme, Chem. Sci., 2017, 8, 4879.
     DOI: 10.1039/c7sc00601b
   * J. Koopman and S. Grimme, ACS Omega 2019, 4, 12, 15120-15133.
     DOI: 10.1021/acsomega.9b02011
   
   for metadynamics refer to:
   * S. Grimme, J. Chem. Theory Comput., 2019, 155, 2847-2862
     DOI: 10.1021/acs.jctc.9b00143
   
   for SPH calculations refer to:
   * S. Spicher and S. Grimme, J. Chem. Theory Comput., 2021, 17, 1701-1714
     DOI: 10.1021/acs.jctc.0c01306
   
   for ONIOM refer to:
   * C. Plett, A. Katbashev, S. Ehlert, S. Grimme, M. Bursch,
     Phys. Chem. Chem. Phys., 2023, 25, 17860-17868. DOI: 10.1039/D3CP02178E
   
   for DIPRO refer to:
   * J. Kohn, N. Gildemeister, S. Grimme, D. Fazzi, A. Hansen,
     J. Chem. Phys., 2023, just accepted.
   
   for PTB refer to:
   * S. Grimme, M. Mueller, A. Hansen, J. Chem. Phys., 2023, 158, 124111.
     DOI: 10.1063/5.0137838
   
   with help from (in alphabetical order)
   P. Atkinson, C. Bannwarth, F. Bohle, G. Brandenburg, E. Caldeweyher
   M. Checinski, S. Dohm, S. Ehlert, S. Ehrlich, I. Gerasimov, C. Hölzer
   A. Katbashev, J. Kohn, J. Koopman, C. Lavigne, S. Lehtola, F. März, M. Müller,
   F. Musil, H. Neugebauer, J. Pisarek, C. Plett, P. Pracht, F. Pultar,
   J. Seibert, P. Shushkov, S. Spicher, M. Stahn, M. Steiner, T. Strunk,
   J. Stückrath, T. Rose, and J. Unsleber
   
 * started run on 2025/02/28 at 12:10:42.567     
   ID    Z sym.   atoms
    1    6 C      1-9, 11, 12, 14-21, 24-35, 42, 43
    2    7 N      10, 13
    3    8 O      22, 23
    4    1 H      36-41, 44-76

           -------------------------------------------------
          |                Calculation Setup                |
           -------------------------------------------------

          program call               : xtb Base3tBu.mol --opt tight --cycles 500 --chrg 0 --uhf 1 --spinpol --tblite
          coordinate file            : Base3tBu.mol
          omp threads                :                     8

Wavefunction read from restart file
repulsion energy          9.7623309485373E-01 Eh
dispersion energy         5.6497307361390E-04 Eh
interaction energy        0.0000000000000E+00 Eh
number of electrons       1.9300000000000E+02 e
integral cutoff           1.7347787504999E+01 bohr

------------------------------------------------------------
  cycle        total energy    energy error   density error
------------------------------------------------------------
      1     -103.2029301976  -1.0417973E+02   4.9701315E-02
      2     -103.2335528670  -3.0622669E-02   4.1627509E-02
      3     -103.3680253921  -1.3447253E-01   2.9033770E-02
      4     -103.3825185604  -1.4493168E-02   2.0868461E-02
      5     -103.4077162722  -2.5197712E-02   1.1088383E-02
      6     -103.4195014674  -1.1785195E-02   6.4064454E-03
      7     -103.4248812247  -5.3797574E-03   3.1886276E-03
      8     -103.4258890937  -1.0078690E-03   2.1639234E-03
      9     -103.4260969110  -2.0781729E-04   1.4286427E-03
     10     -103.4261816300  -8.4718978E-05   9.5441552E-04
     11     -103.4262071030  -2.5472974E-05   6.7989088E-04
     12     -103.4262579745  -5.0871506E-05   3.7028109E-04
     13     -103.4262677925  -9.8180601E-06   2.2952043E-04
     14     -103.4262721159  -4.3233617E-06   1.1341911E-04
     15     -103.4262727169  -6.0098178E-07   7.9489471E-05
     16     -103.4262732162  -4.9933604E-07   4.4011698E-05
     17     -103.4262733238  -1.0757101E-07   2.7099756E-05
     18     -103.4262733905  -6.6700579E-08   1.5464401E-05
------------------------------------------------------------

electronic energy        -1.0440307145841E+02 Eh
total energy             -1.0342627339049E+02 Eh

 total:                                   0.723 sec
 - repulsion                              0.000 sec (  0%)
 - dispersion                             0.006 sec (  0%)
 - coulomb                                0.002 sec (  0%)
 - hamiltonian                            0.014 sec (  1%)
 - scc                                    0.700 sec ( 96%)

      ----------------------------------------------------------- 
     |                   =====================                   |
     |                        A N C O P T                        |
     |                   =====================                   |
     |               Approximate Normal Coordinate               |
     |                Rational Function Optimizer                |
      ----------------------------------------------------------- 
      ----------------------------------------------------------- 
     |                   =====================                   |
     |                        A N C O P T                        |
     |                   =====================                   |
     |               Approximate Normal Coordinate               |
     |                Rational Function Optimizer                |
      ----------------------------------------------------------- 

          ...................................................
          :                      SETUP                      :
          :.................................................:
          :   optimization level             tight          :
          :   max. optcycles                   500          :
          :   ANC micro-cycles                  20          :
          :   degrees of freedom               222          :
          :.................................................:
          :   RF solver                   davidson          :
          :   write xtbopt.log                true          :
          :   linear?                        false          :
          :   energy convergence         0.1000000E-05 Eh   :
          :   grad. convergence          0.8000000E-03 Eh/α :
          :   maxmium RF displ.          1.0000000          :
          :   Hlow (freq-cutoff)         0.1000000E-01      :
          :   Hmax (freq-cutoff)         5.0000000          :
          :   S6 in model hess.         20.0000000          :
          ...................................................

generating ANC from exact Hessian ...
Using Lindh-Hessian (1995)
 Shifting diagonal of input Hessian by    1.0131760126574452E-002
 Lowest  eigenvalues of input Hessian
    0.010000    0.010022    0.010042    0.010077    0.010081    0.000000
    0.010094    0.000000    0.000000    0.000000    0.000000    0.000000
    0.010271    0.010381    0.010445    0.010555    0.010617    0.010783
 Highest eigenvalues
    1.169183    1.169787    1.219763    1.220655    1.407608    2.384335


........................................................................
.............................. CYCLE    1 ..............................
........................................................................
------------------------------------------------------------
  cycle        total energy    energy error   density error
------------------------------------------------------------
      1     -103.4262731764  -1.0440307E+02   3.1755838E-05
      2     -103.4262729653   2.1108171E-07   4.2373545E-05
      3     -103.4262734013  -4.3599051E-07   6.3855173E-06
------------------------------------------------------------

 total:                                   0.151 sec
 * total energy  :  -103.4262734 Eh     change       -0.1085236E-07 Eh
   gradient norm :     0.5456434 Eh/α   predicted     0.0000000E+00 (-100.00%)
   displ. norm   :     0.7928251 α      lambda       -0.3675768E+00
   maximum displ.:     0.3174325 α      in ANC's #103, #105, #143, ...

........................................................................
.............................. CYCLE    2 ..............................
........................................................................
------------------------------------------------------------
  cycle        total energy    energy error   density error
------------------------------------------------------------
      1     -103.7410778772  -1.0471418E+02   1.0029487E-02
      2     -103.7414464074  -3.6853024E-04   6.1474784E-03
      3     -103.7386233060   2.8231014E-03   4.8468283E-03
      4     -103.7418872700  -3.2639640E-03   9.9844698E-04
      5     -103.7419798369  -9.2566810E-05   6.3413866E-04
      6     -103.7420230513  -4.3214415E-05   2.7211984E-04
      7     -103.7420283816  -5.3303375E-06   1.7820224E-04
      8     -103.7420302950  -1.9133757E-06   9.2768055E-05
      9     -103.7420311014  -8.0643780E-07   5.1923464E-05
     10     -103.7420311996  -9.8184884E-08   3.4323129E-05
     11     -103.7420312483  -4.8684939E-08   2.2837728E-05
     12     -103.7420312888  -4.0522011E-08   1.2451844E-05
------------------------------------------------------------

 total:                                   0.598 sec
 * total energy  :  -103.7420313 Eh     change       -0.3157579E+00 Eh
   gradient norm :     0.3700604 Eh/α   predicted    -0.2993304E+00 (  -5.20%)
   displ. norm   :     0.8356385 α      lambda       -0.2836256E+00
   maximum displ.:     0.3714470 α      in ANC's #103, #105, #56, ...

........................................................................
.............................. CYCLE    3 ..............................
........................................................................
------------------------------------------------------------
  cycle        total energy    energy error   density error
------------------------------------------------------------
      1     -103.9801190981  -1.0500398E+02   9.8589446E-03
      2     -103.9802014265  -8.2328415E-05   6.1693455E-03
      3     -103.9773543092   2.8471173E-03   5.1601388E-03
      4     -103.9809534056  -3.5990964E-03   9.0600414E-04
      5     -103.9810678643  -1.1445875E-04   4.6998823E-04
      6     -103.9810905586  -2.2694295E-05   2.5078816E-04
      7     -103.9810950158  -4.4571699E-06   1.4055740E-04
      8     -103.9810952317  -2.1589091E-07   8.2679868E-05
      9     -103.9810957948  -5.6306754E-07   4.7947413E-05
     10     -103.9810958856  -9.0858904E-08   2.8874332E-05
     11     -103.9810959228  -3.7217447E-08   2.0451930E-05
     12     -103.9810959595  -3.6658975E-08   1.0221860E-05
------------------------------------------------------------

 total:                                   0.535 sec
 * total energy  :  -103.9810960 Eh     change       -0.2390647E+00 Eh
   gradient norm :     0.2380499 Eh/α   predicted    -0.2408396E+00 (   0.74%)
   displ. norm   :     0.8486632 α      lambda       -0.1924412E+00
   maximum displ.:     0.3972645 α      in ANC's #103, #105, #56, ...

........................................................................
.............................. CYCLE    4 ..............................
........................................................................
------------------------------------------------------------
  cycle        total energy    energy error   density error
------------------------------------------------------------
      1     -104.1450671276  -1.0525530E+02   8.5074009E-03
      2     -104.1449193704   1.4775729E-04   5.4008021E-03
      3     -104.1428153274   2.1040430E-03   4.6941504E-03
      4     -104.1457769494  -2.9616220E-03   7.3185627E-04
      5     -104.1458575274  -8.0577991E-05   3.2663702E-04
      6     -104.1458630163  -5.4888878E-06   1.9610227E-04
      7     -104.1458641305  -1.1142425E-06   1.1314443E-04
      8     -104.1458648638  -7.3326228E-07   6.1178027E-05
      9     -104.1458649751  -1.1131532E-07   4.1564667E-05
     10     -104.1458650896  -1.1455282E-07   2.0276443E-05
     11     -104.1458651047  -1.5115887E-08   1.2102277E-05
------------------------------------------------------------

 total:                                   0.517 sec
 * total energy  :  -104.1458651 Eh     change       -0.1647691E+00 Eh
   gradient norm :     0.1669998 Eh/α   predicted    -0.1655223E+00 (   0.46%)
   displ. norm   :     0.8482265 α      lambda       -0.1356361E+00
   maximum displ.:     0.4327190 α      in ANC's #56, #103, #105, ...

........................................................................
.............................. CYCLE    5 ..............................
........................................................................
------------------------------------------------------------
  cycle        total energy    energy error   density error
------------------------------------------------------------
      1     -104.2610263241  -1.0546638E+02   7.5609413E-03
      2     -104.2609069334   1.1939068E-04   4.8652468E-03
      3     -104.2595344555   1.3724779E-03   4.0924072E-03
      4     -104.2617277920  -2.1933365E-03   7.2824896E-04
      5     -104.2618077993  -8.0007289E-05   2.8252656E-04
      6     -104.2618107283  -2.9289425E-06   1.7621524E-04
      7     -104.2618112769  -5.4861208E-07   1.0825008E-04
      8     -104.2618121368  -8.5988226E-07   5.2577711E-05
      9     -104.2618122111  -7.4324404E-08   3.5703347E-05
     10     -104.2618123068  -9.5736638E-08   1.5926469E-05
------------------------------------------------------------

 total:                                   0.396 sec
 * total energy  :  -104.2618123 Eh     change       -0.1159472E+00 Eh
   gradient norm :     0.1198854 Eh/α   predicted    -0.1166124E+00 (   0.57%)
   displ. norm   :     0.8513683 α      lambda       -0.9574398E-01
   maximum displ.:     0.5209628 α      in ANC's #56, #103, #105, ...

........................................................................
.............................. CYCLE    6 ..............................
........................................................................
------------------------------------------------------------
  cycle        total energy    energy error   density error
------------------------------------------------------------
      1     -104.3436267752  -1.0563248E+02   6.3600664E-03
      2     -104.3436552069  -2.8431754E-05   4.0180769E-03
      3     -104.3427583370   8.9686991E-04   3.2014601E-03
      4     -104.3441032992  -1.3449622E-03   6.1628049E-04
      5     -104.3441630292  -5.9730038E-05   2.1727542E-04
      6     -104.3441648768  -1.8475651E-06   1.2977827E-04
      7     -104.3441655445  -6.6775532E-07   8.1292525E-05
      8     -104.3441659135  -3.6898778E-07   4.0995147E-05
      9     -104.3441660086  -9.5060571E-08   2.5579238E-05
     10     -104.3441660504  -4.1775692E-08   1.1286917E-05
------------------------------------------------------------

 total:                                   0.434 sec
 * total energy  :  -104.3441661 Eh     change       -0.8235374E-01 Eh
   gradient norm :     0.0884103 Eh/α   predicted    -0.8257102E-01 (   0.26%)
   displ. norm   :     0.8589281 α      lambda       -0.6945229E-01
   maximum displ.:     0.5613552 α      in ANC's #56, #17, #103, ...

........................................................................
.............................. CYCLE    7 ..............................
........................................................................
------------------------------------------------------------
  cycle        total energy    energy error   density error
------------------------------------------------------------
      1     -104.4039750668  -1.0575851E+02   5.0815647E-03
      2     -104.4040510389  -7.5972110E-05   3.0898689E-03
      3     -104.4035364933   5.1454559E-04   2.2447371E-03
      4     -104.4042004678  -6.6397450E-04   4.3173915E-04
      5     -104.4042300837  -2.9615833E-05   1.6904822E-04
      6     -104.4042316873  -1.6035745E-06   9.2178858E-05
      7     -104.4042321019  -4.1461288E-07   5.8839080E-05
      8     -104.4042323008  -1.9891452E-07   3.1003688E-05
      9     -104.4042323506  -4.9819590E-08   1.8668013E-05
------------------------------------------------------------

 total:                                   0.357 sec
 * total energy  :  -104.4042324 Eh     change       -0.6006630E-01 Eh
   gradient norm :     0.0646922 Eh/α   predicted    -0.6034578E-01 (   0.47%)
   displ. norm   :     0.8657659 α      lambda       -0.5137194E-01
   maximum displ.:     0.5406261 α      in ANC's #56, #17, #19, ...

........................................................................
.............................. CYCLE    8 ..............................
........................................................................
------------------------------------------------------------
  cycle        total energy    energy error   density error
------------------------------------------------------------
      1     -104.4482040768  -1.0585103E+02   4.4870413E-03
      2     -104.4482725575  -6.8480699E-05   2.6642392E-03
      3     -104.4480192889   2.5326863E-04   1.5680341E-03
      4     -104.4483220898  -3.0280091E-04   2.9882131E-04
      5     -104.4483320652  -9.9754684E-06   1.6386200E-04
      6     -104.4483344177  -2.3524656E-06   8.4953678E-05
      7     -104.4483347393  -3.2156312E-07   5.4674981E-05
      8     -104.4483349116  -1.7233323E-07   2.6575919E-05
      9     -104.4483349381  -2.6501326E-08   1.6571692E-05
------------------------------------------------------------

 total:                                   0.390 sec
 * total energy  :  -104.4483349 Eh     change       -0.4410259E-01 Eh
   gradient norm :     0.0531643 Eh/α   predicted    -0.4493890E-01 (   1.90%)
   displ. norm   :     0.8902222 α      lambda       -0.4125818E-01
   maximum displ.:     0.4711697 α      in ANC's #56, #17, #18, ...

........................................................................
.............................. CYCLE    9 ..............................
........................................................................
------------------------------------------------------------
  cycle        total energy    energy error   density error
------------------------------------------------------------
      1     -104.4809754826  -1.0593257E+02   4.6684706E-03
      2     -104.4810262307  -5.0748132E-05   2.7904166E-03
      3     -104.4807392800   2.8695078E-04   1.6222403E-03
      4     -104.4810844695  -3.4518955E-04   2.4595771E-04
      5     -104.4810917209  -7.2513564E-06   1.2372298E-04
      6     -104.4810928228  -1.1019100E-06   6.0502689E-05
      7     -104.4810930478  -2.2498308E-07   3.6198616E-05
      8     -104.4810931188  -7.1057173E-08   2.2448703E-05
      9     -104.4810931302  -1.1404367E-08   1.4129698E-05
------------------------------------------------------------

 total:                                   0.426 sec
 * total energy  :  -104.4810931 Eh     change       -0.3275819E-01 Eh
   gradient norm :     0.0567029 Eh/α   predicted    -0.3697757E-01 (  12.88%)
   displ. norm   :     0.8708587 α      lambda       -0.3497187E-01
   maximum displ.:     0.3851222 α      in ANC's #56, #17, #19, ...

........................................................................
.............................. CYCLE   10 ..............................
........................................................................
------------------------------------------------------------
  cycle        total energy    energy error   density error
------------------------------------------------------------
      1     -104.5086329081  -1.0599320E+02   4.7538983E-03
      2     -104.5086821378  -4.9229710E-05   2.8250743E-03
      3     -104.5085128292   1.6930863E-04   1.2132313E-03
      4     -104.5087158484  -2.0301919E-04   1.7641371E-04
      5     -104.5087173729  -1.5245112E-06   1.0093259E-04
      6     -104.5087182196  -8.4670818E-07   4.5683836E-05
      7     -104.5087183611  -1.4149936E-07   2.3760222E-05
      8     -104.5087184015  -4.0428034E-08   1.3528193E-05
------------------------------------------------------------

 total:                                   0.307 sec
 * total energy  :  -104.5087184 Eh     change       -0.2762527E-01 Eh
   gradient norm :     0.0363523 Eh/α   predicted    -0.3074718E-01 (  11.30%)
   displ. norm   :     0.8742310 α      lambda       -0.2636137E-01
   maximum displ.:     0.3862313 α      in ANC's #19, #17, #18, ...

........................................................................
.............................. CYCLE   11 ..............................
........................................................................
------------------------------------------------------------
  cycle        total energy    energy error   density error
------------------------------------------------------------
      1     -104.5290028605  -1.0604812E+02   4.2385595E-03
      2     -104.5290405827  -3.7722173E-05   2.5216114E-03
      3     -104.5288463647   1.9421792E-04   1.1927385E-03
      4     -104.5290639970  -2.1763222E-04   2.7642376E-04
      5     -104.5290760404  -1.2043488E-05   1.0527541E-04
      6     -104.5290768129  -7.7245186E-07   3.8499273E-05
      7     -104.5290768808  -6.7919316E-08   2.2195171E-05
      8     -104.5290769145  -3.3645421E-08   1.2536494E-05
------------------------------------------------------------

 total:                                   0.296 sec
 * total energy  :  -104.5290769 Eh     change       -0.2035851E-01 Eh
   gradient norm :     0.0470805 Eh/α   predicted    -0.2325442E-01 (  14.22%)
   displ. norm   :     0.8527970 α      lambda       -0.2433961E-01
   maximum displ.:     0.4109904 α      in ANC's #17, #19, #18, ...

........................................................................
.............................. CYCLE   12 ..............................
........................................................................
------------------------------------------------------------
  cycle        total energy    energy error   density error
------------------------------------------------------------
      1     -104.5469495570  -1.0610101E+02   3.9902527E-03
      2     -104.5469867647  -3.7207741E-05   2.3717398E-03
      3     -104.5468660668   1.2069791E-04   9.4450165E-04
      4     -104.5470064370  -1.4037019E-04   1.9552736E-04
      5     -104.5470109576  -4.5205962E-06   9.8869448E-05
      6     -104.5470119122  -9.5459006E-07   3.8694641E-05
      7     -104.5470120125  -1.0025254E-07   1.8226102E-05
------------------------------------------------------------

 total:                                   0.304 sec
 * total energy  :  -104.5470120 Eh     change       -0.1793510E-01 Eh
   gradient norm :     0.0331079 Eh/α   predicted    -0.2102047E-01 (  17.20%)
   displ. norm   :     0.8229859 α      lambda       -0.1684371E-01
   maximum displ.:     0.3653423 α      in ANC's #17, #19, #18, ...

........................................................................
.............................. CYCLE   13 ..............................
........................................................................
------------------------------------------------------------
  cycle        total energy    energy error   density error
------------------------------------------------------------
      1     -104.5595046110  -1.0613022E+02   3.4636973E-03
      2     -104.5595228219  -1.8210878E-05   2.0410571E-03
      3     -104.5594713005   5.1521421E-05   6.1536338E-04
      4     -104.5595299183  -5.8617786E-05   1.5950104E-04
      5     -104.5595317629  -1.8445859E-06   8.7701185E-05
      6     -104.5595327681  -1.0052619E-06   2.7331745E-05
      7     -104.5595328246  -5.6457139E-08   1.5598408E-05
------------------------------------------------------------

 total:                                   0.460 sec
 * total energy  :  -104.5595328 Eh     change       -0.1252081E-01 Eh
   gradient norm :     0.0317120 Eh/α   predicted    -0.1412602E-01 (  12.82%)
   displ. norm   :     0.8179457 α      lambda       -0.1575786E-01
   maximum displ.:     0.3784763 α      in ANC's #19, #17, #15, ...

........................................................................
.............................. CYCLE   14 ..............................
........................................................................
------------------------------------------------------------
  cycle        total energy    energy error   density error
------------------------------------------------------------
      1     -104.5688868325  -1.0615166E+02   4.1218310E-03
      2     -104.5689147937  -2.7961263E-05   2.4427151E-03
      3     -104.5688584605   5.6333198E-05   6.8652442E-04
      4     -104.5689229380  -6.4477439E-05   1.6013537E-04
      5     -104.5689253475  -2.4095397E-06   8.6371519E-05
      6     -104.5689261384  -7.9089114E-07   3.4349885E-05
      7     -104.5689262312  -9.2795588E-08   1.5147373E-05
------------------------------------------------------------

 total:                                   0.322 sec
 * total energy  :  -104.5689262 Eh     change       -0.9393407E-02 Eh
   gradient norm :     0.0379442 Eh/α   predicted    -0.1315022E-01 (  39.99%)
   displ. norm   :     0.6978553 α      lambda       -0.1079597E-01
   maximum displ.:     0.2886193 α      in ANC's #19, #15, #17, ...

........................................................................
.............................. CYCLE   15 ..............................
........................................................................
------------------------------------------------------------
  cycle        total energy    energy error   density error
------------------------------------------------------------
      1     -104.5750864097  -1.0617635E+02   3.5865512E-03
      2     -104.5751081242  -2.1714495E-05   2.1055411E-03
      3     -104.5750442613   6.3862900E-05   5.5019496E-04
      4     -104.5751154297  -7.1168363E-05   1.6775760E-04
      5     -104.5751186447  -3.2150268E-06   8.1608145E-05
      6     -104.5751191573  -5.1262616E-07   3.1131056E-05
      7     -104.5751192060  -4.8691035E-08   1.6364485E-05
------------------------------------------------------------

 total:                                   0.248 sec
 * total energy  :  -104.5751192 Eh     change       -0.6192975E-02 Eh
   gradient norm :     0.0361988 Eh/α   predicted    -0.8026820E-02 (  29.61%)
   displ. norm   :     0.6565192 α      lambda       -0.8892756E-02
   maximum displ.:     0.3057740 α      in ANC's #15, #19, #17, ...

........................................................................
.............................. CYCLE   16 ..............................
........................................................................
------------------------------------------------------------
  cycle        total energy    energy error   density error
------------------------------------------------------------
      1     -104.5792667445  -1.0618141E+02   3.5381570E-03
      2     -104.5792889371  -2.2192586E-05   2.0684389E-03
      3     -104.5791770699   1.1186715E-04   7.9366643E-04
      4     -104.5793034408  -1.2637093E-04   1.5835702E-04
      5     -104.5793053214  -1.8805241E-06   7.4708224E-05
      6     -104.5793058363  -5.1496544E-07   2.8571480E-05
      7     -104.5793059336  -9.7287838E-08   1.1295600E-05
------------------------------------------------------------

 total:                                   0.313 sec
 * total energy  :  -104.5793059 Eh     change       -0.4186728E-02 Eh
   gradient norm :     0.0256422 Eh/α   predicted    -0.6362844E-02 (  51.98%)
   displ. norm   :     0.5416101 α      lambda       -0.4859163E-02
   maximum displ.:     0.2747506 α      in ANC's #15, #19, #22, ...

........................................................................
.............................. CYCLE   17 ..............................
........................................................................
------------------------------------------------------------
  cycle        total energy    energy error   density error
------------------------------------------------------------
      1     -104.5816356950  -1.0618794E+02   3.0488191E-03
      2     -104.5816519723  -1.6277298E-05   1.7780645E-03
      3     -104.5816116786   4.0293720E-05   5.4381872E-04
      4     -104.5816593852  -4.7706583E-05   1.2719267E-04
      5     -104.5816597694  -3.8421378E-07   6.9946556E-05
      6     -104.5816605062  -7.3673131E-07   2.0622108E-05
      7     -104.5816605572  -5.1005742E-08   8.7713417E-06
------------------------------------------------------------

 total:                                   0.282 sec
 * total energy  :  -104.5816606 Eh     change       -0.2354624E-02 Eh
   gradient norm :     0.0263011 Eh/α   predicted    -0.3142281E-02 (  33.45%)
   displ. norm   :     0.5109496 α      lambda       -0.4609267E-02
   maximum displ.:     0.2353498 α      in ANC's #15, #19, #22, ...

........................................................................
.............................. CYCLE   18 ..............................
........................................................................
------------------------------------------------------------
  cycle        total energy    energy error   density error
------------------------------------------------------------
      1     -104.5827615233  -1.0620364E+02   2.9448239E-03
      2     -104.5827768759  -1.5352666E-05   1.7497679E-03
      3     -104.5827037143   7.3161678E-05   6.4496206E-04
      4     -104.5827839395  -8.0225284E-05   1.4236294E-04
      5     -104.5827866914  -2.7518139E-06   6.0431416E-05
      6     -104.5827870252  -3.3380076E-07   2.6146535E-05
      7     -104.5827870559  -3.0794965E-08   1.2185967E-05
------------------------------------------------------------

 total:                                   0.241 sec
 * total energy  :  -104.5827871 Eh     change       -0.1126499E-02 Eh
   gradient norm :     0.0319932 Eh/α   predicted    -0.2906303E-02 ( 157.99%)
   displ. norm   :     0.2774178 α      lambda       -0.2793392E-02
   maximum displ.:     0.1326654 α      in ANC's #15, #12, #19, ...

........................................................................
.............................. CYCLE   19 ..............................
........................................................................
------------------------------------------------------------
  cycle        total energy    energy error   density error
------------------------------------------------------------
      1     -104.5841841385  -1.0620438E+02   2.0090223E-03
      2     -104.5841919848  -7.8463674E-06   1.1897640E-03
      3     -104.5841760344   1.5950394E-05   3.2448948E-04
      4     -104.5841946822  -1.8647749E-05   8.5309669E-05
      5     -104.5841952101  -5.2787495E-07   4.2120834E-05
      6     -104.5841953674  -1.5733170E-07   1.8410415E-05
------------------------------------------------------------

 total:                                   0.248 sec
 * total energy  :  -104.5841954 Eh     change       -0.1408311E-02 Eh
   gradient norm :     0.0157392 Eh/α   predicted    -0.1504192E-02 (   6.81%)
   displ. norm   :     0.3231610 α      lambda       -0.1952725E-02
   maximum displ.:     0.1269083 α      in ANC's #15, #12, #7, ...

........................................................................
.............................. CYCLE   20 ..............................
........................................................................
------------------------------------------------------------
  cycle        total energy    energy error   density error
------------------------------------------------------------
      1     -104.5843102995  -1.0620193E+02   2.4758517E-03
      2     -104.5843184695  -8.1699915E-06   1.4660810E-03
      3     -104.5842215868   9.6882733E-05   6.8757276E-04
      4     -104.5843286444  -1.0705766E-04   1.0786362E-04
      5     -104.5843297716  -1.1272228E-06   4.9042724E-05
      6     -104.5843299350  -1.6334836E-07   2.3465428E-05
      7     -104.5843300047  -6.9734469E-08   1.0041859E-05
------------------------------------------------------------

 total:                                   0.301 sec
 * total energy  :  -104.5843300 Eh     change       -0.1346373E-03 Eh
   gradient norm :     0.0247544 Eh/α   predicted    -0.1078329E-02 ( 700.91%)
   displ. norm   :     0.2126966 α      lambda       -0.1754670E-02
   maximum displ.:     0.0604559 α      in ANC's #15, #59, #17, ...
 * RMSD in coord.:     1.2325152 α      energy gain  -0.1158057E+01 Eh

generating ANC from exact Hessian ...
Using Lindh-Hessian (1995)
 Shifting diagonal of input Hessian by    9.8608979313671661E-003
 Lowest  eigenvalues of input Hessian
    0.000000    0.000000    0.000000    0.000000    0.000000    0.000000
    0.010000    0.010129    0.010209    0.010325    0.010414    0.010523
    0.011096    0.011142    0.011412    0.011527    0.011667    0.012502
 Highest eigenvalues
    1.995750    2.030410    2.044082    2.100562    2.201585    2.208973


........................................................................
.............................. CYCLE   21 ..............................
........................................................................
------------------------------------------------------------
  cycle        total energy    energy error   density error
------------------------------------------------------------
      1     -104.5852040427  -1.0620497E+02   1.8903511E-03
      2     -104.5852078770  -3.8342257E-06   1.1088905E-03
      3     -104.5851264100   8.1466929E-05   6.8195670E-04
      4     -104.5852186468  -9.2236755E-05   1.0822181E-04
      5     -104.5852197426  -1.0958245E-06   5.2409611E-05
      6     -104.5852200501  -3.0746737E-07   1.3652829E-05
------------------------------------------------------------

 total:                                   0.244 sec
 * total energy  :  -104.5852201 Eh     change       -0.8900454E-03 Eh
   gradient norm :     0.0141285 Eh/α   predicted     0.0000000E+00 (-100.00%)
   displ. norm   :     0.1733835 α      lambda       -0.8022740E-03
   maximum displ.:     0.0629603 α      in ANC's #7, #18, #11, ...

........................................................................
.............................. CYCLE   22 ..............................
........................................................................
------------------------------------------------------------
  cycle        total energy    energy error   density error
------------------------------------------------------------
      1     -104.5858200019  -1.0620653E+02   1.0300418E-03
      2     -104.5858222954  -2.2934880E-06   6.0963724E-04
      3     -104.5858177264   4.5689890E-06   1.7815902E-04
      4     -104.5858229442  -5.2178096E-06   4.9650177E-05
      5     -104.5858231740  -2.2976442E-07   2.5143351E-05
      6     -104.5858232322  -5.8264618E-08   1.1035520E-05
------------------------------------------------------------

 total:                                   0.209 sec
 * total energy  :  -104.5858232 Eh     change       -0.6031822E-03 Eh
   gradient norm :     0.0054409 Eh/α   predicted    -0.4131989E-03 ( -31.50%)
   displ. norm   :     0.3368068 α      lambda       -0.7525525E-03
   maximum displ.:     0.1323958 α      in ANC's #7, #11, #6, ...

........................................................................
.............................. CYCLE   23 ..............................
........................................................................
------------------------------------------------------------
  cycle        total energy    energy error   density error
------------------------------------------------------------
      1     -104.5863553759  -1.0620631E+02   1.4031097E-03
      2     -104.5863595876  -4.2116647E-06   8.4371859E-04
      3     -104.5863299946   2.9593003E-05   4.0908421E-04
      4     -104.5863631519  -3.3157301E-05   6.9885011E-05
      5     -104.5863635461  -3.9420324E-07   3.9260964E-05
      6     -104.5863637017  -1.5564416E-07   1.7014150E-05
------------------------------------------------------------

 total:                                   0.290 sec
 * total energy  :  -104.5863637 Eh     change       -0.5404695E-03 Eh
   gradient norm :     0.0060116 Eh/α   predicted    -0.4189888E-03 ( -22.48%)
   displ. norm   :     0.3715739 α      lambda       -0.4997698E-03
   maximum displ.:     0.1527959 α      in ANC's #7, #6, #11, ...

........................................................................
.............................. CYCLE   24 ..............................
........................................................................
------------------------------------------------------------
  cycle        total energy    energy error   density error
------------------------------------------------------------
      1     -104.5867377969  -1.0620479E+02   1.2623396E-03
      2     -104.5867400110  -2.2141098E-06   7.6933180E-04
      3     -104.5867033243   3.6686712E-05   4.5582112E-04
      4     -104.5867443074  -4.0983036E-05   5.7486845E-05
      5     -104.5867445805  -2.7318877E-07   3.3315137E-05
      6     -104.5867446957  -1.1514052E-07   1.3796813E-05
------------------------------------------------------------

 total:                                   0.250 sec
 * total energy  :  -104.5867447 Eh     change       -0.3809940E-03 Eh
   gradient norm :     0.0092019 Eh/α   predicted    -0.2843863E-03 ( -25.36%)
   displ. norm   :     0.4019570 α      lambda       -0.4823559E-03
   maximum displ.:     0.1711384 α      in ANC's #6, #7, #8, ...

........................................................................
.............................. CYCLE   25 ..............................
........................................................................
------------------------------------------------------------
  cycle        total energy    energy error   density error
------------------------------------------------------------
      1     -104.5871180887  -1.0620413E+02   1.2234736E-03
      2     -104.5871194180  -1.3293058E-06   7.4128644E-04
      3     -104.5870874859   3.1932163E-05   4.2448105E-04
      4     -104.5871228811  -3.5395250E-05   5.0557099E-05
      5     -104.5871231386  -2.5754005E-07   2.7955051E-05
      6     -104.5871232089  -7.0247793E-08   1.1555720E-05
------------------------------------------------------------

 total:                                   0.267 sec
 * total energy  :  -104.5871232 Eh     change       -0.3785132E-03 Eh
   gradient norm :     0.0079721 Eh/α   predicted    -0.2801464E-03 ( -25.99%)
   displ. norm   :     0.4184251 α      lambda       -0.4407456E-03
   maximum displ.:     0.1954781 α      in ANC's #6, #7, #1, ...

........................................................................
.............................. CYCLE   26 ..............................
........................................................................
------------------------------------------------------------
  cycle        total energy    energy error   density error
------------------------------------------------------------
      1     -104.5874475997  -1.0620508E+02   1.2513564E-03
      2     -104.5874488185  -1.2188647E-06   7.4847224E-04
      3     -104.5874179386   3.0879921E-05   4.0805070E-04
      4     -104.5874520024  -3.4063771E-05   5.3652486E-05
      5     -104.5874522394  -2.3702169E-07   2.9435922E-05
      6     -104.5874523265  -8.7125670E-08   1.0544056E-05
------------------------------------------------------------

 total:                                   0.223 sec
 * total energy  :  -104.5874523 Eh     change       -0.3291176E-03 Eh
   gradient norm :     0.0042281 Eh/α   predicted    -0.2589567E-03 ( -21.32%)
   displ. norm   :     0.4364443 α      lambda       -0.2839479E-03
   maximum displ.:     0.2167370 α      in ANC's #6, #1, #7, ...

........................................................................
.............................. CYCLE   27 ..............................
........................................................................
------------------------------------------------------------
  cycle        total energy    energy error   density error
------------------------------------------------------------
      1     -104.5876599333  -1.0620550E+02   1.3062266E-03
      2     -104.5876609762  -1.0428070E-06   7.7839350E-04
      3     -104.5876347272   2.6248966E-05   3.6254591E-04
      4     -104.5876633563  -2.8629162E-05   5.2298642E-05
      5     -104.5876635110  -1.5469621E-07   2.8615966E-05
      6     -104.5876636072  -9.6194228E-08   8.9988725E-06
------------------------------------------------------------

 total:                                   0.236 sec
 * total energy  :  -104.5876636 Eh     change       -0.2112807E-03 Eh
   gradient norm :     0.0050442 Eh/α   predicted    -0.1690223E-03 ( -20.00%)
   displ. norm   :     0.3742558 α      lambda       -0.2555423E-03
   maximum displ.:     0.2022867 α      in ANC's #6, #1, #8, ...

........................................................................
.............................. CYCLE   28 ..............................
........................................................................
------------------------------------------------------------
  cycle        total energy    energy error   density error
------------------------------------------------------------
      1     -104.5878266265  -1.0620889E+02   1.0718035E-03
      2     -104.5878277813  -1.1548593E-06   6.2623169E-04
      3     -104.5878177236   1.0057742E-05   2.2726779E-04
      4     -104.5878285967  -1.0873098E-05   5.9351779E-05
      5     -104.5878289074  -3.1073652E-07   2.4036047E-05
      6     -104.5878289652  -5.7772908E-08   7.5107302E-06
------------------------------------------------------------

 total:                                   0.343 sec
 * total energy  :  -104.5878290 Eh     change       -0.1653580E-03 Eh
   gradient norm :     0.0055181 Eh/α   predicted    -0.1456696E-03 ( -11.91%)
   displ. norm   :     0.4365345 α      lambda       -0.2054947E-03
   maximum displ.:     0.2413179 α      in ANC's #6, #1, #8, ...

........................................................................
.............................. CYCLE   29 ..............................
........................................................................
------------------------------------------------------------
  cycle        total energy    energy error   density error
------------------------------------------------------------
      1     -104.5879746008  -1.0620892E+02   1.2653065E-03
      2     -104.5879755016  -9.0073229E-07   7.5190487E-04
      3     -104.5879661049   9.3966738E-06   2.1209442E-04
      4     -104.5879763995  -1.0294556E-05   4.4191837E-05
      5     -104.5879764455  -4.6010612E-08   2.2667746E-05
      6     -104.5879765223  -7.6876162E-08   8.6395879E-06
------------------------------------------------------------

 total:                                   0.299 sec
 * total energy  :  -104.5879765 Eh     change       -0.1475572E-03 Eh
   gradient norm :     0.0048676 Eh/α   predicted    -0.1223284E-03 ( -17.10%)
   displ. norm   :     0.2811017 α      lambda       -0.1550501E-03
   maximum displ.:     0.1662354 α      in ANC's #6, #1, #3, ...

........................................................................
.............................. CYCLE   30 ..............................
........................................................................
------------------------------------------------------------
  cycle        total energy    energy error   density error
------------------------------------------------------------
      1     -104.5881062230  -1.0621024E+02   7.6015518E-04
      2     -104.5881066251  -4.0208974E-07   4.5059942E-04
      3     -104.5881035696   3.0555058E-06   1.2434276E-04
      4     -104.5881068547  -3.2850879E-06   3.1451411E-05
      5     -104.5881069397  -8.5063462E-08   1.2693099E-05
------------------------------------------------------------

 total:                                   0.261 sec
 * total energy  :  -104.5881069 Eh     change       -0.1304174E-03 Eh
   gradient norm :     0.0029765 Eh/α   predicted    -0.8365183E-04 ( -35.86%)
   displ. norm   :     0.3867809 α      lambda       -0.2033638E-03
   maximum displ.:     0.2321474 α      in ANC's #6, #1, #3, ...

........................................................................
.............................. CYCLE   31 ..............................
........................................................................
------------------------------------------------------------
  cycle        total energy    energy error   density error
------------------------------------------------------------
      1     -104.5882674787  -1.0621093E+02   1.0182509E-03
      2     -104.5882685527  -1.0739749E-06   6.0418093E-04
      3     -104.5882625148   6.0378951E-06   1.7181151E-04
      4     -104.5882692496  -6.7347796E-06   3.4060224E-05
      5     -104.5882693219  -7.2327026E-08   2.3108513E-05
      6     -104.5882693754  -5.3514825E-08   8.7963182E-06
------------------------------------------------------------

 total:                                   0.258 sec
 * total energy  :  -104.5882694 Eh     change       -0.1624357E-03 Eh
   gradient norm :     0.0028745 Eh/α   predicted    -0.1168943E-03 ( -28.04%)
   displ. norm   :     0.4383335 α      lambda       -0.1759068E-03
   maximum displ.:     0.2650899 α      in ANC's #6, #1, #3, ...

........................................................................
.............................. CYCLE   32 ..............................
........................................................................
------------------------------------------------------------
  cycle        total energy    energy error   density error
------------------------------------------------------------
      1     -104.5884133955  -1.0620996E+02   1.1222618E-03
      2     -104.5884143012  -9.0569488E-07   6.6513978E-04
      3     -104.5884124951   1.8060902E-06   1.0814969E-04
      4     -104.5884145904  -2.0952786E-06   3.3096381E-05
      5     -104.5884146359  -4.5509552E-08   2.3329135E-05
      6     -104.5884147066  -7.0691499E-08   8.0226103E-06
------------------------------------------------------------

 total:                                   0.485 sec
 * total energy  :  -104.5884147 Eh     change       -0.1453312E-03 Eh
   gradient norm :     0.0038315 Eh/α   predicted    -0.1048544E-03 ( -27.85%)
   displ. norm   :     0.3912038 α      lambda       -0.1562239E-03
   maximum displ.:     0.2304221 α      in ANC's #6, #1, #3, ...

........................................................................
.............................. CYCLE   33 ..............................
........................................................................
------------------------------------------------------------
  cycle        total energy    energy error   density error
------------------------------------------------------------
      1     -104.5885457648  -1.0620914E+02   9.8353911E-04
      2     -104.5885465334  -7.6861114E-07   5.8181900E-04
      3     -104.5885449115   1.6219108E-06   1.0201949E-04
      4     -104.5885468040  -1.8925007E-06   3.2880532E-05
      5     -104.5885468675  -6.3503464E-08   1.4650535E-05
------------------------------------------------------------

 total:                                   0.292 sec
 * total energy  :  -104.5885469 Eh     change       -0.1321609E-03 Eh
   gradient norm :     0.0044415 Eh/α   predicted    -0.9007193E-04 ( -31.85%)
   displ. norm   :     0.4215087 α      lambda       -0.1656587E-03
   maximum displ.:     0.2451680 α      in ANC's #6, #1, #3, ...

........................................................................
.............................. CYCLE   34 ..............................
........................................................................
------------------------------------------------------------
  cycle        total energy    energy error   density error
------------------------------------------------------------
      1     -104.5886837915  -1.0620799E+02   1.0504460E-03
      2     -104.5886847265  -9.3499439E-07   6.2017141E-04
      3     -104.5886797216   5.0049750E-06   1.7960293E-04
      4     -104.5886852510  -5.5294298E-06   4.7084823E-05
      5     -104.5886853513  -1.0026108E-07   2.4760544E-05
      6     -104.5886854552  -1.0391447E-07   7.4559739E-06
------------------------------------------------------------

 total:                                   0.278 sec
 * total energy  :  -104.5886855 Eh     change       -0.1385877E-03 Eh
   gradient norm :     0.0036769 Eh/α   predicted    -0.9754650E-04 ( -29.61%)
   displ. norm   :     0.4502440 α      lambda       -0.1660532E-03
   maximum displ.:     0.2576657 α      in ANC's #1, #6, #3, ...

........................................................................
.............................. CYCLE   35 ..............................
........................................................................
------------------------------------------------------------
  cycle        total energy    energy error   density error
------------------------------------------------------------
      1     -104.5888099987  -1.0620730E+02   1.1676014E-03
      2     -104.5888110669  -1.0681299E-06   6.8905224E-04
      3     -104.5887940726   1.6994231E-05   2.9506158E-04
      4     -104.5888127998  -1.8727107E-05   5.3722005E-05
      5     -104.5888128737  -7.3921214E-08   2.9885292E-05
      6     -104.5888130212  -1.4748983E-07   9.4146410E-06
------------------------------------------------------------

 total:                                   0.268 sec
 * total energy  :  -104.5888130 Eh     change       -0.1275660E-03 Eh
   gradient norm :     0.0034014 Eh/α   predicted    -0.9986042E-04 ( -21.72%)
   displ. norm   :     0.3795667 α      lambda       -0.1083799E-03
   maximum displ.:     0.2258188 α      in ANC's #1, #6, #3, ...

........................................................................
.............................. CYCLE   36 ..............................
........................................................................
------------------------------------------------------------
  cycle        total energy    energy error   density error
------------------------------------------------------------
      1     -104.5888905376  -1.0620716E+02   9.6018714E-04
      2     -104.5888915066  -9.6898509E-07   5.6633748E-04
      3     -104.5888809780   1.0528552E-05   2.3705939E-04
      4     -104.5888924525  -1.1474507E-05   4.9596626E-05
      5     -104.5888926206  -1.6805730E-07   2.3298758E-05
      6     -104.5888926937  -7.3075327E-08   8.7446186E-06
------------------------------------------------------------

 total:                                   0.259 sec
 * total energy  :  -104.5888927 Eh     change       -0.7967249E-04 Eh
   gradient norm :     0.0024145 Eh/α   predicted    -0.6200141E-04 ( -22.18%)
   displ. norm   :     0.2599429 α      lambda       -0.6815884E-04
   maximum displ.:     0.1582745 α      in ANC's #1, #6, #3, ...

........................................................................
.............................. CYCLE   37 ..............................
........................................................................
------------------------------------------------------------
  cycle        total energy    energy error   density error
------------------------------------------------------------
      1     -104.5889395664  -1.0620866E+02   7.2738887E-04
      2     -104.5889399644  -3.9803777E-07   4.2881678E-04
      3     -104.5889326253   7.3391033E-06   1.9023624E-04
      4     -104.5889406412  -8.0158738E-06   3.6156687E-05
      5     -104.5889407074  -6.6211214E-08   1.6484611E-05
------------------------------------------------------------

 total:                                   0.233 sec
 * total energy  :  -104.5889407 Eh     change       -0.4801377E-04 Eh
   gradient norm :     0.0021173 Eh/α   predicted    -0.3638581E-04 ( -24.22%)
   displ. norm   :     0.2376348 α      lambda       -0.4840809E-04
   maximum displ.:     0.1505088 α      in ANC's #1, #6, #3, ...

........................................................................
.............................. CYCLE   38 ..............................
........................................................................
------------------------------------------------------------
  cycle        total energy    energy error   density error
------------------------------------------------------------
      1     -104.5889759414  -1.0620925E+02   6.0449791E-04
      2     -104.5889766353  -6.9389674E-07   3.5955862E-04
      3     -104.5889701520   6.4832791E-06   1.7755585E-04
      4     -104.5889775841  -7.4320746E-06   2.6734723E-05
      5     -104.5889776503  -6.6192896E-08   1.4922759E-05
------------------------------------------------------------

 total:                                   0.188 sec
 * total energy  :  -104.5889777 Eh     change       -0.3694284E-04 Eh
   gradient norm :     0.0015820 Eh/α   predicted    -0.2557131E-04 ( -30.78%)
   displ. norm   :     0.2641571 α      lambda       -0.4055784E-04
   maximum displ.:     0.1701391 α      in ANC's #1, #3, #6, ...

........................................................................
.............................. CYCLE   39 ..............................
........................................................................
------------------------------------------------------------
  cycle        total energy    energy error   density error
------------------------------------------------------------
      1     -104.5890207166  -1.0621085E+02   7.1004937E-04
      2     -104.5890214479  -7.3126677E-07   4.2332059E-04
      3     -104.5890160541   5.3937398E-06   1.8874476E-04
      4     -104.5890221050  -6.0508901E-06   3.5949601E-05
      5     -104.5890222483  -1.4328369E-07   1.5188899E-05
------------------------------------------------------------

 total:                                   0.233 sec
 * total energy  :  -104.5890222 Eh     change       -0.4459803E-04 Eh
   gradient norm :     0.0020569 Eh/α   predicted    -0.2091186E-04 ( -53.11%)
   displ. norm   :     0.1705678 α      lambda       -0.3722103E-04
   maximum displ.:     0.1093555 α      in ANC's #1, #3, #11, ...

........................................................................
.............................. CYCLE   40 ..............................
........................................................................
------------------------------------------------------------
  cycle        total energy    energy error   density error
------------------------------------------------------------
      1     -104.5890539213  -1.0621057E+02   4.6323206E-04
      2     -104.5890540993  -1.7801031E-07   2.7719001E-04
      3     -104.5890488871   5.2122570E-06   1.5973433E-04
      4     -104.5890546607  -5.7736388E-06   2.1577313E-05
      5     -104.5890547150  -5.4280861E-08   1.1431112E-05
------------------------------------------------------------

 total:                                   0.208 sec
 * total energy  :  -104.5890547 Eh     change       -0.3246672E-04 Eh
   gradient norm :     0.0019923 Eh/α   predicted    -0.1915626E-04 ( -41.00%)
   displ. norm   :     0.3947850 α      lambda       -0.6791075E-04
   maximum displ.:     0.2449520 α      in ANC's #1, #11, #3, ...

........................................................................
.............................. CYCLE   41 ..............................
........................................................................
------------------------------------------------------------
  cycle        total energy    energy error   density error
------------------------------------------------------------
      1     -104.5891263225  -1.0621111E+02   1.1028211E-03
      2     -104.5891270460  -7.2348681E-07   6.5878696E-04
      3     -104.5891189996   8.0463763E-06   1.9519659E-04
      4     -104.5891278770  -8.8773971E-06   3.5329611E-05
      5     -104.5891279004  -2.3354389E-08   2.1624475E-05
      6     -104.5891279705  -7.0068168E-08   7.5745834E-06
------------------------------------------------------------

 total:                                   0.361 sec
 * total energy  :  -104.5891280 Eh     change       -0.7325545E-04 Eh
   gradient norm :     0.0028600 Eh/α   predicted    -0.3631005E-04 ( -50.43%)
   displ. norm   :     0.2572709 α      lambda       -0.5642670E-04
   maximum displ.:     0.1584804 α      in ANC's #1, #11, #3, ...

........................................................................
.............................. CYCLE   42 ..............................
........................................................................
------------------------------------------------------------
  cycle        total energy    energy error   density error
------------------------------------------------------------
      1     -104.5891752445  -1.0621015E+02   7.1873878E-04
      2     -104.5891756005  -3.5603796E-07   4.3117877E-04
      3     -104.5891712277   4.3728510E-06   1.4590243E-04
      4     -104.5891760069  -4.7792102E-06   2.7192166E-05
      5     -104.5891760492  -4.2336552E-08   1.4254165E-05
------------------------------------------------------------

 total:                                   0.179 sec
 * total energy  :  -104.5891760 Eh     change       -0.4807874E-04 Eh
   gradient norm :     0.0029792 Eh/α   predicted    -0.3008417E-04 ( -37.43%)
   displ. norm   :     0.4390609 α      lambda       -0.1073384E-03
   maximum displ.:     0.2620426 α      in ANC's #1, #11, #2, ...
 * RMSD in coord.:     0.7249614 α      energy gain  -0.4846044E-02 Eh

generating ANC from exact Hessian ...
Using Lindh-Hessian (1995)
 Shifting diagonal of input Hessian by    9.8518062298967243E-003
 Lowest  eigenvalues of input Hessian
    0.000000    0.000000    0.000000    0.000000    0.000000    0.000000
    0.010000    0.010118    0.010192    0.010314    0.010413    0.010530
    0.010964    0.011145    0.011366    0.011567    0.011610    0.012644
 Highest eigenvalues
    1.994972    2.029371    2.052237    2.110844    2.201964    2.208725


........................................................................
.............................. CYCLE   43 ..............................
........................................................................
------------------------------------------------------------
  cycle        total energy    energy error   density error
------------------------------------------------------------
      1     -104.5892592672  -1.0620945E+02   1.2244136E-03
      2     -104.5892605215  -1.2542587E-06   7.3755105E-04
      3     -104.5892402735   2.0247948E-05   3.2535568E-04
      4     -104.5892626302  -2.2356655E-05   4.4450363E-05
      5     -104.5892627472  -1.1698839E-07   2.8431703E-05
      6     -104.5892628176  -7.0383450E-08   1.1122829E-05
------------------------------------------------------------

 total:                                   0.292 sec
 * total energy  :  -104.5892628 Eh     change       -0.8676837E-04 Eh
   gradient norm :     0.0035039 Eh/α   predicted     0.0000000E+00 (-100.00%)
   displ. norm   :     0.0429492 α      lambda       -0.4661089E-04
   maximum displ.:     0.0181511 α      in ANC's #11, #12, #2, ...

........................................................................
.............................. CYCLE   44 ..............................
........................................................................
------------------------------------------------------------
  cycle        total energy    energy error   density error
------------------------------------------------------------
      1     -104.5893003845  -1.0620995E+02   2.3594799E-04
      2     -104.5893004500  -6.5528170E-08   1.4455788E-04
      3     -104.5892988258   1.6242399E-06   9.5108170E-05
      4     -104.5893006700  -1.8441801E-06   1.1318838E-05
      5     -104.5893006857  -1.5688130E-08   6.4862498E-06
------------------------------------------------------------

 total:                                   0.315 sec
 * total energy  :  -104.5893007 Eh     change       -0.3786810E-04 Eh
   gradient norm :     0.0015942 Eh/α   predicted    -0.2335552E-04 ( -38.32%)
   displ. norm   :     0.1969647 α      lambda       -0.8259094E-04
   maximum displ.:     0.0967517 α      in ANC's #11, #2, #12, ...

........................................................................
.............................. CYCLE   45 ..............................
........................................................................
------------------------------------------------------------
  cycle        total energy    energy error   density error
------------------------------------------------------------
      1     -104.5893664305  -1.0621065E+02   9.4002815E-04
      2     -104.5893671709  -7.4040803E-07   5.6515003E-04
      3     -104.5893558535   1.1317464E-05   2.3686840E-04
      4     -104.5893682243  -1.2370856E-05   3.3662254E-05
      5     -104.5893682995  -7.5152386E-08   1.9639628E-05
------------------------------------------------------------

 total:                                   0.235 sec
 * total energy  :  -104.5893683 Eh     change       -0.6761382E-04 Eh
   gradient norm :     0.0035716 Eh/α   predicted    -0.4200891E-04 ( -37.87%)
   displ. norm   :     0.0936029 α      lambda       -0.3919686E-04
   maximum displ.:     0.0564674 α      in ANC's #11, #2, #6, ...

........................................................................
.............................. CYCLE   46 ..............................
........................................................................
------------------------------------------------------------
  cycle        total energy    energy error   density error
------------------------------------------------------------
      1     -104.5894048837  -1.0621051E+02   3.7859786E-04
      2     -104.5894049903  -1.0660472E-07   2.3335977E-04
      3     -104.5894007500   4.2403521E-06   1.5436251E-04
      4     -104.5894056053  -4.8553096E-06   1.9230802E-05
      5     -104.5894056657  -6.0379818E-08   7.3694192E-06
------------------------------------------------------------

 total:                                   0.176 sec
 * total energy  :  -104.5894057 Eh     change       -0.3736616E-04 Eh
   gradient norm :     0.0030581 Eh/α   predicted    -0.2003003E-04 ( -46.40%)
   displ. norm   :     0.2681972 α      lambda       -0.1184753E-03
   maximum displ.:     0.1561974 α      in ANC's #11, #6, #2, ...

........................................................................
.............................. CYCLE   47 ..............................
........................................................................
------------------------------------------------------------
  cycle        total energy    energy error   density error
------------------------------------------------------------
      1     -104.5894981957  -1.0620961E+02   1.0061864E-03
      2     -104.5894988332  -6.3754233E-07   6.1111107E-04
      3     -104.5894895062   9.3270318E-06   2.0850729E-04
      4     -104.5894997736  -1.0267483E-05   2.9179675E-05
      5     -104.5894997641   9.5758850E-09   1.9140652E-05
------------------------------------------------------------

 total:                                   0.169 sec
 * total energy  :  -104.5894998 Eh     change       -0.9409842E-04 Eh
   gradient norm :     0.0023128 Eh/α   predicted    -0.6350974E-04 ( -32.51%)
   displ. norm   :     0.2756115 α      lambda       -0.8609848E-04
   maximum displ.:     0.1621799 α      in ANC's #11, #6, #2, ...

........................................................................
.............................. CYCLE   48 ..............................
........................................................................
------------------------------------------------------------
  cycle        total energy    energy error   density error
------------------------------------------------------------
      1     -104.5895564512  -1.0620863E+02   9.6088307E-04
      2     -104.5895571617  -7.1046252E-07   5.8631764E-04
      3     -104.5895416128   1.5548863E-05   2.6555385E-04
      4     -104.5895585461  -1.6933287E-05   3.9798893E-05
      5     -104.5895586989  -1.5273174E-07   2.0260943E-05
      6     -104.5895587299  -3.1006621E-08   6.9306299E-06
------------------------------------------------------------

 total:                                   0.352 sec
 * total energy  :  -104.5895587 Eh     change       -0.5896580E-04 Eh
   gradient norm :     0.0051535 Eh/α   predicted    -0.4632356E-04 ( -21.44%)
   displ. norm   :     0.1598059 α      lambda       -0.6081152E-04
   maximum displ.:     0.0950244 α      in ANC's #11, #6, #2, ...

........................................................................
.............................. CYCLE   49 ..............................
........................................................................
------------------------------------------------------------
  cycle        total energy    energy error   density error
------------------------------------------------------------
      1     -104.5896108046  -1.0620884E+02   4.9023027E-04
      2     -104.5896110376  -2.3302074E-07   2.9761716E-04
      3     -104.5896102318   8.0580669E-07   7.3108629E-05
      4     -104.5896111486  -9.1678433E-07   1.7600043E-05
------------------------------------------------------------

 total:                                   0.271 sec
 * total energy  :  -104.5896111 Eh     change       -0.5241868E-04 Eh
   gradient norm :     0.0053672 Eh/α   predicted    -0.3118440E-04 ( -40.51%)
   displ. norm   :     0.3357445 α      lambda       -0.1581082E-03
   maximum displ.:     0.2004030 α      in ANC's #11, #6, #2, ...

........................................................................
.............................. CYCLE   50 ..............................
........................................................................
------------------------------------------------------------
  cycle        total energy    energy error   density error
------------------------------------------------------------
      1     -104.5897276181  -1.0620968E+02   1.0376801E-03
      2     -104.5897285405  -9.2237602E-07   6.3169571E-04
      3     -104.5897130537   1.5486826E-05   3.0448242E-04
      4     -104.5897300586  -1.7004913E-05   4.2541189E-05
      5     -104.5897302728  -2.1420345E-07   2.1483326E-05
      6     -104.5897303059  -3.3126085E-08   8.1681312E-06
------------------------------------------------------------

 total:                                   0.326 sec
 * total energy  :  -104.5897303 Eh     change       -0.1191574E-03 Eh
   gradient norm :     0.0044942 Eh/α   predicted    -0.8796562E-04 ( -26.18%)
   displ. norm   :     0.3776837 α      lambda       -0.1279712E-03
   maximum displ.:     0.2276099 α      in ANC's #11, #6, #2, ...

........................................................................
.............................. CYCLE   51 ..............................
........................................................................
------------------------------------------------------------
  cycle        total energy    energy error   density error
------------------------------------------------------------
      1     -104.5898202229  -1.0620936E+02   1.2406043E-03
      2     -104.5898218864  -1.6634156E-06   7.5343475E-04
      3     -104.5898147645   7.1218149E-06   2.1245368E-04
      4     -104.5898228113  -8.0467653E-06   4.3250715E-05
      5     -104.5898229856  -1.7424944E-07   2.4733738E-05
      6     -104.5898230346  -4.9040253E-08   9.4524981E-06
------------------------------------------------------------

 total:                                   0.321 sec
 * total energy  :  -104.5898230 Eh     change       -0.9272867E-04 Eh
   gradient norm :     0.0052552 Eh/α   predicted    -0.7311691E-04 ( -21.15%)
   displ. norm   :     0.2708820 α      lambda       -0.1482792E-03
   maximum displ.:     0.1514699 α      in ANC's #11, #6, #2, ...

........................................................................
.............................. CYCLE   52 ..............................
........................................................................
------------------------------------------------------------
  cycle        total energy    energy error   density error
------------------------------------------------------------
      1     -104.5898974678  -1.0621153E+02   9.3337391E-04
      2     -104.5898993414  -1.8736040E-06   5.6335841E-04
      3     -104.5898927156   6.6258151E-06   2.2140789E-04
      4     -104.5899000351  -7.3194540E-06   4.9284633E-05
      5     -104.5899003311  -2.9606980E-07   2.4492969E-05
      6     -104.5899003992  -6.8030531E-08   9.1688071E-06
------------------------------------------------------------

 total:                                   0.289 sec
 * total energy  :  -104.5899004 Eh     change       -0.7736458E-04 Eh
   gradient norm :     0.0036237 Eh/α   predicted    -0.7958289E-04 (   2.87%)
   displ. norm   :     0.3675257 α      lambda       -0.1063002E-03
   maximum displ.:     0.2227755 α      in ANC's #11, #6, #2, ...

........................................................................
.............................. CYCLE   53 ..............................
........................................................................
------------------------------------------------------------
  cycle        total energy    energy error   density error
------------------------------------------------------------
      1     -104.5899327032  -1.0620985E+02   1.2782977E-03
      2     -104.5899349191  -2.2158893E-06   7.7751877E-04
      3     -104.5899265974   8.3216368E-06   2.1690908E-04
      4     -104.5899361267  -9.5292965E-06   4.6755049E-05
      5     -104.5899363206  -1.9390340E-07   2.7698820E-05
      6     -104.5899363929  -7.2331261E-08   9.6724506E-06
------------------------------------------------------------

 total:                                   0.266 sec
 * total energy  :  -104.5899364 Eh     change       -0.3599377E-04 Eh
   gradient norm :     0.0049762 Eh/α   predicted    -0.6034087E-04 (  67.64%)
   displ. norm   :     0.1196490 α      lambda       -0.8076860E-04
   maximum displ.:     0.0667977 α      in ANC's #11, #6, #2, ...

........................................................................
.............................. CYCLE   54 ..............................
........................................................................
------------------------------------------------------------
  cycle        total energy    energy error   density error
------------------------------------------------------------
      1     -104.5899871007  -1.0621100E+02   3.9124515E-04
      2     -104.5899874174  -3.1671890E-07   2.3588004E-04
      3     -104.5899856850   1.7323701E-06   1.0853072E-04
      4     -104.5899876977  -2.0126584E-06   1.8534166E-05
      5     -104.5899877242  -2.6470786E-08   1.0994688E-05
------------------------------------------------------------

 total:                                   0.226 sec
 * total energy  :  -104.5899877 Eh     change       -0.5133123E-04 Eh
   gradient norm :     0.0014064 Eh/α   predicted    -0.4097042E-04 ( -20.18%)
   displ. norm   :     0.1523475 α      lambda       -0.4285387E-04
   maximum displ.:     0.0621942 α      in ANC's #11, #3, #28, ...

........................................................................
.............................. CYCLE   55 ..............................
........................................................................
------------------------------------------------------------
  cycle        total energy    energy error   density error
------------------------------------------------------------
      1     -104.5900217040  -1.0621152E+02   5.6750590E-04
      2     -104.5900221233  -4.1928698E-07   3.4392692E-04
      3     -104.5900144885   7.6347968E-06   2.0139858E-04
      4     -104.5900229179  -8.4294694E-06   2.7173955E-05
      5     -104.5900229745  -5.6555862E-08   1.3969051E-05
------------------------------------------------------------

 total:                                   0.189 sec
 * total energy  :  -104.5900230 Eh     change       -0.3525033E-04 Eh
   gradient norm :     0.0019958 Eh/α   predicted    -0.2167517E-04 ( -38.51%)
   displ. norm   :     0.1085139 α      lambda       -0.1755423E-04
   maximum displ.:     0.0584429 α      in ANC's #11, #3, #7, ...

........................................................................
.............................. CYCLE   56 ..............................
........................................................................
------------------------------------------------------------
  cycle        total energy    energy error   density error
------------------------------------------------------------
      1     -104.5900429911  -1.0621115E+02   3.4061078E-04
      2     -104.5900431980  -2.0697112E-07   2.0417156E-04
      3     -104.5900417949   1.4031624E-06   9.2894704E-05
      4     -104.5900433466  -1.5517260E-06   2.0589404E-05
      5     -104.5900433932  -4.6578123E-08   9.3701032E-06
------------------------------------------------------------

 total:                                   0.172 sec
 * total energy  :  -104.5900434 Eh     change       -0.2041868E-04 Eh
   gradient norm :     0.0014339 Eh/α   predicted    -0.8826936E-05 ( -56.77%)
   displ. norm   :     0.1360620 α      lambda       -0.2270646E-04
   maximum displ.:     0.0614797 α      in ANC's #7, #3, #28, ...

........................................................................
.............................. CYCLE   57 ..............................
........................................................................
------------------------------------------------------------
  cycle        total energy    energy error   density error
------------------------------------------------------------
      1     -104.5900642753  -1.0621043E+02   4.4382674E-04
      2     -104.5900645772  -3.0187445E-07   2.6391275E-04
      3     -104.5900618678   2.7093774E-06   1.3165863E-04
      4     -104.5900648845  -3.0166989E-06   2.2859739E-05
      5     -104.5900649096  -2.5076758E-08   1.5328420E-05
------------------------------------------------------------

 total:                                   0.178 sec
 * total energy  :  -104.5900649 Eh     change       -0.2151639E-04 Eh
   gradient norm :     0.0009205 Eh/α   predicted    -0.1145021E-04 ( -46.78%)
   displ. norm   :     0.0729142 α      lambda       -0.7998025E-05
   maximum displ.:     0.0349211 α      in ANC's #7, #3, #18, ...

........................................................................
.............................. CYCLE   58 ..............................
........................................................................
------------------------------------------------------------
  cycle        total energy    energy error   density error
------------------------------------------------------------
      1     -104.5900732140  -1.0621038E+02   2.4315883E-04
      2     -104.5900731788   3.5181756E-08   1.5184516E-04
      3     -104.5900716120   1.5667588E-06   1.2002271E-04
      4     -104.5900738828  -2.2707875E-06   1.7241811E-05
      5     -104.5900739314  -4.8529245E-08   5.0956504E-06
------------------------------------------------------------

 total:                                   0.218 sec
 * total energy  :  -104.5900739 Eh     change       -0.9021785E-05 Eh
   gradient norm :     0.0008553 Eh/α   predicted    -0.4008666E-05 ( -55.57%)
   displ. norm   :     0.0907248 α      lambda       -0.8900468E-05
   maximum displ.:     0.0426623 α      in ANC's #7, #3, #6, ...

........................................................................
.............................. CYCLE   59 ..............................
........................................................................
------------------------------------------------------------
  cycle        total energy    energy error   density error
------------------------------------------------------------
      1     -104.5900827135  -1.0621059E+02   2.4214666E-04
      2     -104.5900827497  -3.6212484E-08   1.4434327E-04
      3     -104.5900821073   6.4240299E-07   4.9860510E-05
[...]
    28   6 C       66   1 H                                       1.0880240
    28   6 C       67   1 H                                       1.0859096
    27   6 C       68   1 H                                       1.0877433
    27   6 C       69   1 H                                       1.0877568
    27   6 C       70   1 H                                       1.0882291
    43   6 C       71   1 H                                       1.0889758
    43   6 C       72   1 H                                       1.0943056
    43   6 C       73   1 H                                       1.0967504
    42   6 C       74   1 H                                       1.0890301
    42   6 C       75   1 H                                       1.0958467
    42   6 C       76   1 H                                       1.0939234
    77   6 C       78   6 C                                       1.3874123
    78   6 C       79   6 C                                       1.4104838
    79   6 C       80   6 C                                       1.4362322
    80   6 C       81   6 C                                       1.4085838
    77   6 C       82   6 C                                       1.4010561
    81   6 C       82   6 C                                       1.3762485
    79   6 C       83   6 C                                       1.4295430
    83   6 C       84   6 C                                       1.4034575
    84   6 C       85   6 C                                       1.4223642
    80   6 C       86   7 N                                       1.3360810
    85   6 C       86   7 N                                       1.3339150
    83   6 C       87   6 C                                       1.4284912
    87   6 C       88   6 C                                       1.4290824
    88   6 C       89   7 N                                       1.3376589
    84   6 C       90   6 C                                       1.4207541
    89   7 N       90   6 C                                       1.3316912
    90   6 C       91   6 C                                       1.4129186
    91   6 C       92   6 C                                       1.3855572
    85   6 C       93   6 C                                       1.4071576
    92   6 C       93   6 C                                       1.3921314
    87   6 C       94   6 C                                       1.4170903
    94   6 C       95   6 C                                       1.3802530
    95   6 C       96   6 C                                       1.4052193
    88   6 C       97   6 C                                       1.4104790
    96   6 C       97   6 C                                       1.3725021
    94   6 C       98   8 O                                       1.3602947
    78   6 C       99   8 O                                       1.3628714
   101   6 C      103   6 C                                       1.5313848
   101   6 C      104   6 C                                       1.5352773
   101   6 C      105   6 C                                       1.5347265
   102   6 C      106   6 C                                       1.5349700
   102   6 C      107   6 C                                       1.5348451
   102   6 C      108   6 C                                       1.5306671
   100   6 C      109   6 C                                       1.5386641 (max)
   100   6 C      110   6 C                                       1.5305711
   100   6 C      111   6 C                                       1.5338225
    81   6 C      112   1 H                                       1.0763501
    77   6 C      113   1 H                                       1.0776083
    93   6 C      114   1 H                                       1.0777367
    91   6 C      115   1 H                                       1.0762172
    97   6 C      116   1 H                                       1.0773299
    95   6 C      117   1 H                                       1.0753724 (min)
    98   8 O      118   6 C                                       1.4025664
    99   8 O      119   6 C                                       1.4111314
Note: The following floating-point exceptions are signalling: IEEE_UNDERFLOW_FLAG
normal termination of xtb
   111   6 C      120   1 H                                       1.0864147
   111   6 C      121   1 H                                       1.0880541
   111   6 C      122   1 H                                       1.0866917
   110   6 C      123   1 H                                       1.0872821
   110   6 C      124   1 H                                       1.0857263
   110   6 C      125   1 H                                       1.0885364
   109   6 C      126   1 H                                       1.0882669
   109   6 C      127   1 H                                       1.0881476
   109   6 C      128   1 H                                       1.0873763
   106   6 C      129   1 H                                       1.0864160
   106   6 C      130   1 H                                       1.0884121
   106   6 C      131   1 H                                       1.0879972
   108   6 C      132   1 H                                       1.0873997
   108   6 C      133   1 H                                       1.0872857
   108   6 C      134   1 H                                       1.0882647
   107   6 C      135   1 H                                       1.0862057
   107   6 C      136   1 H                                       1.0880199
   107   6 C      137   1 H                                       1.0879901
   105   6 C      138   1 H                                       1.0881072
   105   6 C      139   1 H                                       1.0859791
   105   6 C      140   1 H                                       1.0880398
   104   6 C      141   1 H                                       1.0881726
   104   6 C      142   1 H                                       1.0880023
   104   6 C      143   1 H                                       1.0858310
   103   6 C      144   1 H                                       1.0878918
   103   6 C      145   1 H                                       1.0877965
   103   6 C      146   1 H                                       1.0881871
   119   6 C      147   1 H                                       1.0908695
   119   6 C      148   1 H                                       1.0935364
   119   6 C      149   1 H                                       1.0915169
   118   6 C      150   1 H                                       1.0890526
   118   6 C      151   1 H                                       1.0955872
   118   6 C      152   1 H                                       1.0947893

 * 4 distinct bonds (by element types)

   Z      Z             #   av. dist./Å        max./Å        min./Å
   1 H    6 C          78     1.0866842     1.0967504     1.0753724
   6 C    6 C          60     1.4442887     1.5386641     1.3702980
   6 C    7 N           8     1.3352804     1.3387062     1.3316912
   6 C    8 O           8     1.3866896     1.4111314     1.3581665


optimized geometry written to: xtbopt.mol


           -------------------------------------------------
          | TOTAL ENERGY             -209.203590039765 Eh   |
          | GRADIENT NORM               0.000159548477 Eh/α |
           -------------------------------------------------

------------------------------------------------------------------------
 * finished run on 2025/02/28 at 12:12:28.528     
------------------------------------------------------------------------
 total:
 * wall-time:     0 d,  0 h,  0 min, 36.305 sec
 *  cpu-time:     0 d,  0 h,  1 min, 56.350 sec
 * ratio c/w:     3.205 speedup
 SCF:
 * wall-time:     0 d,  0 h,  0 min,  2.208 sec
 *  cpu-time:     0 d,  0 h,  0 min,  7.385 sec
 * ratio c/w:     3.344 speedup
 ANC optimizer:
 * wall-time:     0 d,  0 h,  0 min, 34.089 sec
 *  cpu-time:     0 d,  0 h,  1 min, 48.960 sec
 * ratio c/w:     3.196 speedup

      -----------------------------------------------------------      
     |                   =====================                   |     
     |                           x T B                           |     
     |                   =====================                   |     
     |                         S. Grimme                         |     
     |          Mulliken Center for Theoretical Chemistry        |     
     |                    University of Bonn                     |     
      -----------------------------------------------------------      

   * xtb version 6.7.1 (edcfbbe) compiled by 'runner@Mac-1732539442253.local' on 2024-11-25

   xtb is free software: you can redistribute it and/or modify it under
   the terms of the GNU Lesser General Public License as published by
   the Free Software Foundation, either version 3 of the License, or
   (at your option) any later version.
   
   xtb is distributed in the hope that it will be useful,
   but WITHOUT ANY WARRANTY; without even the implied warranty of
   MERCHANTABILITY or FITNESS FOR A PARTICULAR PURPOSE.  See the
   GNU Lesser General Public License for more details.
   
   Cite this work as:
   * C. Bannwarth, E. Caldeweyher, S. Ehlert, A. Hansen, P. Pracht,
     J. Seibert, S. Spicher, S. Grimme, WIREs Comput. Mol. Sci., 2020, 11,
     e01493. DOI: 10.1002/wcms.1493
   
   for GFN2-xTB:
   * C. Bannwarth, S. Ehlert and S. Grimme., J. Chem. Theory Comput., 2019,
     15, 1652-1671. DOI: 10.1021/acs.jctc.8b01176
   for GFN1-xTB:
   * S. Grimme, C. Bannwarth, P. Shushkov, J. Chem. Theory Comput., 2017,
     13, 1989-2009. DOI: 10.1021/acs.jctc.7b00118
   for GFN0-xTB:
   * P. Pracht, E. Caldeweyher, S. Ehlert, S. Grimme, ChemRxiv, 2019, preprint.
     DOI: 10.26434/chemrxiv.8326202.v1
   for GFN-FF:
   * S. Spicher and S. Grimme, Angew. Chem. Int. Ed., 2020, 59, 15665-15673.
     DOI: 10.1002/anie.202004239
   
   for ALPB and GBSA implicit solvation:
   * S. Ehlert, M. Stahn, S. Spicher, S. Grimme, J. Chem. Theory Comput.,
     2021, 17, 4250-4261. DOI: 10.1021/acs.jctc.1c00471
   
   for ddCOSMO and CPCM-X implicit solvation:
   * M. Stahn, S. Ehlert, S. Grimme, J. Phys. Chem. A,
     2023, XX, XXXX-XXXX. DOI: 10.1021/acs.jpca.3c04382
   
   for DFT-D4:
   * E. Caldeweyher, C. Bannwarth and S. Grimme, J. Chem. Phys., 2017,
     147, 034112. DOI: 10.1063/1.4993215
   * E. Caldeweyher, S. Ehlert, A. Hansen, H. Neugebauer, S. Spicher,
     C. Bannwarth and S. Grimme, J. Chem. Phys., 2019, 150, 154122.
     DOI: 10.1063/1.5090222
   * E. Caldeweyher, J.-M. Mewes, S. Ehlert and S. Grimme, Phys. Chem. Chem. Phys.
     2020, 22, 8499-8512. DOI: 10.1039/D0CP00502A
   
   for sTDA-xTB:
   * S. Grimme and C. Bannwarth, J. Chem. Phys., 2016, 145, 054103.
     DOI: 10.1063/1.4959605
   
   in the mass-spec context:
   * V. Asgeirsson, C. Bauer and S. Grimme, Chem. Sci., 2017, 8, 4879.
     DOI: 10.1039/c7sc00601b
   * J. Koopman and S. Grimme, ACS Omega 2019, 4, 12, 15120-15133.
     DOI: 10.1021/acsomega.9b02011
   
   for metadynamics refer to:
   * S. Grimme, J. Chem. Theory Comput., 2019, 155, 2847-2862
     DOI: 10.1021/acs.jctc.9b00143
   
   for SPH calculations refer to:
   * S. Spicher and S. Grimme, J. Chem. Theory Comput., 2021, 17, 1701-1714
     DOI: 10.1021/acs.jctc.0c01306
   
   for ONIOM refer to:
   * C. Plett, A. Katbashev, S. Ehlert, S. Grimme, M. Bursch,
     Phys. Chem. Chem. Phys., 2023, 25, 17860-17868. DOI: 10.1039/D3CP02178E
   
   for DIPRO refer to:
   * J. Kohn, N. Gildemeister, S. Grimme, D. Fazzi, A. Hansen,
     J. Chem. Phys., 2023, just accepted.
   
   for PTB refer to:
   * S. Grimme, M. Mueller, A. Hansen, J. Chem. Phys., 2023, 158, 124111.
     DOI: 10.1063/5.0137838
   
   with help from (in alphabetical order)
   P. Atkinson, C. Bannwarth, F. Bohle, G. Brandenburg, E. Caldeweyher
   M. Checinski, S. Dohm, S. Ehlert, S. Ehrlich, I. Gerasimov, C. Hölzer
   A. Katbashev, J. Kohn, J. Koopman, C. Lavigne, S. Lehtola, F. März, M. Müller,
   F. Musil, H. Neugebauer, J. Pisarek, C. Plett, P. Pracht, F. Pultar,
   J. Seibert, P. Shushkov, S. Spicher, M. Stahn, M. Steiner, T. Strunk,
   J. Stückrath, T. Rose, and J. Unsleber
   
 * started run on 2025/02/28 at 12:12:28.561     
   ID    Z sym.   atoms
    1    6 C      1-9, 11, 12, 14-21, 24-35, 42, 43, 77-85, 87, 88, 90-97,
                  100-111, 118, 119
    2    7 N      10, 13, 86, 89
    3    8 O      22, 23, 98, 99
    4    1 H      36-41, 44-76, 112-117, 120-152

           -------------------------------------------------
          |                Calculation Setup                |
           -------------------------------------------------

          program call               : xtb opt_dimer.mol --dipro 0.3 --chrg 0 --uhf 2 --spinpol --tblite
          coordinate file            : opt_dimer.mol
          omp threads                :                     8


molecular fragmentation (1/2 indicates fragments):
111111111111111111111111111111111111111111111111111111111111111111111111
111122222222222222222222222222222222222222222222222222222222222222222222
22222222
# atoms in fragment 1/2:    76    76
 fragment masses (1/2) :      495.68      495.68
CMA distance (Bohr)    :  12.629
constraining FC (au)   :  0.0500
Wavefunction read from restart file
           -------------------------------------------------
          |                    D I P R O                    |
           -------------------------------------------------
Calculation for dimer 
--------------------- 
  
charge of dimer :   0.
unpaired e- of dimer :  2
repulsion energy          3.2407628022050E+00 Eh
dispersion energy         1.1597516747465E-02 Eh
number of electrons       3.8600000000000E+02 e
integral cutoff           1.7347787504999E+01 bohr

------------------------------------------------------------
  cycle        total energy    energy error   density error
------------------------------------------------------------
      1     -208.7449069173  -2.1199727E+02   1.2457214E-01
      2     -209.1035845282  -3.5867761E-01   6.1911265E-02
      3     -209.0569581325   4.6626396E-02   3.7139886E-02
      4     -209.1564268504  -9.9468718E-02   1.6279268E-02
      5     -209.1965799299  -4.0153079E-02   5.3357178E-03
      6     -209.1977394602  -1.1595303E-03   2.9988250E-03
      7     -209.1992152017  -1.4757414E-03   1.4227219E-03
      8     -209.1994383501  -2.2314845E-04   7.2063819E-04
      9     -209.1995093442  -7.0994062E-05   3.2392229E-04
     10     -209.1995273089  -1.7964689E-05   1.3828860E-04
     11     -209.1995301940  -2.8851383E-06   5.1608398E-05
     12     -209.1995304417  -2.4770014E-07   2.8270228E-05
     13     -209.1995305150  -7.3327499E-08   1.4017619E-05
------------------------------------------------------------

electronic energy        -2.1245189083400E+02 Eh
total energy             -2.0919953051504E+02 Eh

 total:                                   0.896 sec
 - repulsion                              0.000 sec (  0%)
 - dispersion                             0.006 sec (  0%)
 - coulomb                                0.002 sec (  0%)
 - hamiltonian                            0.005 sec (  0%)
 - scc                                    0.882 sec ( 98%)

Found 2 fragments!
Fragment 1:  1-76
Fragment 2:  77-152

[Info] Fragment spin read from .UHFfrag
Calculation for fragment 1
 ------------------------------
   
charge of fragment :   0.
unpaired e- of fragment :  1
------------------------------------------------------------
  cycle        total energy    energy error   density error
------------------------------------------------------------
      1     -104.3586309939  -1.0598100E+02   1.2562683E-01
      2     -104.5412161149  -1.8258512E-01   6.2531673E-02
      3     -104.5213468485   1.9869266E-02   3.7128939E-02
      4     -104.5678192914  -4.6472443E-02   1.6212597E-02
      5     -104.5860657340  -1.8246443E-02   4.8999344E-03
      6     -104.5865273749  -4.6164094E-04   2.3660889E-03
      7     -104.5868154995  -2.8812463E-04   1.2171429E-03
      8     -104.5868894111  -7.3911574E-05   5.8463729E-04
      9     -104.5869119999  -2.2588745E-05   2.0884210E-04
     10     -104.5869145795  -2.5795843E-06   8.4354874E-05
     11     -104.5869150193  -4.3987988E-07   3.5509359E-05
     12     -104.5869150586  -3.9287741E-08   1.7334133E-05
------------------------------------------------------------

 total:                                   0.326 sec
Calculation for fragment 2
 ------------------------------
   
charge of fragment :   0.
unpaired e- of fragment :  1
------------------------------------------------------------
  cycle        total energy    energy error   density error
------------------------------------------------------------
      1     -104.3544620152  -1.0597445E+02   1.2375403E-01
      2     -104.5356700671  -1.8120805E-01   6.1496191E-02
      3     -104.5167830329   1.8887034E-02   3.6850189E-02
      4     -104.5671618188  -5.0378786E-02   1.5799743E-02
      5     -104.5847979801  -1.7636161E-02   4.7611486E-03
      6     -104.5852410658  -4.4308568E-04   2.0753910E-03
      7     -104.5854069451  -1.6587933E-04   1.0770395E-03
      8     -104.5854488825  -4.1937356E-05   5.7925952E-04
      9     -104.5854754939  -2.6611408E-05   2.2974389E-04
     10     -104.5854789813  -3.4874486E-06   9.1015224E-05
     11     -104.5854795664  -5.8511675E-07   3.6477940E-05
     12     -104.5854796092  -4.2706262E-08   1.8741673E-05
------------------------------------------------------------

 total:                                   0.245 sec
   
   ::::::::::::::::::::::::::::::::::::::::::::::
   ::     D I P R O      C O U P L I N G S     ::
   ::::::::::::::::::::::::::::::::::::::::::::::
   
energy threshhold for near-degenerate orbitals near HOMO and LUMO considered for DIPRO:  0.300 eV
no. of orbitals within energy window of frag 1         2
no. of orbitals within energy window of frag 2         2
   
  Fragment 1 SOMO   Fragment 2 SOMO 
--------------------------------------
E_mon(orb) frag1 frag2              -9.492    -9.357 eV
J(AB):                0.003 eV
S(AB):            -0.00014149 Eh
|J(AB,eff)|:            0.002 eV
   
  Fragment 1 SOMO   Fragment 2 LUMO 
--------------------------------------
E_mon(orb) frag1 frag2              -9.492    -8.953 eV
J(AB):                0.012 eV
S(AB):            -0.00056812 Eh
|J(AB,eff)|:            0.007 eV
   
  Fragment 1 LUMO   Fragment 2 SOMO 
--------------------------------------
E_mon(orb) frag1 frag2              -9.084    -9.357 eV
J(AB):                0.006 eV
S(AB):            -0.00027079 Eh
|J(AB,eff)|:            0.003 eV
   
  Fragment 1 LUMO   Fragment 2 LUMO 
--------------------------------------
E_mon(orb) frag1 frag2              -9.084    -8.953 eV
J(AB):                0.012 eV
S(AB):            -0.00057654 Eh
|J(AB,eff)|:            0.007 eV
   
..............................................................................
:  total |J(AB,eff)| for hole transport (occ. MOs) :               0.002 eV  :
:  total |J(AB,eff)| for charge transport (unocc. MOs) :           0.007 eV  :
:  total |J(AB,eff)| for charge transfer (CT) :                    0.008 eV  :
..............................................................................
  
 Please remember, DIPRO is not available for restart!
   
normal termination of dipro
----------------------------------------------------------
 * finished run on 2025/02/28 at 12:12:30.044     
----------------------------------------------------------
 dipro:
 * wall-time:     0 d,  0 h,  0 min,  1.480 sec
 *  cpu-time:     0 d,  0 h,  0 min,  4.510 sec
 * ratio c/w:     3.048 speedup
Reorganization energy (electron): 0.08076684625827474 eV
Reorganization energy (hole): 0.19928907849779565 eV
Electron Transfer integral J: 0.007 eV
Hole Transfer integral J: 0.002 eV
