152
 energy: -209.180705289035 gnorm: 0.098601184300 xtb: 6.7.1 (edcfbbe)
C           -3.09090000000000        1.90370000000000       -2.55040000000000
C           -2.89140000000000        0.74240000000000       -1.80740000000000
C           -1.84670000000000        0.73510000000000       -0.82470000000000
C           -0.85470000000000        1.75110000000000       -0.88900000000000
C           -1.08860000000000        2.86780000000000       -1.71250000000000
C           -2.21800000000000        2.98580000000000       -2.49320000000000
C           -1.70770000000000       -0.26160000000000        0.19180000000000
C           -0.44270000000000       -0.38960000000000        0.77610000000000
C            0.53050000000000        0.62510000000000        0.58280000000000
N            0.30380000000000        1.70930000000000       -0.18740000000000
C           -2.72640000000000       -1.13030000000000        0.70230000000000
C           -2.30800000000000       -2.31920000000000        1.35710000000000
N           -1.02560000000000       -2.54360000000000        1.73590000000000
C           -0.14920000000000       -1.52770000000000        1.57340000000000
C            1.10630000000000       -1.59250000000000        2.19240000000000
C            2.03950000000000       -0.57330000000000        2.08550000000000
C            1.74910000000000        0.50600000000000        1.26480000000000
C           -4.11940000000000       -0.79980000000000        0.69470000000000
C           -5.03270000000000       -1.77760000000000        1.08000000000000
C           -4.63360000000000       -3.02280000000000        1.56120000000000
C           -3.28660000000000       -3.26380000000000        1.71340000000000
O           -4.48870000000000        0.50950000000000        0.39950000000000
O           -3.69230000000000       -0.37540000000000       -2.11520000000000
C           -2.51350000000000        4.24110000000000       -3.32600000000000
C           -5.64280000000000       -4.08240000000000        2.02620000000000
C            3.38660000000000       -0.66630000000000        2.81620000000000
C           -7.09210000000000       -3.67440000000000        1.69940000000000
C           -5.34690000000000       -5.41770000000000        1.31820000000000
C           -5.51350000000000       -4.26020000000000        3.55010000000000
C            4.39930000000000       -1.38090000000000        1.90830000000000
C            3.91360000000000        0.74090000000000        3.16030000000000
C            3.23660000000000       -1.45420000000000        4.13420000000000
C           -3.89690000000000        4.79200000000000       -2.93350000000000
C           -2.50280000000000        3.87530000000000       -4.82070000000000
C           -1.46700000000000        5.34590000000000       -3.08370000000000
H           -0.34980000000000        3.64660000000000       -1.70280000000000
H           -3.92500000000000        1.92360000000000       -3.22630000000000
H            2.46620000000000        1.29260000000000        1.12860000000000
H            1.32170000000000       -2.46490000000000        2.77920000000000
H           -2.95300000000000       -4.18300000000000        2.15810000000000
H           -6.07800000000000       -1.54390000000000        1.04670000000000
C           -5.85960000000000        0.69890000000000        0.14350000000000
C           -2.95790000000000       -1.54810000000000       -2.40630000000000
H           -1.43290000000000        5.62910000000000       -2.03210000000000
H           -1.70840000000000        6.23940000000000       -3.65900000000000
H           -0.47290000000000        5.01960000000000       -3.38730000000000
H           -3.26630000000000        3.13400000000000       -5.05210000000000
H           -1.53680000000000        3.46140000000000       -5.10830000000000
H           -2.69180000000000        4.75290000000000       -5.43830000000000
H           -4.68370000000000        4.06560000000000       -3.13150000000000
H           -4.12990000000000        5.69700000000000       -3.49380000000000
H           -3.92620000000000        5.03510000000000       -1.87170000000000
H            4.53460000000000       -0.83490000000000        0.97520000000000
H            4.05610000000000       -2.38500000000000        1.66110000000000
H            5.37010000000000       -1.46470000000000        2.39610000000000
H            3.02440000000000       -2.50630000000000        3.95170000000000
H            2.42830000000000       -1.04460000000000        4.73780000000000
H            4.15180000000000       -1.40750000000000        4.72290000000000
H            4.18790000000000        1.29690000000000        2.26530000000000
H            4.80300000000000        0.67920000000000        3.78570000000000
H            3.15890000000000        1.31270000000000        3.69850000000000
H           -5.69710000000000       -3.31710000000000        4.06400000000000
H           -4.51540000000000       -4.59860000000000        3.82480000000000
H           -6.22930000000000       -4.99350000000000        3.92040000000000
H           -5.40050000000000       -5.29880000000000        0.23640000000000
H           -6.06730000000000       -6.18150000000000        1.60980000000000
H           -4.35330000000000       -5.78840000000000        1.56540000000000
H           -7.21820000000000       -3.50230000000000        0.63090000000000
H           -7.37630000000000       -2.76810000000000        2.23310000000000
H           -7.78950000000000       -4.45840000000000        1.99350000000000
H           -3.65640000000000       -2.35070000000000       -2.64380000000000
H           -2.35090000000000       -1.84460000000000       -1.55290000000000
H           -2.31160000000000       -1.36440000000000       -3.26500000000000
H           -6.00600000000000        1.71420000000000       -0.22640000000000
H           -6.43440000000000        0.57020000000000        1.06120000000000
H           -6.18850000000000       -0.00510000000000       -0.62210000000000
C           -2.28450000000000        1.27890000000000        3.44040000000000
C           -1.82460000000000        0.34140000000000        4.36290000000000
C           -0.68370000000000        0.68480000000000        5.16620000000000
C            0.14200000000000        1.76040000000000        4.73310000000000
C           -0.37580000000000        2.65420000000000        3.77840000000000
C           -1.59990000000000        2.46380000000000        3.17360000000000
C           -0.28000000000000       -0.00770000000000        6.35460000000000
C            1.06700000000000        0.10820000000000        6.71860000000000
C            1.88010000000000        1.10040000000000        6.10890000000000
N            1.40030000000000        1.96690000000000        5.19170000000000
C           -1.10700000000000       -0.78080000000000        7.22990000000000
C           -0.46760000000000       -1.69590000000000        8.10770000000000
N            0.87210000000000       -1.71620000000000        8.31150000000000
C            1.60870000000000       -0.76150000000000        7.70280000000000
C            2.96670000000000       -0.62890000000000        8.02620000000000
C            3.77530000000000        0.34120000000000        7.45320000000000
C            3.21750000000000        1.19900000000000        6.51870000000000
C           -2.52690000000000       -0.61500000000000        7.31720000000000
C           -3.25730000000000       -1.54500000000000        8.05200000000000
C           -2.64650000000000       -2.55870000000000        8.78720000000000
C           -1.27000000000000       -2.59290000000000        8.83480000000000
O           -3.10340000000000        0.50920000000000        6.73190000000000
O           -2.49060000000000       -0.89340000000000        4.39780000000000
C           -2.21170000000000        3.57600000000000        2.30710000000000
C           -3.45830000000000       -3.57960000000000        9.59840000000000
C            5.24870000000000        0.51650000000000        7.85180000000000
C           -4.97040000000000       -3.45010000000000        9.33080000000000
C           -3.02270000000000       -5.00490000000000        9.20980000000000
C           -3.20350000000000       -3.34900000000000       11.09830000000000
C            6.13790000000000        0.45080000000000        6.59610000000000
C            5.42310000000000        1.88350000000000        8.53690000000000
C            5.71090000000000       -0.58350000000000        8.82650000000000
C           -2.82600000000000        4.63480000000000        3.23820000000000
C           -3.31620000000000        3.02850000000000        1.38500000000000
C           -1.12810000000000        4.23730000000000        1.43340000000000
H            0.21140000000000        3.52350000000000        3.54940000000000
H           -3.16810000000000        1.02530000000000        2.88550000000000
H            3.81690000000000        1.97630000000000        6.08310000000000
H            3.36250000000000       -1.30320000000000        8.76130000000000
H           -0.77180000000000       -3.31130000000000        9.45880000000000
H           -4.32430000000000       -1.45040000000000        8.08140000000000
C           -4.50030000000000        0.44940000000000        6.56880000000000
C           -1.65790000000000       -2.01700000000000        4.61520000000000
H           -0.42820000000000        4.81720000000000        2.03300000000000
H           -1.57320000000000        4.91580000000000        0.70610000000000
H           -0.56010000000000        3.48420000000000        0.89230000000000
H           -4.16860000000000        2.66700000000000        1.95840000000000
H           -2.94620000000000        2.20480000000000        0.77900000000000
H           -3.68140000000000        3.80180000000000        0.70990000000000
H           -3.59910000000000        4.19340000000000        3.86640000000000
H           -3.27460000000000        5.44640000000000        2.66600000000000
H           -2.06770000000000        5.06140000000000        3.89410000000000
H            5.90100000000000        1.25270000000000        5.89880000000000
H            6.00530000000000       -0.49840000000000        6.07830000000000
H            7.19090000000000        0.54460000000000        6.86030000000000
H            5.59170000000000       -1.57260000000000        8.38510000000000
H            5.14510000000000       -0.54800000000000        9.75690000000000
H            6.76370000000000       -0.45880000000000        9.07870000000000
H            5.15020000000000        2.69770000000000        7.86680000000000
H            6.45670000000000        2.03670000000000        8.84600000000000
H            4.79140000000000        1.95340000000000        9.42190000000000
H           -3.49140000000000       -2.33830000000000       11.38620000000000
H           -2.15030000000000       -3.47860000000000       11.34380000000000
H           -3.77720000000000       -4.04960000000000       11.70430000000000
H           -3.16830000000000       -5.17370000000000        8.14320000000000
H           -3.60300000000000       -5.75090000000000        9.75190000000000
H           -1.97110000000000       -5.17560000000000        9.43540000000000
H           -5.19200000000000       -3.57510000000000        8.27120000000000
H           -5.34630000000000       -2.47920000000000        9.65200000000000
H           -5.52590000000000       -4.21150000000000        9.87770000000000
H           -1.93800000000000       -2.80150000000000        3.91410000000000
H           -1.79810000000000       -2.39290000000000        5.62770000000000
H           -0.61210000000000       -1.75540000000000        4.45290000000000
H           -4.81290000000000        1.29990000000000        5.96210000000000
H           -4.99530000000000        0.50550000000000        7.53870000000000
H           -4.76820000000000       -0.47140000000000        6.04860000000000
152
 energy: -209.194418667181 gnorm: 0.042011468292 xtb: 6.7.1 (edcfbbe)
C           -3.08304958167939        1.89268986424407       -2.55784859123074
C           -2.88364491810651        0.74599832611196       -1.81154189786565
C           -1.85552543748234        0.72400189521557       -0.83478299041593
C           -0.85972376201416        1.74150339431006       -0.89502969626917
C           -1.08478916259212        2.86948777424512       -1.71178530085343
C           -2.21462558628134        2.99100634982412       -2.48686317578158
C           -1.71839521644842       -0.25846505220974        0.19123852871903
C           -0.45342127472975       -0.38757908471392        0.77485860366492
C            0.52715362029675        0.61973400074125        0.57214971229692
N            0.28641043291690        1.69585348413158       -0.18851616432034
C           -2.73814781725799       -1.11920329296189        0.70550214208682
C           -2.31186511720508       -2.30960970969375        1.35978646544056
N           -1.03310945707688       -2.52840288736031        1.72381708819889
C           -0.15788766930927       -1.52291815884034        1.57551514752991
C            1.10585458151747       -1.59741478794477        2.19134792317412
C            2.04227524489918       -0.57518345590925        2.08136343578957
C            1.75119270367903        0.50828788874534        1.25985481385991
C           -4.12376456304680       -0.82037877313187        0.68419630031923
C           -5.03143057315080       -1.78435819500184        1.08496979748125
C           -4.62641145474221       -3.03234816196397        1.56898865196539
C           -3.27911704134826       -3.27158296940807        1.71457370195815
O           -4.49119081527475        0.46614674326537        0.37022188653877
O           -3.68301151466467       -0.35837019730952       -2.09965709403565
C           -2.50941726747734        4.23852383789839       -3.32017139735072
C           -5.64067703894517       -4.08182060618937        2.02346295266628
C            3.38141283483011       -0.66311991768792        2.81550089381480
C           -7.08609748711603       -3.67680392204316        1.70018119961824
C           -5.34527045453907       -5.41353691265314        1.31777078426929
C           -5.51076190771695       -4.25766929662879        3.54426164617645
C            4.38959292066776       -1.37937112462137        1.90577948763751
C            3.91044800488601        0.73827385498527        3.15461625037636
C            3.23565516334705       -1.45361388933185        4.12585529179237
C           -3.89196310778315        4.78427394275963       -2.93068960754164
C           -2.50147874870412        3.87169323759788       -4.81217742926484
C           -1.47010302203988        5.34255281532606       -3.08445115797926
H           -0.33116270667779        3.63639072405545       -1.70086295619497
H           -3.92117238184686        1.90499846089846       -3.23569489484119
H            2.46093370065462        1.30527452253239        1.12509765044814
H            1.31451086853170       -2.47620658027078        2.77697848188284
H           -2.93120264990731       -4.18728296601866        2.16273240150270
H           -6.07926820625875       -1.55234303926737        1.04920852061058
C           -5.85974957191807        0.69107771430981        0.13415932702038
C           -2.95601410215567       -1.53322547760407       -2.40579535944169
H           -1.43762330291624        5.62681214598195       -2.03462435835139
H           -1.72627063874772        6.22737354560092       -3.66474274845057
H           -0.47837793625808        5.01888977784235       -3.39309087567343
H           -3.26528977685253        3.13287025723724       -5.04407849436735
H           -1.53454680755485        3.46132972092056       -5.09772399354603
H           -2.69104000850365        4.75393887431508       -5.42149801316148
H           -4.67783576671254        4.05947669607138       -3.13016029398108
H           -4.11593324520817        5.68769256788038       -3.49565200119890
H           -3.91748229073193        5.02978223593811       -1.87053960376917
H            4.52574414377253       -0.83106714641555        0.97529142260050
H            4.04680357870039       -2.38357109319517        1.66194709874261
H            5.35601254947845       -1.45829062020968        2.40113303616361
H            3.03374323147137       -2.50692241100452        3.94496626275288
H            2.42934922221028       -1.04526455040263        4.73014142203155
H            4.15318884313192       -1.39359765022385        4.70725991606085
H            4.19476213785642        1.28757412581922        2.26034446457225
H            4.79545778379897        0.65861524713389        3.78249034150767
H            3.15625060942255        1.31092059130367        3.68986564002601
H           -5.69539709710217       -3.31348586154424        4.05396843427324
H           -4.51445079187992       -4.59733233786488        3.81744496473803
H           -6.23085503414325       -4.99031654702056        3.90523264520052
H           -5.40132031491285       -5.29146296856889        0.23757357825607
H           -6.07042633358166       -6.16918496244792        1.61512590128985
H           -4.35376525417442       -5.78338909540133        1.56634056471385
H           -7.21325236864318       -3.50757341752077        0.63230911120073
H           -7.37346477977942       -2.77594535783412        2.23943064396911
H           -7.77120202367417       -4.46885832427595        1.99714309069955
H           -3.67976500505618       -2.31374740120394       -2.63864137459112
H           -2.34376371070959       -1.86470539701659       -1.56505904334626
H           -2.31242859424895       -1.36729269685973       -3.27538561040616
H           -5.96304765186369        1.71459998574535       -0.22713619416088
H           -6.44229899787850        0.58145986187024        1.05418663247793
H           -6.22304663033042        0.00207682965043       -0.63219258465413
C           -2.27557953406012        1.27585273948339        3.43823427785908
C           -1.81192402115629        0.34915570261357        4.35796224874921
C           -0.68956063540367        0.67442543878594        5.16210729268780
C            0.13728331467980        1.75593215006656        4.73425925692264
C           -0.37521776230784        2.66419838364041        3.78573117354321
C           -1.60452947792679        2.48136027579080        3.19114882324443
C           -0.28985966686259       -0.00389510602037        6.35464230722178
C            1.05665317698799        0.11264787381634        6.72203059289452
C            1.87528051909304        1.09818480600452        6.10602980691315
N            1.38355144989224        1.95921350961575        5.20252990261535
C           -1.11784177622848       -0.76588498377377        7.23414973341521
C           -0.47116205198705       -1.68264335841418        8.11359631881465
N            0.86159727600966       -1.70263955635377        8.30391556371341
C            1.59846504818677       -0.75182690978590        7.71193676263099
C            2.96503311000592       -0.63070232119043        8.03258956157443
C            3.77382279528164        0.34302457390878        7.45936088746844
C            3.21725181261446        1.20528303119433        6.52015808971146
C           -2.52768420243534       -0.62306992458774        7.32457723883363
C           -3.25410628559735       -1.54170326750195        8.06132230969379
C           -2.63783109764069       -2.56311431857088        8.79422203279860
C           -1.26235585009815       -2.59597715222684        8.84034464695105
O           -3.09794440183976        0.47709922723996        6.72678076041368
O           -2.46441835951424       -0.87165210503013        4.39774755284935
C           -2.20657083794995        3.57764676946901        2.31004644359115
C           -3.45639409378182       -3.57758899550753        9.59460776373642
C            5.24329307122238        0.51209962909828        7.85307527023897
C           -4.96403211504945       -3.45055009914765        9.33124496556698
C           -3.02142346761246       -4.99916403828640        9.20749160262226
C           -3.20132522080313       -3.34701910222432       11.09145955657359
C            6.12990762789967        0.45012524472635        6.59952992739834
C            5.41621164287255        1.87860006332028        8.53345865606100
C            5.70925328656429       -0.58076584648317        8.82424413807328
C           -2.82074937123469        4.62958416621888        3.24547878385235
C           -3.31014972714366        3.03992802433160        1.39268800288896
C           -1.12684311706428        4.24132021943985        1.44302540254592
H            0.23251564055171        3.51957880975032        3.54749802025798
H           -3.16447796450872        1.01699584593971        2.88834163720429
H            3.81137121122737        1.98828798861352        6.07955700332523
H            3.35398757651601       -1.31580436160464        8.76471895357211
H           -0.75074927494053       -3.30771753815456        9.46550541106764
H           -4.32380082160902       -1.45159860931780        8.08714297789836
C           -4.49586702029124        0.44617091865094        6.56645314595038
C           -1.65932077182047       -2.01446648623087        4.62464845120383
H           -0.43727446768450        4.82973257751276        2.04281478966443
H           -1.58636170969094        4.90957489768537        0.71667248519562
H           -0.55426341802948        3.49138728856089        0.90616623944801
H           -4.16436603790675        2.68455965428795        1.96465855594842
H           -2.94147909775286        2.22205584148211        0.78333101465561
H           -3.66482383118503        3.82054348150792        0.72240390923165
H           -3.59591704942351        4.18628445872852        3.86842574392485
H           -3.26649091412362        5.43466104596535        2.66325040723598
H           -2.06233259611135        5.05631900748464        3.89891233575057
H            5.89438574440989        1.25251074298782        5.90447320988264
H            5.99800366597557       -0.50050789180377        6.08567751554028
H            7.17953487443047        0.54406720334841        6.87355374412972
H            5.59292921788549       -1.56852294333980        8.38213197520491
H            5.14862374129194       -0.54144068505195        9.75591013107254
H            6.76201786567806       -0.44264314128392        9.06480945782927
H            5.14478234747998        2.69112718273440        7.86309191059519
H            6.45148403390134        2.02265511795128        8.83848583535957
H            4.78674907760859        1.94525244272608        9.41900301356976
H           -3.49144374328505       -2.33724945122333       11.37694213295170
H           -2.14966031464095       -3.47775457101700       11.33520631885893
H           -3.77896739324521       -4.05078190424556       11.68860117356042
H           -3.16962531302207       -5.16531397025063        8.14194716355845
H           -3.60733825624315       -5.73641560861950        9.75391118935559
H           -1.97207636303795       -5.16892851972847        9.43473090243506
H           -5.18614744125537       -3.57841227011701        8.27306095291734
H           -5.34221815679425       -2.48417878080850        9.65996807991977
H           -5.50514067597293       -4.21797847951665        9.88189007601106
H           -1.95783511886643       -2.78329770346606        3.91288414801818
H           -1.79922853040070       -2.39936955189715        5.63681550897172
H           -0.60563967979733       -1.78457904079128        4.46322147198323
H           -4.77129931060016        1.30820011474733        5.95881844084745
H           -5.00603273275876        0.51696559336206        7.53185084882226
H           -4.79322624867944       -0.46721844595130        6.04419470732927
152
 energy: -209.198746198594 gnorm: 0.010684635720 xtb: 6.7.1 (edcfbbe)
C           -3.07196772820122        1.88402548172403       -2.56896143255868
C           -2.87722635407008        0.74771095583248       -1.81807543219384
C           -1.86249680671942        0.71627787529924       -0.84108426048370
C           -0.86298365843110        1.73515868399056       -0.89705538145867
C           -1.07824415993605        2.86779095598548       -1.71425323538319
C           -2.20484292791814        2.99134094773453       -2.48837758974958
C           -1.72611892510062       -0.25787092744218        0.18995626257058
C           -0.46245180480679       -0.38623898464819        0.77460949930697
C            0.52227253189367        0.61715730943226        0.56593046446035
N            0.27413242118871        1.68549907626232       -0.19032145777947
C           -2.74794361907778       -1.11276330660138        0.70477048078043
C           -2.31484287772049       -2.30392477174357        1.36022231399976
N           -1.04096530613994       -2.51639902035575        1.71912398991415
C           -0.16554082219184       -1.52060534930931        1.57653336246117
C            1.10283144127051       -1.59986321225678        2.18943349256345
C            2.03817711833457       -0.57526689374595        2.07786100349235
C            1.74875369950960        0.50959016738845        1.25656878453007
C           -4.12999010931121       -0.83593599144421        0.67532950117986
C           -5.03207757656551       -1.79530209858269        1.08382361303714
C           -4.61986549694977       -3.04336958810247        1.57181593987351
C           -3.27283028429780       -3.27796487829568        1.71550454370712
O           -4.49533301870688        0.43016780860756        0.33679866325842
O           -3.67548003607260       -0.34665720393905       -2.09246970843697
C           -2.50531211517109        4.23321405185555       -3.31570682835105
C           -5.63480112288954       -4.08451114327350        2.02265468139693
C            3.37307862239737       -0.66268446246400        2.80867942059665
C           -7.07871087887575       -3.68440253233172        1.70208174533384
C           -5.34292327293040       -5.41444987703338        1.31741744529973
C           -5.50788142795762       -4.25919666377997        3.54227506142179
C            4.38021726665252       -1.37913571705597        1.89797725376200
C            3.90801580045010        0.73309700172885        3.14715117989450
C            3.23545879764956       -1.45135210312604        4.11690299067368
C           -3.88720506775624        4.77530575587632       -2.92529394488056
C           -2.49853487384422        3.86664794405973       -4.80610800463865
C           -1.47412343116680        5.34075238146217       -3.08616691710410
H           -0.31311826081722        3.62415630274467       -1.69509348142481
H           -3.90575459668087        1.88744359972263       -3.25487137077563
H            2.45098219845209        1.31424531458668        1.12072076040567
H            1.30494317259098       -2.48364934646552        2.77203918097296
H           -2.90787296648763       -4.18937001257774        2.16252875773987
H           -6.08137830492700       -1.56734064162013        1.04743739738680
C           -5.85976545546507        0.69176265812319        0.11944630377371
C           -2.96382265784097       -1.52522872308127       -2.41409730848078
H           -1.43891475339748        5.62652533549239       -2.03787220291463
H           -1.74410439612952        6.21933351658120       -3.66886456945108
H           -0.48344350053407        5.02287055848035       -3.40045390098550
H           -3.26208973236371        3.12914346673921       -5.03746702149642
H           -1.53092554691023        3.45884491550894       -5.09028797375964
H           -2.68929378397256        4.75265547927385       -5.40860152177272
H           -4.67057219603026        4.04951112520283       -3.12454736098588
H           -4.10794030794307        5.67717708504302       -3.49319130426268
H           -3.91040097880079        5.02219079184046       -1.86613037050169
H            4.51529486759735       -0.82970478455420        0.96902972027906
H            4.03572042773638       -2.38243688473983        1.65701075830623
H            5.34410615878526       -1.45556795856899        2.39778143197671
H            3.04618088077129       -2.50617718745840        3.93663059998677
H            2.42823836715454       -1.04977499163616        4.72332691142610
H            4.15507119743826       -1.37842606577308        4.69302555159806
H            4.20475813277856        1.27544564158137        2.25375727746786
H            4.78741124430557        0.64086887387562        3.78055934142336
H            3.15536863762785        1.31185712764245        3.67622289444447
H           -5.69217311302357       -3.31277889772999        4.04666166345495
H           -4.51284466396760       -4.59907612504331        3.81477642201776
H           -6.23160773213974       -4.98961443612927        3.89890180350393
H           -5.40163593988389       -5.28908640599331        0.23839160030076
H           -6.07093617621214       -6.16522178014193        1.61788502781181
H           -4.35227613880584       -5.78334934762003        1.56466533206401
H           -7.20959291017169       -3.51517736534865        0.63539612323092
H           -7.37179088376883       -2.78916247283948        2.24622089191258
H           -7.75292963514652       -4.48478398130860        2.00016757447887
H           -3.71263115114578       -2.28287104401563       -2.64525139453744
H           -2.34512238935163       -1.88485877233812       -1.58644805117026
H           -2.32370958809099       -1.36674532386032       -3.28994298642274
H           -5.91724464929200        1.72154627169071       -0.23596462386997
H           -6.44411903116405        0.60206181305384        1.04329878039363
H           -6.26354816826451        0.01786716780502       -0.64374085175580
C           -2.26416292459835        1.27381345289965        3.43409557754123