218
 energy: -579.985180349366 gnorm: 0.493929765156 xtb: 6.7.1 (edcfbbe)
C            1.83210000000000        2.51550000000000        2.31820000000000
C            1.88740000000000        1.13490000000000        2.18760000000000
C            2.93800000000000        0.48800000000000        1.49290000000000
C            3.91200000000000        1.34260000000000        0.90590000000000
C            3.80360000000000        2.74540000000000        1.04870000000000
C            2.78860000000000        3.32310000000000        1.75480000000000
C            3.06390000000000       -0.95150000000000        1.41240000000000
C            4.28370000000000       -1.36300000000000        0.82810000000000
C            5.15880000000000       -0.42770000000000        0.19760000000000
N            4.95720000000000        0.89370000000000        0.19600000000000
C            2.22890000000000       -2.00820000000000        1.97370000000000
C            2.91950000000000       -3.25310000000000        2.21030000000000
N            4.03830000000000       -3.64710000000000        1.57750000000000
C            4.69350000000000       -2.72320000000000        0.87560000000000
C            5.89110000000000       -3.11460000000000        0.25800000000000
C            6.68040000000000       -2.21670000000000       -0.41280000000000
C            6.32250000000000       -0.89270000000000       -0.43320000000000
C            0.79160000000000       -2.05200000000000        2.34800000000000
C            0.38170000000000       -3.02400000000000        3.29330000000000
C            1.21410000000000       -4.00430000000000        3.75620000000000
C            2.43890000000000       -4.15980000000000        3.17310000000000
O            0.86580000000000        0.40050000000000        2.68760000000000
C           -2.82750000000000       -0.34030000000000        3.29730000000000
C           -2.54660000000000        0.49220000000000        2.22350000000000
C           -3.46900000000000        0.66070000000000        1.15460000000000
C           -4.71700000000000       -0.01360000000000        1.29960000000000
C           -4.90880000000000       -0.92740000000000        2.36030000000000
C           -3.96300000000000       -1.10620000000000        3.32610000000000
C           -3.24210000000000        1.51830000000000        0.01120000000000
C           -4.42570000000000        1.82540000000000       -0.69740000000000
C           -5.64940000000000        1.14380000000000       -0.42490000000000
N           -5.76530000000000        0.16960000000000        0.48280000000000
C           -2.03140000000000        2.16120000000000       -0.45350000000000
C           -2.19950000000000        3.22010000000000       -1.41440000000000
N           -3.36290000000000        3.57120000000000       -1.98800000000000
C           -4.44620000000000        2.86770000000000       -1.66150000000000
C           -5.64870000000000        3.19690000000000       -2.30500000000000
C           -6.80970000000000        2.51240000000000       -2.05620000000000
C           -6.80770000000000        1.50090000000000       -1.13050000000000
C           -0.63730000000000        1.79790000000000       -0.15970000000000
C            0.39150000000000        2.61500000000000       -0.68060000000000
C            0.18610000000000        3.62310000000000       -1.57280000000000
C           -1.09670000000000        3.93500000000000       -1.91910000000000
O           -1.30680000000000        1.04380000000000        2.21860000000000
B           -0.22930000000000        0.14760000000000        1.71810000000000
N           -0.25920000000000       -1.39420000000000        1.71700000000000
C           -1.20560000000000       -3.37590000000000        0.56890000000000
C           -1.45610000000000       -2.06010000000000        1.28320000000000
N           -0.17080000000000        0.54180000000000        0.22820000000000
C            0.31540000000000       -0.28770000000000       -2.04530000000000
C            0.73230000000000       -0.22830000000000       -0.58730000000000
S           -8.39900000000000        2.94460000000000       -2.99440000000000
F           -7.93530000000000        1.89760000000000       -4.09180000000000
F           -7.58620000000000        4.07910000000000       -3.74010000000000
F           -9.72310000000000        3.29120000000000       -3.79500000000000
F           -9.12010000000000        1.78340000000000       -2.19780000000000
F           -8.76170000000000        3.96300000000000       -1.83300000000000
S            1.69460000000000        4.42540000000000       -2.39270000000000
F            2.58930000000000        3.74360000000000       -1.28890000000000
F            1.49950000000000        5.71270000000000       -1.49340000000000
F            2.95550000000000        5.04180000000000       -3.12170000000000
F            0.69730000000000        5.03830000000000       -3.45300000000000
F            1.77400000000000        3.08770000000000       -3.23750000000000
S           -4.05170000000000       -2.44120000000000        4.66270000000000
F           -4.91190000000000       -3.26330000000000        3.63270000000000
F           -5.34610000000000       -1.72760000000000        5.18480000000000
F           -4.10170000000000       -3.57690000000000        5.73590000000000
F           -3.16260000000000       -1.55460000000000        5.59970000000000
F           -2.73520000000000       -2.97810000000000        3.99010000000000
S            0.67580000000000       -5.12010000000000        5.18890000000000
F            0.43060000000000       -6.25890000000000        4.13110000000000
F           -0.79100000000000       -4.60580000000000        4.97830000000000
F            0.23390000000000       -5.98560000000000        6.42140000000000
F            0.93090000000000       -3.87170000000000        6.09800000000000
F            2.17570000000000       -5.55750000000000        5.31350000000000
S            8.25040000000000       -2.79530000000000       -1.30300000000000
F            7.92740000000000       -4.26400000000000       -0.80840000000000
F            9.06150000000000       -2.51570000000000        0.03200000000000
F            9.55230000000000       -3.28200000000000       -2.06660000000000
F            7.33700000000000       -3.03210000000000       -2.57780000000000
F            8.48210000000000       -1.29580000000000       -1.75290000000000
S            2.60910000000000        5.19670000000000        1.96240000000000
F            3.91130000000000        5.19550000000000        2.86820000000000
F            2.42680000000000        6.76410000000000        2.10800000000000
F            1.31100000000000        5.05480000000000        1.06820000000000
F            3.52910000000000        5.36850000000000        0.68760000000000
F            1.72710000000000        4.92460000000000        3.24080000000000
H           -2.13670000000000       -3.84480000000000        0.24390000000000
H           -0.69850000000000       -4.09010000000000        1.21910000000000
H           -0.57820000000000       -3.23640000000000       -0.31110000000000
H           -2.00490000000000       -1.37330000000000        0.63440000000000
H           -2.07970000000000       -2.23360000000000        2.16250000000000
H            0.79950000000000       -1.23410000000000       -0.16870000000000
H            1.73100000000000        0.20390000000000       -0.49880000000000
H           -0.69570000000000       -0.68260000000000       -2.14640000000000
H            0.98220000000000       -0.91800000000000       -2.63680000000000
H            0.32240000000000        0.70360000000000       -2.50110000000000
H           -5.81340000000000       -1.51550000000000        2.39120000000000
H           -7.72860000000000        0.97740000000000       -0.91820000000000
H           -5.65490000000000        4.01350000000000       -3.01310000000000
H            4.53120000000000        3.37890000000000        0.56070000000000
H            6.21650000000000       -4.14200000000000        0.35660000000000
H            6.96600000000000       -0.17890000000000       -0.92740000000000
H            3.09270000000000       -4.95580000000000        3.50410000000000
H           -1.26920000000000        4.70280000000000       -2.65990000000000
H           -0.63140000000000       -3.00560000000000        3.67240000000000
H            1.01220000000000        2.95530000000000        2.86610000000000
H            1.41260000000000        2.36660000000000       -0.44310000000000
H           -2.09060000000000       -0.45680000000000        4.07520000000000
C            2.16150000000000        1.05490000000000       10.54840000000000
C            1.83190000000000       -0.15270000000000        9.94040000000000
C            2.82310000000000       -0.93010000000000        9.28330000000000
C            4.08220000000000       -0.29600000000000        9.06720000000000
C            4.35520000000000        0.94190000000000        9.68380000000000
C            3.42140000000000        1.59910000000000       10.42970000000000
C            2.62350000000000       -2.28300000000000        8.82600000000000
C            3.66850000000000       -2.76780000000000        8.01880000000000
C            4.73160000000000       -1.91160000000000        7.60240000000000
N            4.99930000000000       -0.74260000000000        8.19410000000000
C            1.53940000000000       -3.21070000000000        9.06610000000000
C            1.85700000000000       -4.60110000000000        8.85460000000000
N            2.83580000000000       -5.03660000000000        8.04170000000000
C            3.62650000000000       -4.09600000000000        7.51020000000000
C            4.44130000000000       -4.42120000000000        6.41360000000000
C            5.31410000000000       -3.50480000000000        5.87820000000000
C            5.51580000000000       -2.29980000000000        6.50730000000000
C            0.13150000000000       -2.95140000000000        9.45110000000000
C           -0.51790000000000       -3.98730000000000       10.17930000000000
C           -0.07500000000000       -5.28460000000000       10.15170000000000
C            1.05560000000000       -5.59490000000000        9.44240000000000
O            0.51960000000000       -0.50850000000000        9.91320000000000
C           -3.59500000000000       -0.33780000000000        9.04650000000000
C           -2.63380000000000        0.38410000000000        8.34590000000000
C           -2.93930000000000        0.96880000000000        7.07720000000000
C           -4.27770000000000        0.77220000000000        6.61600000000000
C           -5.15490000000000       -0.09240000000000        7.30700000000000
C           -4.81330000000000       -0.65090000000000        8.49810000000000
C           -2.04480000000000        1.78830000000000        6.28260000000000
C           -2.68020000000000        2.50120000000000        5.24130000000000
C           -4.04100000000000        2.25410000000000        4.90210000000000
N           -4.80120000000000        1.35460000000000        5.52760000000000
C           -0.62250000000000        1.99270000000000        6.39910000000000
C           -0.03670000000000        3.03640000000000        5.60450000000000
N           -0.69380000000000        3.76770000000000        4.69100000000000
C           -1.97630000000000        3.47530000000000        4.48290000000000
C           -2.62490000000000        4.14960000000000        3.43720000000000
C           -3.92220000000000        3.86780000000000        3.10310000000000
C           -4.62300000000000        2.94180000000000        3.82850000000000
C            0.32080000000000        1.13930000000000        7.12160000000000
C            1.69360000000000        1.49780000000000        7.11910000000000
C            2.21200000000000        2.44620000000000        6.28560000000000
C            1.35510000000000        3.25280000000000        5.59410000000000
O           -1.41530000000000        0.42050000000000        8.96350000000000
B           -0.37700000000000       -0.61780000000000        8.72860000000000
N           -0.72420000000000       -2.11680000000000        8.72620000000000
C           -1.84550000000000       -3.98090000000000        7.50310000000000
C           -1.92850000000000       -2.57520000000000        8.08090000000000
N            0.12490000000000       -0.22850000000000        7.32380000000000
C            1.32320000000000       -0.76240000000000        5.22170000000000
C            0.87850000000000       -1.21040000000000        6.59910000000000
S           -4.73300000000000        4.70950000000000        1.61360000000000
F           -5.43320000000000        3.33060000000000        1.33700000000000
F           -3.47140000000000        4.24080000000000        0.80510000000000
F           -5.38460000000000        5.35530000000000        0.33450000000000
F           -5.93350000000000        5.11800000000000        2.55060000000000
F           -3.96890000000000        6.03220000000000        2.00530000000000
S            4.08130000000000        2.45480000000000        5.97040000000000
F            3.96400000000000        0.88270000000000        5.96480000000000
F            4.28790000000000        2.41730000000000        7.52380000000000
F            5.62810000000000        2.41680000000000        5.68440000000000
F            4.02420000000000        4.02920000000000        5.97990000000000
F            3.71810000000000        2.45530000000000        4.43950000000000
S           -5.90060000000000       -1.91360000000000        9.39070000000000
F           -6.94610000000000       -0.75920000000000        9.65540000000000
F           -5.14800000000000       -1.54140000000000       10.72890000000000
F           -6.78010000000000       -3.00410000000000       10.12000000000000
F           -4.73920000000000       -2.93340000000000        9.05310000000000
F           -6.59610000000000       -2.20310000000000        8.00190000000000
S           -1.10380000000000       -6.64360000000000       10.97470000000000
F           -2.04540000000000       -6.52010000000000        9.70980000000000
F           -1.93670000000000       -5.50730000000000       11.69010000000000
F           -1.98180000000000       -7.78140000000000       11.63300000000000
F           -0.06750000000000       -6.63400000000000       12.16900000000000
F           -0.20560000000000       -7.69920000000000       10.21660000000000
S            6.19130000000000       -3.85410000000000        4.23280000000000
F            5.02060000000000       -4.85100000000000        3.91730000000000
F            6.98320000000000       -5.01440000000000        4.94750000000000
F            6.85770000000000       -4.10970000000000        2.83230000000000
F            5.32990000000000       -2.66200000000000        3.66780000000000
F            7.30230000000000       -2.82350000000000        4.66440000000000
S            3.81930000000000        3.26550000000000       11.23730000000000
F            4.40230000000000        2.45290000000000       12.46500000000000
F            4.15190000000000        4.65860000000000       11.91160000000000
F            3.19380000000000        3.95680000000000        9.95690000000000
F            5.23610000000000        3.20770000000000       10.53790000000000
F            2.38490000000000        3.23000000000000       11.89880000000000
H           -2.70840000000000       -4.22290000000000        6.87760000000000
H           -1.80620000000000       -4.74900000000000        8.27730000000000
H           -0.95200000000000       -4.08690000000000        6.88870000000000
H           -2.15390000000000       -1.86590000000000        7.27680000000000
H           -2.74920000000000       -2.52750000000000        8.80320000000000
H            0.28880000000000       -2.12610000000000        6.54740000000000
H            1.75760000000000       -1.45070000000000        7.18690000000000
H            0.47890000000000       -0.40440000000000        4.63240000000000
H            1.81380000000000       -1.56960000000000        4.67850000000000
H            2.04690000000000        0.05180000000000        5.26710000000000
H           -6.09420000000000       -0.36400000000000        6.84550000000000
H           -5.64400000000000        2.72320000000000        3.55710000000000
H           -2.07900000000000        4.88960000000000        2.87130000000000
H            5.30440000000000        1.42170000000000        9.48650000000000
H            4.29560000000000       -5.37330000000000        5.92370000000000
H            6.25000000000000       -1.60970000000000        6.11710000000000
H            1.32500000000000       -6.63170000000000        9.30260000000000
H            1.76150000000000        4.00120000000000        4.93050000000000
H           -1.46920000000000       -3.78560000000000       10.65100000000000
H            1.39200000000000        1.59690000000000       11.07770000000000
H            2.39160000000000        0.85400000000000        7.62780000000000
H           -3.33780000000000       -0.72330000000000       10.02190000000000
218
 energy: -580.153922986536 gnorm: 0.347311531939 xtb: 6.7.1 (edcfbbe)
C            1.82806982337928        2.51445197739966        2.32204770733728
C            1.88339690850558        1.13666966895446        2.18635374612416
C            2.92912231685508        0.48642000127233        1.49640529349820
C            3.91207033001438        1.34291013098644        0.90613226105236
C            3.80951347700053        2.75002424824117        1.04575547818143
C            2.79478068591633        3.31771512396189        1.75587836463100
C            3.05934712166245       -0.95330060436182        1.41807979305983
C            4.28048597188448       -1.36303884704326        0.83031666115441
C            5.15823642466923       -0.42599996271418        0.20153971579346
N            4.95306876018019        0.88978213912343        0.20340731779807
C            2.21633319999509       -2.00311060185458        1.97307336679117
C            2.91333613041946       -3.24709675554670        2.21160487092398
N            4.02969027167956       -3.62988330328089        1.58378692411541
C            4.68958612440635       -2.72449419502164        0.87232243707143
C            5.89121331336518       -3.12320162602843        0.25472655981002
C            6.67681030819382       -2.21600633766030       -0.41023853950661
C            6.32510921740669       -0.88883900747689       -0.43673707339773
C            0.78844683574869       -2.06087632447350        2.33577057997867
C            0.37928170741198       -3.02295470278132        3.28046876788183
C            1.21832933028349       -4.00480047234682        3.75162509220467
C            2.43647289517872       -4.16808486670492        3.17160788608078
O            0.87129593771015        0.40959326235198        2.67232015386988
C           -2.82511657657877       -0.33534198953551        3.30003955790608
C           -2.54094002896303        0.49231013958978        2.22377096822559
C           -3.45993761186561        0.66577322364470        1.16000405459414
C           -4.71543773784248       -0.01130744916062        1.30108247309609
C           -4.91419302171091       -0.93265069400657        2.35973032589176
C           -3.97098881590679       -1.09609388166051        3.32669211402582
C           -3.23641908451008        1.51787236250650        0.01337821545434
C           -4.42160649393157        1.82207950720774       -0.69679792847913
C           -5.64738746654846        1.14154811960987       -0.42355541926781
N           -5.75667680546584        0.17450637909894        0.48513268772317
C           -2.02068538554812        2.15006813011783       -0.45205374861906
C           -2.19533001397126        3.21713017999189       -1.41046289075411
N           -3.35751850059093        3.56191438047130       -1.97597636601251
C           -4.44257576840026        2.86432460814517       -1.66406056722725
C           -5.64818586547952        3.20153978991562       -2.31073396277908
C           -6.80602713671146        2.51259919351889       -2.05299287984427
C           -6.81226044907478        1.49629082987545       -1.12996672247646
C           -0.63756580927652        1.78284375805620       -0.18896772009546
C            0.38970278905334        2.60314763350287       -0.68565249285431
C            0.18027447493110        3.63348895449158       -1.56336595418267
C           -1.09585605009826        3.94149599800120       -1.92406692657327
O           -1.31707643699050        1.03580859023973        2.22072755493713
B           -0.23121790513957        0.15292898866636        1.71975730790898
N           -0.25046025177836       -1.38376371951259        1.71970586638457
C           -1.19933415000357       -3.38239441662508        0.56733048220463
C           -1.45002383842295       -2.06688426939765        1.28965464734402
N           -0.18288378420814        0.53796562410092        0.23524238751033
C            0.31162073212993       -0.28318353375175       -2.05173806994542
C            0.73412550667257       -0.21548020473485       -0.59295109629637
S           -8.38141632324620        2.94098061189690       -2.98328733922594
F           -7.94008091823164        1.88805726698679       -4.11058428365609
F           -7.59397831157653        4.09721513311217       -3.75968414047462
F           -9.71048981005436        3.28835664534098       -3.78712172706232
F           -9.14634720469042        1.77413331186828       -2.19969325523168
F           -8.77381244136791        3.97661081497625       -1.82434927252680
S            1.67614912942981        4.42089053154614       -2.37938645659290
F            2.61765438544897        3.74521706654241       -1.28307408205245
F            1.50400649516439        5.73488237965017       -1.48814406793046
F            2.94205018623686        5.03672737870696       -3.11491799890938
F            0.70050056834439        5.05132201920028       -3.47912946640130
F            1.78491159158452        3.07794690405626       -3.25429236974490
S           -4.06207927942034       -2.42293777008792        4.63989260733061
F           -4.92584187794758       -3.29536612805254        3.62396333510913
F           -5.37577296728160       -1.72916257413159        5.19566761213365
F           -4.11925361635692       -3.56427579455365        5.71855268707041
F           -3.15905297077668       -1.54807642253899        5.61180123672654
F           -2.72213349322745       -3.00468809709276        3.99514712822503
S            0.68377164733739       -5.11427615974525        5.16310150172105
F            0.42159553024268       -6.28940417835010        4.12049442719954
F           -0.81337009507499       -4.61410357951702        4.97134215275629
F            0.23904757278833       -5.98518598356425        6.40330818075325
F            0.94517083581960       -3.87183090214862        6.11867052129077
F            2.19030851612492       -5.58381773031635        5.32671018617610
S            8.23365764421738       -2.78938224592092       -1.29136612895654
F            7.94006057397132       -4.28791647954887       -0.81287587042545
F            9.07885003156420       -2.51556017636117        0.04302146893696
F            9.54011939423740       -3.27758638643789       -2.05855256265565
F            7.33640374344139       -3.03825758159664       -2.59815495919649
F            8.50184833354128       -1.28541386436170       -1.76897597175304
S            2.61396709667415        5.17311912126408        1.95206790270979
F            3.92393823124760        5.20411502772402        2.87832677245709
F            2.43035596999596        6.74719076448040        2.10173629994094
F            1.29062404912152        5.06531711620115        1.05493473933452
F            3.54175166707220        5.38699174429450        0.66847875932156
F            1.71970839724935        4.94439876860205        3.25290309373010
H           -2.13628091909081       -3.83673832098706        0.24721438842278
H           -0.69751912648662       -4.09181310934082        1.22080015782613
H           -0.57717293652807       -3.23414438720236       -0.31275629948792
H           -1.99251855651920       -1.37738294425380        0.63505965748231
H           -2.08477784520428       -2.24505094927019        2.15561440359312
H            0.79163551690705       -1.22383070181362       -0.17107762445423
H            1.73959009141677        0.20724955566109       -0.51104658862208
H           -0.69648872183397       -0.68335063010579       -2.14348757176252
H            0.98320097742766       -0.91743496884203       -2.62915013474082
H            0.32330226851863        0.70593314110564       -2.50333299225916
H           -5.81994705051285       -1.51189378313023        2.38718661350039
H           -7.72467595800196        0.97031732143203       -0.91162994066639
H           -5.64539510846501        4.01646867550464       -3.01261089048223
H            4.53933985248269        3.37357781897993        0.56030058195700
H            6.20799520037699       -4.14596267454780        0.35875981314941
H            6.95988089207476       -0.17077984924892       -0.92576206217075
H            3.08481818996960       -4.96309369995290        3.48409889284177
H           -1.27958131075588        4.70382154078387       -2.66043781659328
H           -0.62709943319649       -2.99486974608602        3.66005991608243
H            1.00533528043676        2.94801831572234        2.86302143440820
H            1.40572398622454        2.35592681006189       -0.43756194382837
H           -2.08452939290521       -0.45160035832321        4.07171089862012
C            2.15360188978605        1.05412875728334       10.54815916418098
C            1.81857772491551       -0.14851016344538        9.93016666178345
C            2.81207369437618       -0.93079648432687        9.28940760370759
C            4.07933009514722       -0.29774263393017        9.06923905939722
C            4.36241562899653        0.94194475474412        9.68609418876078
C            3.42269365029755        1.58961713712398       10.43152479702711
C            2.61534691752636       -2.28172622712609        8.82212861068401
C            3.66951820319122       -2.77023516607594        8.01960364544129
C            4.73338387764029       -1.91281654353355        7.60535046088012
N            4.99011416697119       -0.75016928218991        8.20137857820614
C            1.53127904560043       -3.20118909351924        9.06826379490840
C            1.85580579408781       -4.59412784036833        8.86094576947114
N            2.83341399558318       -5.01866074924796        8.05340193991513
C            3.62816365118193       -4.09649278566350        7.51069547238738
C            4.44471610905515       -4.42778616083314        6.41172419592024
C            5.31572709595240       -3.50499428002126        5.88468299407588
C            5.52108902513911       -2.29631684284357        6.50500568154270
C            0.12392236768406       -2.96839923201025        9.42421839776592
C           -0.52218388417011       -3.98584353157827       10.16456282873240
C           -0.06117817305608       -5.28227311597909       10.16027791854977
C            1.05824865062582       -5.60183393842382        9.44515449606920
O            0.52393248268372       -0.50365249132403        9.91123162297629
C           -3.58963663463853       -0.33948430886077        9.04984056678903
C           -2.62078419520550        0.37468345358927        8.34817653133278
C           -2.92958851109991        0.96872708713394        7.08970728720139
C           -4.27559933394927        0.77389485857475        6.62128168371391
C           -5.16217737054084       -0.09333299936748        7.30610359440981
C           -4.81529508337509       -0.64194039319646        8.49782348066756
C           -2.04220518088733        1.78380336032923        6.28562803643775
C           -2.67895524951659        2.49839411681297        5.24266876213226
C           -4.04159540191013        2.25078777150746        4.90232318445877
N           -4.79233491632066        1.35498421186433        5.53629294964537
C           -0.61816159702184        1.98114777094670        6.40372716767180
C           -0.03481597229933        3.03357913414556        5.60858667529702
N           -0.69800842307558        3.76147375358371        4.70570164662978
C           -1.97317950592479        3.47299980344083        4.48135051918816
C           -2.62130302087675        4.15496425957340        3.43190177197883
C           -3.92178816181583        3.86875433873129        3.10873231129499
C           -4.63061976329682        2.93972755988253        3.82548999586627
C            0.33027818124538        1.13073221099336        7.08730652115921
C            1.69189054941806        1.48747913356718        7.11138805935169
C            2.20788407135572        2.46049915392807        6.29619829199264
C            1.36082527980389        3.25720860512800        5.59342047051830
O           -1.42156981953492        0.41904339126846        8.96594752088331
B           -0.37640814221705       -0.60775399502960        8.73573078055501
N           -0.71147603574710       -2.10521236016853        8.73411218886065
C           -1.84271456062594       -3.98492981140291        7.51639443395335
C           -1.91912686349433       -2.57903742988162        8.09578343370763
N            0.11174898510189       -0.22255567980153        7.33149532759304
C            1.32362050802441       -0.75744155842214        5.21918286893375
C            0.88159993655457       -1.19364846907444        6.59931081968416
S           -4.72268759673841        4.70118459135143        1.63478866731076
F           -5.44950063473666        3.31794510487289        1.32170768279273
F           -3.45811493213384        4.24282827393526        0.78492456823602
F           -5.37881801798056        5.35018468185664        0.34920405951046