116
 energy: -22.928061455056 gnorm: 0.329736929581 xtb: 6.6.1 (8d0f1dd)
C           -3.31122850772930        0.79849766164622       -0.92477639677520
C           -2.44380812530352       -0.12270372891954       -0.27661132624697
C           -1.41337090092821        0.39579727573559        0.56335275196199
C           -0.89266158675590        1.65801491088749        0.27377586709581
C           -1.72665675402493        2.51431363229076       -0.49448366572522
C           -2.95444148494349        2.13954154133227       -1.01494489940871
C           -0.74098268209890       -0.43411532818871        1.49825021926784
C            0.56872586496315        0.03782116815119        1.86248088067890
C            1.03782416582094        1.29402317993033        1.50887470833621
N            0.31238977034758        2.07067427098208        0.65193736800696
C           -1.29695700510141       -1.39996043042223        2.41574187746061
C           -0.38243517664656       -2.18060797534842        3.13232615520648
N            0.91308504082021       -1.90366887689689        3.30325166013478
C            1.37712470144904       -0.74872102533751        2.81811050966982
C            2.52149331701875       -0.17739833758153        3.39379298866852
C            2.95849061756259        1.02681208890480        2.95105897606587
C            2.24288949469137        1.78498308775960        2.03503020483770
C           -2.74860936222260       -1.74497937691422        2.38401158947411
C           -3.09416315450955       -2.91614440870436        3.00571134491758
C           -2.16786021984049       -3.77788778654213        3.63251872101904
C           -0.85708937311598       -3.40495313382985        3.68547234358092
O           -3.71994433332149       -0.94984598373544        1.67726658385724
O           -2.55702603277562       -1.47241711578389       -0.57241635275616
C           -3.84297843593025        3.13357444054366       -1.60938954875544
C           -2.68769581069131       -5.03867041417370        4.30484659386931
H           -1.39666850744143        3.51251503834900       -0.76806311868865
H           -4.27662633836220        0.55105838579656       -1.33106614114542
H            2.66329581305412        2.73912661909249        1.72562431984580
H            3.05775395548473       -0.69369546277216        4.16536137542516
H           -0.24710966264510       -4.12034095424229        4.22946223699121
H           -4.11477991332403       -3.04712728052358        3.03244694615357
O           -4.21824883374556        4.03433712717988       -0.87713382485991
O           -4.44510595673734        2.90643496899600       -2.81853501752979
C           -5.44216520282800        3.83300025693726       -3.02488532025093
C            4.23586651889298        1.50004220933226        3.59165660008449
O            5.05927614697201        0.66079890002952        3.91714215179376
O            4.47001334453535        2.86385149488593        3.72605651435371
C            5.79457498613219        3.08584475587818        4.15829123132174
O           -3.82227255313510       -5.27347675879771        4.16636005494405
O           -1.85023202017753       -5.79767454267276        5.06656077253571
C           -2.55119635829503       -6.86252441382958        5.62930343183426
C           -5.07197156564436       -1.42399175670916        1.58830531863830
C           -1.33089900128490       -2.23622472573986       -0.99264499351172
H           -2.54510546830388       -7.76426885143998        4.99136022291012
H           -3.57194749219491       -6.44405511486021        5.74196173723541
H           -2.09133598235598       -7.02043774843818        6.64022264233588
H            5.72707967266424        3.46798026205549        5.10135971236643
H            6.34060091246885        3.78468702308830        3.50069950143490
H            6.17933064298187        2.03010500085905        4.19342358084693
H           -0.91862729772622       -2.57650129080332       -0.01361370304871
H           -0.49769766914251       -1.60651221708571       -1.34094446550576
H           -1.52632419730509       -2.94569707152159       -1.75361447637286
H           -5.11788846557077       -2.41810833635233        1.17520213188926
H           -5.67929807973498       -0.69619639428435        1.04301666067831
H           -5.57598832326623       -1.42383358739762        2.57928294206544
H           -6.13050215934830        3.76035386975488       -2.23272855695873
H           -5.86615610071888        3.45938329385866       -4.02668959924245
H           -5.13479557532099        4.87790991548477       -2.98314551356402
C           -1.38192942069774        3.73616555005018        2.91232598411686
C           -1.84821468128685        2.59982427735607        3.49755545445181
C           -1.05946531454833        2.05730632010638        4.60922730982276
C            0.19893954712228        2.69376791964407        4.86302140881997
C            0.50425395911860        3.94630308659851        4.28768785650746
C           -0.26031777722226        4.46998310053134        3.25072669343212
C           -1.20488993561782        0.74454293276906        5.14851520323437
C           -0.06287609782692        0.02744069315890        5.60930570802864
C            1.19208754369866        0.71421540266195        5.78882868583885
N            1.19428660993148        2.06344359410476        5.62744624321596
C           -2.41361422770794        0.07928500213936        5.25249410304426
C           -2.45851584031083       -1.32662100968547        5.60237876023992
N           -1.29466212405906       -1.98318595734370        5.89916817085159
C           -0.14475655767527       -1.32117560077092        5.98824682881008
C            0.97209270935794       -1.98958449505532        6.53157704134458
C            2.21982707914082       -1.36973967291181        6.68703967237737
C            2.30561929262884       -0.09745313075593        6.26436900324455
C           -3.73018485967715        0.71367583494582        5.25810242262992
C           -4.89964478833448       -0.06184623426677        5.21204641615509
C           -4.82617965800088       -1.39228978090841        5.46901303780036
C           -3.67144193418464       -1.98914944386360        5.67265433266067
O           -3.75568638935321        2.07705011038914        5.52067969627343
O           -2.94192434743730        1.91263938797883        3.01658762327703
C            0.21273512614467        5.50086066357994        2.34765104514621
C           -6.06660304520411       -2.17604633098929        5.80641622556876
H            1.41756699010566        4.38133362238595        4.66974005703471
H           -1.82880610647429        4.11982501512100        2.06992133318584
H            3.26888037378556        0.32655662585251        6.31721410015598
H            0.87146188387207       -3.08471526305024        6.57830423410869
H           -3.67716811065157       -3.05999292755990        5.83019634570050
H           -5.77379677507622        0.43595144608221        4.71017130754348
O            1.34459852619901        5.82615848916894        2.44941456579099
O           -0.74718748219123        6.07961784856304        1.59848183464284
C           -0.21473095568964        7.24015934882472        1.05753806029483
C            3.53228080814219       -2.00967610361154        7.02506769044485
O            3.64093082622715       -3.14437803815732        7.50071391725347
O            4.56565258381079       -1.22937033368332        6.69086985080897
C            5.72579357310716       -1.80692399125161        7.22246151275881
O           -7.04801223588612       -1.95726935745904        5.14194115322235
O           -6.01514389321278       -2.93743591896022        6.94765316328794
C           -7.21292732384718       -3.62681918543340        7.15115816329978
C           -4.95459780685163        2.65960679932188        5.86868674392943
C           -3.68284113682406        2.59129188358641        2.05479246020704
H           -7.43119628931628       -4.22607794725959        6.20622607140901
H           -8.06548455146707       -2.91765848248592        7.29781126410398
H           -7.07314693247270       -4.33087306029711        7.91223421050944
H            6.57332189837178       -1.29353136199234        6.78341268688262
H            5.74663761932316       -2.84282155125561        6.88089468184451
H            5.69426191474290       -1.72781984964892        8.29460302186842
H           -4.10481209541493        3.44288266176275        2.60483747673152
H           -4.49244774344916        1.87419893016926        1.82433103764650
H           -3.18901540870812        2.85154642679373        1.06781919454921
H           -5.55414326821421        2.76698137191684        4.93950725322359
H           -4.78658370641210        3.62090640967288        6.25983200635257
H           -5.43485580473958        1.97242995129449        6.65265772412460
H            0.89164886030839        7.38838561720231        1.13776105146914
H           -0.62894889903848        8.04195665205089        1.64837664327952
H           -0.59282546386754        7.45699159724320        0.03719083132488
116
 energy: -22.887241373195 gnorm: 0.368456357119 xtb: 6.6.1 (8d0f1dd)
C           -3.20698652022181        0.89362255692493       -0.64718920704704
C           -2.48745904293411       -0.14190425765308       -0.01953786750776
C           -1.34996896033440        0.24984729423386        0.77166610358210
C           -0.96073535030881        1.60101343242339        0.75714315230034
C           -1.77165791765626        2.58170133357274        0.04120677716924
C           -2.96641162457136        2.28356878270518       -0.59515461605920
C           -0.55361701260201       -0.63760431679016        1.61093114086132
C            0.77558177728468       -0.26346927352657        1.86195478554518
C            1.05385936733636        1.08285949838804        1.78991536053954
N            0.20744643753763        2.01959808787134        1.33152910797694
C           -0.95436913460588       -1.97942940428046        2.23967296388336
C            0.00719397073797       -2.82525145007674        2.85733891991422
N            1.29101642633471       -2.38903760477117        2.91389566928693
C            1.69569185230261       -1.20828991721911        2.46199105671933
C            2.96170338897019       -0.74915496702384        2.87258614044688
C            3.24719617399553        0.64492738894381        2.77796129779853
C            2.27684879833933        1.54273198101972        2.28361349113911
C           -2.30786147241242       -2.36300909267769        2.36127543192824
C           -2.66575238718376       -3.62129056895493        2.72631812260703
C           -1.66461305155878       -4.51899082365540        3.19280042204372
C           -0.33443559169353       -4.08524389226997        3.29101864946330
O           -3.27556540572625       -1.29568793866095        2.26047168910318
O           -2.73024924208419       -1.45599316962670       -0.47893661169927
C           -3.96982726723337        3.26186635651588       -1.03555733344712
C           -2.06095924666540       -5.87609938345947        3.50070352775463
H           -1.56983129615029        3.65307903263557        0.16575531039743
H           -4.00658540948256        0.50215370901258       -1.29921325077316
H            2.59871460595093        2.53442021134100        2.08050650374426
H            3.68058393864903       -1.36390112777175        3.38838124004780
H            0.54127287663993       -4.71810214965210        3.47346461642692
H           -3.63359486315511       -4.00442206889561        2.74258610778296
O           -3.60611876490833        4.37821674056859       -0.82333485655191
O           -4.93879218851490        2.84104515750964       -1.86655134684102
C           -5.75302718503202        3.85543719556282       -2.27268987119742
C            4.49876515195415        1.11716468714548        3.30222753625657
O            5.35722031280044        0.28620652338173        3.62834984399348
O            4.69407556459643        2.48175193197931        3.24404639306980
C            6.04579905326487        2.65174081804408        3.52000516875442
O           -3.21908785965788       -6.22790707704582        3.60334619255180
O           -0.99622307083658       -6.72488962690395        3.83488388072828
C           -1.26768448231725       -8.07248687742001        4.02251028637328
C           -4.54397985141290       -1.73491348059523        1.86520640066450
C           -1.58497839796951       -1.98165390442866       -0.97107037376295
H           -2.43277443559071       -8.07170487460151        4.13544461288842
H           -0.80265126259895       -8.39867468866697        5.00579049340464
H           -1.05986464735106       -8.78680711689466        3.11167989015015
H            6.14903544801856        3.03212793835666        4.53126950445763
H            6.37839301830133        3.44610189585180        2.75887807926975
H            6.57440529496557        1.70314353123458        3.17071124991058
H           -0.90589432199103       -1.20489736357370       -1.44056308630324
H           -1.91826417180184       -2.63471225981953       -1.73626770887019
H           -1.00956775494666       -2.49917907179101       -0.26254160006463
H           -4.41041482227851       -2.34315407352190        0.96364924044515
H           -5.15895526627387       -0.86788422941273        1.52525478889067
H           -5.09858116395502       -2.22628988563929        2.62673729577029
H           -6.81766358503593        3.42439564190381       -2.42499394273597
H           -5.57592841309207        4.12724164185512       -3.32442700116074
H           -5.84522486813650        4.77223237693041       -1.59786258045664
C           -1.66671161821118        4.06021297006311        3.13812180439731
C           -2.07490929646851        2.91694412687384        3.90612469371250
C           -1.11766492512660        2.41280416648930        4.76578796484208
C            0.28565503433768        2.86251478050947        4.64276005974732
C            0.60935199436284        3.95017771465815        3.85615933444687
C           -0.36675636396745        4.55148161389021        3.02181379473251
C           -1.30659456365541        1.26562069280470        5.58927813304557
C           -0.21096567719681        0.47711894094713        5.84668358082706
C            1.10379605793313        1.00830304041424        5.72630235200885
N            1.33348043409007        2.32984425641152        5.38010618439601
C           -2.63136101761473        0.70200436538958        5.98019467403889
C           -2.60057504251221       -0.69222872714931        6.03723446446254
N           -1.58948541309227       -1.51302154420807        6.12491427986944
C           -0.38012503084788       -0.93331602412953        6.17082444047347
C            0.73228392901472       -1.68454668990735        6.59567187915962
C            1.99497921552370       -1.10758588723357        6.56142118541038
C            2.15990799315404        0.15737412515022        6.02595951711124
C           -3.84835762746945        1.47887592719033        6.29744534525041
C           -5.03101000226765        0.83373688694072        6.05323293207227
C           -5.04425030312981       -0.51187420131432        5.77312262201801
C           -3.90734136484408       -1.24565268387479        6.07971095271316
O           -3.76980076232072        2.78893280929124        6.68460578195965
O           -3.50287288939791        2.63630276157420        3.76705919849244
C           -0.08456581804493        5.44234318955926        1.92702617994989
C           -6.32412934880869       -1.11769213369076        5.46058961247465
H            1.65615549993470        4.18008419991811        3.65664855363572
H           -2.38856187876441        4.44198176392462        2.47624191427905
H            3.16108461821917        0.45090472550086        6.00385583759499
H            0.86795541926951       -2.72713456226656        6.92456700502162
H           -3.97567019188240       -2.31411914009805        5.89536591324979
H           -5.96031211183855        1.39996417965196        5.94679275408439
O            0.90536833239713        6.14146759191146        2.03546252078919
O           -1.10716291181665        5.51414947619864        0.95001019821654
C           -1.00878679574945        6.46493012284401       -0.05976306842086
C            3.15625295119763       -1.72297066763010        7.22086198250360
O            3.09415351224856       -2.81833574415873        7.71010441723317
O            4.33919844498772       -1.02291069200897        7.27179907391168
C            5.22939448898373       -1.66282455619416        8.15469279508394
O           -7.27731833759679       -0.48250881678838        4.92835614274140
O           -6.50648347752866       -2.37653954115463        5.91627773724996
C           -7.73572796020457       -2.80051680182603        5.47519623756148
C           -4.92627620661541        3.53892932422805        6.91351632321155
C           -3.91059997217385        1.45118134484948        2.91265805000503
H           -7.57297525126233       -3.01524013831426        4.30655840808213
H           -8.52758612317517       -1.95782976776201        5.60976820966741
H           -7.89508114480810       -3.76802203446918        5.99696019656450
H            4.82463498005333       -1.63974997156450        9.21510861776276
H            6.01907273306166       -0.94757206813119        8.07039750059586
H            5.61381087186237       -2.66703193803321        7.92962719100947
H           -3.49263871514289        0.58067741558488        3.37210323909971
H           -3.56706098291722        1.51979236528224        1.90852226377359
H           -4.98260822890437        1.41770224787143        2.93616060292456
H           -5.29050588966076        3.82365135130612        5.91580886150413
H           -4.59856972350003        4.42157418844189        7.53333794675452
H           -5.68820297123266        2.85962834794302        7.35469289133801
H            0.00557336413463        6.73501454568237       -0.30159593758662
H           -1.48599955276787        7.34220586287969        0.40984928717344
H           -1.56082596133177        6.17571500378071       -0.94333573423318
116
 energy: -22.884882283122 gnorm: 0.361921095707 xtb: 6.6.1 (8d0f1dd)
C           -3.05969052314108        0.53279079788651       -0.45473080042982
C           -2.28636681095865       -0.37795194257746        0.34687886111749
C           -1.23325342673751        0.07474714890749        1.21531162366156
C           -0.76556957324018        1.31150781533892        0.79147691937386
C           -1.56362819503190        2.19994021103389        0.08469919212317
C           -2.76599342954301        1.85748771120778       -0.48073695482681
C           -0.35686569095470       -0.79676637613185        1.97421042956510
C            0.99122122436026       -0.46648992762336        2.14255961096673
C            1.40122458123821        0.87551297770447        1.68630504455129
N            0.51086078749657        1.76392558665934        1.12754255234877
C           -0.77180966924647       -1.95937530627542        2.59067646616376
C            0.21458293581999       -2.89360182636629        3.09570214298960
N            1.49208920302328       -2.51479809833398        3.33707235151315
C            1.87215810275380       -1.28445504500571        2.91824594689580
C            3.07606120016981       -0.71895243802000        3.31279261417597
C            3.49005365345734        0.48825091619684        2.81876972605688
C            2.67684142477000        1.27097720297952        2.03361675850238
C           -2.22459498835399       -2.14729441814170        2.81525028324124
C           -2.62555805766509       -3.49172287257217        2.91194107828938
C           -1.65703296292529       -4.47166358346042        3.09401866481882
C           -0.38470095092233       -4.13866204480313        3.29302771677966
O           -3.06845802349370       -1.01085632715858        2.80194424752357
O           -2.55371588060468       -1.73887400863486        0.15537703464002
C           -3.54647434551230        2.81437567495849       -1.34549277546399
C           -2.09735026102826       -5.90498088156900        3.35732946442657
H           -1.22634687257472        3.24408775997144        0.16333229546859
H           -3.97231523176162        0.21287363451650       -1.02011487024203
H            3.13253348471683        2.06840951626544        1.51663450977242
H            3.80086583265915       -1.28246617079365        3.90459448369175
H            0.22441002611037       -5.02284354046605        3.44034935748410
H           -3.67546595129028       -3.69312939772734        2.99975382065781
O           -2.96091726676304        3.60417690876174       -2.13429970380831
O           -4.97664157217265        2.78064574138942       -1.11459568911872
C           -5.62147546719371        3.72777161504775       -1.90702487862867
C            4.86382762393211        1.08056518099954        3.21542224249214
O            5.48530821016966        0.64755998718676        4.15497713590549
O            5.15162145384677        2.29381883240835        2.62580092067304
C            6.19434670996367        3.13475317579139        3.24981282956467
O           -3.31922420389841       -6.19611283414041        3.34166450616528
O           -1.01120788540179       -6.78137452475799        3.34994356665771
C           -1.30465485173125       -8.11806049163502        3.31719176524479
C           -4.38502920408689       -1.35856770285990        2.60047710071094
C           -1.42962320748746       -2.41371727691185       -0.52931779623003
H           -1.08904813893716       -8.44530148208297        4.30277185420875
H           -0.68868466140300       -8.55822551036956        2.53483776052256
H           -2.26571557312653       -8.16924612021754        3.02490569141087
H            6.36426574376213        3.08697507419888        4.31648553798127
H            5.88021410149327        4.12281463813311        2.91691310966509
H            7.20510769470205        2.86695326097530        2.89673564472951
H           -0.62293908218182       -2.53236213164854        0.16288970629463
H           -1.23034235795369       -2.12158126868843       -1.52962396668903
H           -1.84321269393136       -3.47161149007609       -0.67410907095717
H           -4.60072689283200       -1.88227896914510        1.66553720773146
H           -4.89125860199177       -0.44091127251457        2.64127334855012
H           -4.64905122404954       -2.01151051093370        3.45280558831415
H           -5.29231742190797        4.66393109595274       -1.49574269045640
H           -6.66650824629044        3.49908012794645       -1.82455838116096
H           -5.27351099791216        3.62225928742431       -2.94455562022395
C           -1.95788380110736        4.17158683118070        3.00104085430106
C           -2.26668089332930        2.99647180626774        3.65289726746473
C           -1.32055795711393        2.47485743804420        4.64855582708199
C           -0.02674286970082        2.96925089963431        4.71084985302482
C            0.10884317680142        4.26775041370000        4.19323474623543
C           -0.77619200654070        4.86886900318318        3.35231366903834
C           -1.58568370625181        1.33445731336262        5.42629011616056
C           -0.47967827154718        0.58104535279960        5.81441758943389
C            0.83463075954371        1.17504977641688        5.77827218232946
N            0.99860940152251        2.42495406485318        5.35666539122991
C           -2.85138380099254        0.74214066348148        5.77401419691811
C           -2.92324096538414       -0.65605219927584        5.94828173391243
N           -1.81642556810542       -1.39067420233168        6.18065841561204
C           -0.55379236502497       -0.78005542960361        6.25969105198435
C            0.53142547235945       -1.47935402121252        6.60193515370458
C            1.79589796949817       -0.91946252480177        6.54498008363389
C            1.98097576188561        0.41557641930237        6.25694236329267
C           -3.98556747209866        1.49975588533119        5.96959630121047
C           -5.24022222116760        0.83460368241236        6.05651858857396
C           -5.28726757571025       -0.60443225742501        6.13600248604476
C           -4.13256257081767       -1.30221630616736        6.18553376198267
O           -3.96345097022986        2.86674053575870        5.94031994944684
O           -3.43183023073094        2.34059649740771        3.51069114198233
C           -0.33116969178212        6.00823048993954        2.55458922247905
C           -6.57152292540758       -1.36932571437187        6.15021212580709
H            1.05246250623451        4.76116587961900        4.41245677716922
H           -2.70134049471955        4.69533812544461        2.39592691239999
H            2.96592955000973        0.76446957998838        6.50033665782160
H            0.39495439060928       -2.52565533879419        6.95256736616317
H           -4.09450214064704       -2.36236007780721        6.24994300299272
H           -6.15170907378678        1.40190708443376        5.94931745708658
O            0.88204108302861        6.31682079186884        2.48149309165082
O           -1.18607436200500        6.18815848960808        1.43239269499543
C           -0.56879028257782        6.81189409660286        0.25138505179309
C            3.05511856531135       -1.75274903962787        6.67426083056194
O            2.91448606732793       -2.96857804417202        6.42874873949369
O            4.21004515645730       -1.12849907155579        7.00908125213461
C            5.35145192508701       -1.93059134700625        6.84342657068420
O           -7.45559142035510       -1.04195491448687        6.85568950630752
O           -6.66819489435371       -2.36116200649819        5.27027896022746
C           -7.87571446632634       -3.03117563517438        5.29534162087335
C           -5.21102233064157        3.45615856122892        6.12499714377157
C           -4.16828345003000        2.42317953398223        2.30136544315957
H           -8.47163583497144       -2.69200856431523        6.13620021886517
H           -7.65119048981496       -4.03048817991739        5.45083565711515
H           -8.38153936072557       -2.95641749416520        4.37158847449620
H            5.59008081881818       -2.53388599562165        7.72965067624461
H            6.15264320371733       -1.25090041550275        6.43626947014039
H            5.14817397128870       -2.67232957139324        6.03536183951423
H           -3.47866181601405        2.99986141291700        1.66589490851553
H           -5.08309870315203        2.91627684300701        2.34400122561425
H           -4.15139375909022        1.44111128856240        1.89399545561819
H           -5.83417757351716        3.21662798691065        5.26097656046085
H           -5.17343645847080        4.48937805767083        5.88653942662778
H           -5.65582630079777        3.23334338089875        7.09049602704790
H           -0.79873600633686        6.28489173146064       -0.71265854868615
H            0.47070649871375        6.95831628740118        0.46009570247716
H           -1.05265675091845        7.78848973912769        0.14274293604960
116
 energy: -22.909447101808 gnorm: 0.338555971078 xtb: 6.6.1 (8d0f1dd)
C           -2.62235402098366        0.92908469347986       -0.59164336836697
C           -1.99291355728007       -0.09045002408530        0.10855597787409
C           -0.94784977923449        0.24266822051662        0.98948018931538
C           -0.44461069996221        1.59610630776274        0.89013354609261
C           -1.21400733750614        2.58712095574401        0.27426284093737
C           -2.40765846356063        2.34208134040036       -0.43226259569433
C           -0.19215841924316       -0.69260952749869        1.74685953101146
C            1.20239212290655       -0.47619476191121        1.70561391415221
C            1.65242464992288        0.87714480300458        1.40508882983289
N            0.84083099135516        1.88063854120514        0.96631193590515
C           -0.60468871846023       -1.87727711148983        2.42454967992532
C            0.34817953409788       -2.74907492704914        3.01270108782888
N            1.65865090870020       -2.54116197907388        2.92419563221601
C            2.09099903663583       -1.36046339554175        2.36717400543670
C            3.40874715905948       -0.99145256885794        2.63410104002079
C            3.89792868045834        0.24742183102325        2.21064407207555
C            3.06804187086694        1.13123951614058        1.56130363507140
C           -2.06721870181104       -2.14110821485597        2.54058295257710
C           -2.44590229126697       -3.30403435899689        3.12681097690132
C           -1.47201602811895       -4.13000180261297        3.63319216651802
C           -0.10506974137300       -3.90852725154352        3.68511555413308
O           -2.95201239748094       -1.18629990078381        2.24621865189218
O           -2.37661200307543       -1.38340909866118       -0.41334094331706
C           -3.42860083768494        3.33435026548478       -0.89439945154880
C           -2.01268299691207       -5.32630637900227        4.39732906962055
H           -0.86027108898311        3.60380228468491        0.46402675754840
H           -3.51595747285484        0.63691802747649       -1.13704439893852
H            3.44008359963903        2.08192913375031        1.17303047500377
H            4.04758451599302       -1.63124328289116        3.31545607933519
H            0.58822875829645       -4.59624177758547        4.17368837953846
H           -3.50170147881220       -3.60044168553122        3.22968293209810
O           -3.63442262712465        4.37850740410323       -0.36256640741178