116
 energy: -22.928061455056 gnorm: 0.329736929581 xtb: 6.6.1 (8d0f1dd)
C           -3.31122850772930        0.79849766164622       -0.92477639677520
C           -2.44380812530352       -0.12270372891954       -0.27661132624697
C           -1.41337090092821        0.39579727573559        0.56335275196199
C           -0.89266158675590        1.65801491088749        0.27377586709581
C           -1.72665675402493        2.51431363229076       -0.49448366572522
C           -2.95444148494349        2.13954154133227       -1.01494489940871
C           -0.74098268209890       -0.43411532818871        1.49825021926784
C            0.56872586496315        0.03782116815119        1.86248088067890
C            1.03782416582094        1.29402317993033        1.50887470833621
N            0.31238977034758        2.07067427098208        0.65193736800696
C           -1.29695700510141       -1.39996043042223        2.41574187746061
C           -0.38243517664656       -2.18060797534842        3.13232615520648
N            0.91308504082021       -1.90366887689689        3.30325166013478
C            1.37712470144904       -0.74872102533751        2.81811050966982
C            2.52149331701875       -0.17739833758153        3.39379298866852
C            2.95849061756259        1.02681208890480        2.95105897606587
C            2.24288949469137        1.78498308775960        2.03503020483770
C           -2.74860936222260       -1.74497937691422        2.38401158947411
C           -3.09416315450955       -2.91614440870436        3.00571134491758
C           -2.16786021984049       -3.77788778654213        3.63251872101904
C           -0.85708937311598       -3.40495313382985        3.68547234358092
O           -3.71994433332149       -0.94984598373544        1.67726658385724
O           -2.55702603277562       -1.47241711578389       -0.57241635275616
C           -3.84297843593025        3.13357444054366       -1.60938954875544
C           -2.68769581069131       -5.03867041417370        4.30484659386931
H           -1.39666850744143        3.51251503834900       -0.76806311868865
H           -4.27662633836220        0.55105838579656       -1.33106614114542
H            2.66329581305412        2.73912661909249        1.72562431984580
H            3.05775395548473       -0.69369546277216        4.16536137542516
H           -0.24710966264510       -4.12034095424229        4.22946223699121
H           -4.11477991332403       -3.04712728052358        3.03244694615357
O           -4.21824883374556        4.03433712717988       -0.87713382485991
O           -4.44510595673734        2.90643496899600       -2.81853501752979
C           -5.44216520282800        3.83300025693726       -3.02488532025093
C            4.23586651889298        1.50004220933226        3.59165660008449
O            5.05927614697201        0.66079890002952        3.91714215179376
O            4.47001334453535        2.86385149488593        3.72605651435371
C            5.79457498613219        3.08584475587818        4.15829123132174
O           -3.82227255313510       -5.27347675879771        4.16636005494405
O           -1.85023202017753       -5.79767454267276        5.06656077253571
C           -2.55119635829503       -6.86252441382958        5.62930343183426
C           -5.07197156564436       -1.42399175670916        1.58830531863830
C           -1.33089900128490       -2.23622472573986       -0.99264499351172
H           -2.54510546830388       -7.76426885143998        4.99136022291012
H           -3.57194749219491       -6.44405511486021        5.74196173723541
H           -2.09133598235598       -7.02043774843818        6.64022264233588
H            5.72707967266424        3.46798026205549        5.10135971236643
H            6.34060091246885        3.78468702308830        3.50069950143490
H            6.17933064298187        2.03010500085905        4.19342358084693
H           -0.91862729772622       -2.57650129080332       -0.01361370304871
H           -0.49769766914251       -1.60651221708571       -1.34094446550576
H           -1.52632419730509       -2.94569707152159       -1.75361447637286
H           -5.11788846557077       -2.41810833635233        1.17520213188926
H           -5.67929807973498       -0.69619639428435        1.04301666067831
H           -5.57598832326623       -1.42383358739762        2.57928294206544
H           -6.13050215934830        3.76035386975488       -2.23272855695873
H           -5.86615610071888        3.45938329385866       -4.02668959924245
H           -5.13479557532099        4.87790991548477       -2.98314551356402
C           -1.38192942069774        3.73616555005018        2.91232598411686
C           -1.84821468128685        2.59982427735607        3.49755545445181
C           -1.05946531454833        2.05730632010638        4.60922730982276
C            0.19893954712228        2.69376791964407        4.86302140881997
C            0.50425395911860        3.94630308659851        4.28768785650746
C           -0.26031777722226        4.46998310053134        3.25072669343212
C           -1.20488993561782        0.74454293276906        5.14851520323437
C           -0.06287609782692        0.02744069315890        5.60930570802864
C            1.19208754369866        0.71421540266195        5.78882868583885
N            1.19428660993148        2.06344359410476        5.62744624321596
C           -2.41361422770794        0.07928500213936        5.25249410304426
C           -2.45851584031083       -1.32662100968547        5.60237876023992
N           -1.29466212405906       -1.98318595734370        5.89916817085159
C           -0.14475655767527       -1.32117560077092        5.98824682881008
C            0.97209270935794       -1.98958449505532        6.53157704134458
C            2.21982707914082       -1.36973967291181        6.68703967237737
C            2.30561929262884       -0.09745313075593        6.26436900324455
C           -3.73018485967715        0.71367583494582        5.25810242262992
C           -4.89964478833448       -0.06184623426677        5.21204641615509
C           -4.82617965800088       -1.39228978090841        5.46901303780036
C           -3.67144193418464       -1.98914944386360        5.67265433266067
O           -3.75568638935321        2.07705011038914        5.52067969627343
O           -2.94192434743730        1.91263938797883        3.01658762327703
C            0.21273512614467        5.50086066357994        2.34765104514621
C           -6.06660304520411       -2.17604633098929        5.80641622556876
H            1.41756699010566        4.38133362238595        4.66974005703471
H           -1.82880610647429        4.11982501512100        2.06992133318584
H            3.26888037378556        0.32655662585251        6.31721410015598
H            0.87146188387207       -3.08471526305024        6.57830423410869
H           -3.67716811065157       -3.05999292755990        5.83019634570050
H           -5.77379677507622        0.43595144608221        4.71017130754348
O            1.34459852619901        5.82615848916894        2.44941456579099
O           -0.74718748219123        6.07961784856304        1.59848183464284
C           -0.21473095568964        7.24015934882472        1.05753806029483
C            3.53228080814219       -2.00967610361154        7.02506769044485
O            3.64093082622715       -3.14437803815732        7.50071391725347
O            4.56565258381079       -1.22937033368332        6.69086985080897
C            5.72579357310716       -1.80692399125161        7.22246151275881
O           -7.04801223588612       -1.95726935745904        5.14194115322235
O           -6.01514389321278       -2.93743591896022        6.94765316328794
C           -7.21292732384718       -3.62681918543340        7.15115816329978
C           -4.95459780685163        2.65960679932188        5.86868674392943
C           -3.68284113682406        2.59129188358641        2.05479246020704
H           -7.43119628931628       -4.22607794725959        6.20622607140901
H           -8.06548455146707       -2.91765848248592        7.29781126410398
H           -7.07314693247270       -4.33087306029711        7.91223421050944
H            6.57332189837178       -1.29353136199234        6.78341268688262
H            5.74663761932316       -2.84282155125561        6.88089468184451
H            5.69426191474290       -1.72781984964892        8.29460302186842
H           -4.10481209541493        3.44288266176275        2.60483747673152
H           -4.49244774344916        1.87419893016926        1.82433103764650
H           -3.18901540870812        2.85154642679373        1.06781919454921
H           -5.55414326821421        2.76698137191684        4.93950725322359
H           -4.78658370641210        3.62090640967288        6.25983200635257
H           -5.43485580473958        1.97242995129449        6.65265772412460
H            0.89164886030839        7.38838561720231        1.13776105146914
H           -0.62894889903848        8.04195665205089        1.64837664327952
H           -0.59282546386754        7.45699159724320        0.03719083132488
116
 energy: -22.511506855874 gnorm: 0.566861663708 xtb: 6.6.1 (8d0f1dd)
C           -2.48406575165757        0.27602630143668       -1.48160704434367
C           -1.85820993260346       -0.71344829689316       -0.72808230220649
C           -0.65134149622513       -0.24382206782062       -0.03628156394451
C           -0.19021695589549        1.09884146950148       -0.21563683402576
C           -0.86470144282648        1.98276285702430       -1.13035224442366
C           -1.94848704165525        1.59114002437209       -1.82373002459478
C            0.08054021348177       -1.03617221996026        0.94157358069403
C            1.22903912640951       -0.44184768444421        1.49101447863521
C            1.72636049957119        0.79863640099572        0.92820476882945
N            0.78813021440383        1.70260795703881        0.49878238088047
C           -0.44751381806017       -1.99825863528033        1.85709130274493
C            0.27556124147451       -2.55299165027244        2.92007523695697
N            1.58527149804877       -2.33162355959932        2.94418084075774
C            1.90481429252520       -1.14380411227357        2.52239887790050
C            3.21422096229900       -0.68833416971057        2.81384904624013
C            3.71520810093305        0.42080165130709        2.14403227503354
C            2.99374867551029        1.30779138458890        1.24208878476403
C           -1.78826402943444       -1.98242905553449        2.20524731938217
C           -2.43021513806998       -2.96868554100307        3.09172094562818
C           -1.67050389824101       -3.83435324062509        3.85731484582360
C           -0.22931938008746       -3.75858515616295        3.64211909647525
O           -2.55437930539655       -0.84541966812251        1.87531271709659
O           -2.35849120580236       -1.95880064632551       -0.56226499819863
C           -2.77833996767851        2.68969724528074       -2.38019869503469
C           -2.44367562364110       -4.86462428572728        4.64404089361286
H           -0.86636823256110        3.12183603317772       -1.05008834978661
H           -3.56348070419399        0.08540204772442       -1.79549334174751
H            3.27053738870956        2.32610142019726        1.07839242788717
H            3.72106702331364       -1.39380074733268        3.52270927303214
H            0.35357746808959       -4.71325906810569        3.78189303850134
H           -3.38873539473958       -3.47500142937360        2.91371835633574
O           -2.11269725794241        3.76632156320401       -2.26750948029733
O           -4.03303177780916        2.63949761819444       -3.00765583149168
C           -4.17535788401802        3.85701395371794       -3.67587990823618
C            4.93845043453663        0.99226795574555        2.90494737394574
O            5.73077636284057        1.51256104057645        2.22062357809051
O            4.91417087184353        0.62152245830639        4.19227132286806
C            5.79623997563318        1.25687635312378        4.98613424906925
O           -3.59617005432652       -4.94072047233137        4.86604479097134
O           -1.58640382174195       -5.93164403546607        4.92555800033646
C           -1.38227322916979       -6.24799994359611        6.27499756728334
C           -3.48712475522952       -0.48333386901782        2.97478825578579
C           -3.55792107355106       -2.13460803593974       -1.08793200166149
H           -0.41676419123418       -5.96562665544937        6.61515793866076
H           -1.06210779720393       -7.30852996917166        6.26860305785135
H           -2.38365924124522       -5.85318740885803        6.67805333117792
H            6.92750994692345        1.24587545428963        4.87693102236096
H            5.66699093313532        0.99175854096230        6.11615613432815
H            5.58223087730765        2.28949867904888        4.79976077741906
H           -3.79874768270267       -3.21087776075613       -0.94097976835307
H           -3.65161100018962       -1.75930179710216       -2.15631878225862
H           -4.39487841782798       -1.61084038917578       -0.64784347154046
H           -2.62536552215377       -0.43305140960039        3.72718923521588
H           -4.24956136781452       -1.22566451459363        3.33845125698783
H           -3.91843810346504        0.70484796522317        2.92827631020242
H           -3.40858082814797        4.51392982175234       -3.17735877727966
H           -5.06302025826846        4.25999217423520       -3.56619732276019
H           -3.61447485036237        3.56322931179312       -4.65803401931725
C           -2.48224290310253        4.25541184358347        3.94647924684884
C           -2.69790826624318        3.07188496643431        4.56990012122785
C           -1.67478843798188        2.28138361103177        5.11571627167771
C           -0.38249064430788        2.78630550933224        4.77091517140307
C           -0.15339551422234        4.03275310987196        3.97552825683809
C           -1.19456706184679        4.77173053624323        3.73129682534231
C           -1.60169380158025        1.18578330359257        5.99752092091414
C           -0.46422689535947        0.22665708213824        5.79762984734441
C            0.75218132307878        0.84805535129443        5.31299808224012
N            0.84254507465181        2.11444620151830        4.91411401106189
C           -2.83986412199905        0.50088926905652        6.54740705770337
C           -2.82247442440304       -0.95141097794944        6.52589034846872
N           -1.78573344683185       -1.74106293831728        6.59963634286870
C           -0.58763927006186       -1.09293029957187        6.36361207743525
C            0.60779767249251       -1.75530379055566        6.47455872474143
C            1.81244408522034       -1.14917785547820        6.19795359773987
C            1.97517911544324        0.03230743303853        5.61373369382007
C           -4.15162461945395        1.28566796729418        6.61552586471034
C           -5.26731247991203        0.60809409547910        6.22869616991248
C           -5.18275746767052       -0.74088659859786        5.76418960226216
C           -3.96411480604836       -1.47008124003338        6.05998328007547
O           -4.12778399528377        2.41508830237042        7.52449803065013
O           -3.98530191348910        2.52043152624248        4.28727817169013
C           -1.14168865046517        6.05603244222537        2.97942382745464
C           -6.42884527884892       -1.29482444186934        5.24554674409829
H            0.80056091686327        4.59455717586640        3.87467592395813
H           -3.32643084090827        4.69748790363634        3.42220498714639
H            2.96827980928953        0.40334178973529        5.71216621285862
H            0.88896196920306       -2.81052160432189        6.62890747083451
H           -3.97058803589755       -2.57614855843689        5.81551254274409
H           -6.29290124437822        0.87725012420213        6.34409857287763
O           -0.35903706261120        6.88333648791136        3.14198866177582
O           -1.88631554425882        6.03298758556241        1.83152613896709
C           -1.57898087393850        6.62601683892939        0.66147952789588
C            3.01865402376763       -1.92399508084195        6.32204544556509
O            3.17525873069961       -2.98416442427796        5.78526610469121
O            4.00031999351960       -1.16265906522681        6.70039038534660
C            5.52436167445690       -1.51685756697128        6.79349616957431
O           -7.52777969313042       -0.76571002903447        5.06292621855021
O           -6.25439851909981       -2.69664251851840        5.24145657646815
C           -7.35059253890959       -3.30370875009600        4.46125226695334
C           -5.28209254555086        2.56208013547964        8.30525857881452
C           -5.10030976949634        2.85445856353776        3.38346777104060
H           -7.63661506066547       -2.36343784186157        3.94458573807100
H           -7.79318643531502       -3.88513110636701        5.34734426706003
H           -6.96052186690437       -4.16605418686790        3.73641356960086
H            5.27414853840731       -2.51770586119049        6.47454562087090
H            5.83678620390265       -1.67653840002273        7.91367902152497
H            6.22160696349328       -0.83657390032099        6.12004800962020
H           -5.93555269467510        2.23631561200367        3.69518321990846
H           -4.94609689086629        2.63608885219861        2.37898295120999
H           -5.61135691341395        3.84712353779314        3.31149866626206
H           -5.69375324229441        3.55457565425795        8.20571472263865
H           -5.00738859876121        2.36834018187039        9.39050970513444
H           -6.06400062806632        1.92084043276531        7.94470910671878
H           -0.98127968859697        5.94942162941330       -0.00590939940765
H           -1.04451820653511        7.48316960703006        1.11527078624555
H           -2.57486357567351        6.70141390030875        0.08741963093308
116
 energy: -22.474578170659 gnorm: 0.578458812020 xtb: 6.6.1 (8d0f1dd)
C           -1.66736390275472       -0.23017855163573       -1.49494326116707
C           -0.83693466683785       -0.93878437436898       -0.65072360870581
C           -0.06515041818485       -0.02585710648565        0.18314141428189
C            0.33308850492137        1.24159266331415       -0.21223852819107
C           -0.47227594585200        1.74388976508319       -1.19722206523123
C           -1.46612159064015        1.06325359749216       -1.91853585154109
C            0.33341601290153       -0.50849318919418        1.40105071212276
C            1.53000473595354       -0.05622551234546        1.89593260871696
C            2.12551175188003        1.02082207142222        1.11972499194796
N            1.49600052761177        1.84301458974266        0.24782814281688
C           -0.39327953096368       -1.35220242683443        2.22921974217242
C            0.31810946192133       -2.08553456243380        3.18771209609629
N            1.57657129006824       -1.76946178253852        3.57317729700656
C            2.19504699594294       -0.74223961424360        2.87221688276444
C            3.62156719854137       -0.38662769557121        3.09228737127757
C            4.26282997363711        0.59088363989665        2.18217900976512
C            3.55676883004490        1.25357297234891        1.30937610359413
C           -1.80142269845692       -1.67526609562013        1.95979259028232
C           -2.27516709258595       -3.07646716707216        2.00042609953947
C           -1.55246100379511       -3.84959936821737        2.93098255276953
C           -0.33754450614030       -3.29096367044908        3.58260580753197
O           -2.48355941702512       -0.46695681185450        1.43518424758433
O           -0.65098721102364       -2.31783358912838       -0.80451500363091
C           -2.15923799474663        1.77591985397408       -2.99099643291948
C           -1.84088119713696       -5.22210381959977        3.43444341485686
H           -0.34942756902743        2.87043163976943       -1.48091491558364
H           -2.70396396082272       -0.34087846810233       -1.94425802408559
H            4.26433831515126        1.80222723064227        0.68966598030832
H            4.16292037684957       -1.10207870344885        3.68178086566762
H            0.48629990091181       -3.96755386170145        4.15225101004249
H           -3.15501699945144       -3.56074737310553        1.53832153112989
O           -2.70815725601550        2.89311473446785       -2.83044249994656
O           -2.26106324902096        1.05954139150740       -4.18509323889940
C           -2.24084697942777        1.84965720626899       -5.29557922408652
C            5.62076847546977        0.95829040129433        2.08889466786874
O            6.00614436652440        2.06236390718670        1.82338516271077
O            6.61048939400229       -0.04322603858766        2.39991456255967
C            7.88521668984418        0.55499481556163        1.87034692517919
O           -2.95422393699956       -5.64211089788100        3.20975233331446
O           -0.86779236554865       -5.99307296504061        4.11587449369530
C           -1.65061307481757       -6.88428914549225        4.90178875985855
C           -3.32928116530284        0.11091280969668        2.32957100995767
C           -1.49424453844088       -3.22857819982241       -1.56409233877242
H           -2.75649064294416       -6.77820151121304        5.13479177474402
H           -1.14323727598449       -7.44258195089030        5.79437391000570
H           -1.32673525873428       -7.79599897598232        4.21076625584690
H            7.60533670646847        0.78682572055664        0.75543559081821
H            8.67523101101028       -0.15201984403562        2.10327422278419
H            8.32711209221866        1.37161222892330        2.28010385618689
H           -1.42278825510562       -4.20899310380699       -1.13323667129885
H           -1.02603821404048       -3.41557776439563       -2.50300639632832
H           -2.58178403026039       -2.99222708365087       -1.43098918801792
H           -4.21316003284438       -0.52607533520620        2.29832115079292
H           -3.52827454975258        1.23020094891040        1.95064232174737
H           -3.09083874443715        0.27833537601855        3.46127911773111
H           -2.32616226781305        1.48942544162116       -6.40061107085388
H           -1.22016040311273        2.35640272433673       -5.28012225692831
H           -2.81200772890097        2.77019246388605       -5.04774362443225
C           -3.15762382651099        4.62238597517643        4.35530684147428
C           -3.53132940510914        3.41481210390533        4.93110203574815
C           -2.47252785751538        2.44014989416735        5.27572288413054
C           -1.13923626778198        2.89143852272060        4.94704697513258
C           -0.85721802317675        4.19769588817999        4.54312596425491
C           -1.92508185610342        5.05988431587907        4.16307384191272
C           -2.45450713717734        1.02943306058840        5.88934950952435
C           -1.22124828831932        0.31377565302990        5.83695263830483
C           -0.02774653861388        0.85763602593478        5.36288267916083
N            0.05664582269987        2.20697343686444        5.09604773843331
C           -3.63577446454891        0.51922083079357        6.34402335211439
C           -3.64613732356466       -0.89076190038372        6.41109650550475
N           -2.44846556150036       -1.77045502010608        6.24608760827087
C           -1.28211830048754       -1.15409405936682        6.06943588237904
C           -0.05242250528549       -1.70657036111381        6.70097465724507
C            1.10905041248832       -0.91329975756407        6.47327859691417
C            1.21175516544789        0.37303309025411        5.77245600433832
C           -4.87637220914210        1.22759633239180        6.90102555696605
C           -6.10555590542136        0.44740398134042        7.04970151970808
C           -6.04028785342536       -0.95527261535733        6.93319665140552
C           -4.80253124703775       -1.64125059870668        6.83291188099684
O           -4.62935508285984        2.48216304509710        7.53983827184060
O           -4.87707990931480        3.27350847251321        5.11496040173885
C           -1.65355082833890        6.09922598151721        3.24943915196809
C           -7.26120633037110       -1.76600434398559        6.80588259689103
H            0.15380648966698        4.56297027428184        4.58013991259363
H           -3.92298297672456        5.28195745427617        3.89216708656344
H            2.12325517639450        0.87263219609682        5.98311141933235
H            0.07724131753443       -2.74114735857891        6.98658074788767
H           -4.60345892878213       -2.58486136486216        7.43300838206496
H           -7.16226523300840        0.83879225129348        7.05196701166877
O           -0.60318531833410        6.60980815174225        3.55103122838991
O           -2.71774616806518        6.72802523336818        2.43393694047749
C           -2.19317397438096        7.97989099054981        1.89207405572867
C            2.44586120794177       -1.49445932380184        6.89492839464513
O            2.34590604971087       -2.26841891967106        7.85366792689328
O            3.53627593863915       -1.10447098007745        6.15935619444071
C            4.49322177127144       -2.15944481766545        6.42584180725573
O           -7.59334622190325       -2.63433806223002        7.54305032435819
O           -8.17833364682679       -1.33617126660097        5.81690573469867
C           -8.88828560046089       -2.47305706641101        5.61135371565503
C           -3.68259352009130        2.86939186531484        8.75494410649523
C           -5.51709382229239        4.37339050670520        5.54530137388970
H           -8.50044579281963       -2.72367456225336        4.46532428980562
H           -9.98707006267751       -2.08084614391004        5.90885741400120
H           -8.83209912509622       -3.25325471688041        6.34482990610717
H            5.11290208882031       -2.25340260270444        5.60043457311413
H            4.08288853854659       -3.19563507298085        6.37710188265066
H            4.99216570571748       -2.00376994630544        7.42541754880938
H           -5.09813661784558        5.35699032310932        5.48751542222088
H           -5.60436275158581        4.30316018425472        6.59151699394600
H           -6.43482297831429        4.42765639465334        5.10143455045997
H           -4.01332624174627        2.14030311426997        9.47246711170195
H           -3.97814278520133        4.00047480923609        8.78201002718834
H           -2.89407085308668        2.13643396683030        8.55160475659044
H           -2.77981350855802        8.31760434152262        1.16537874441114
H           -1.16001519302258        7.77201321795880        1.51149701542407
H           -2.29968601849183        8.64992153978829        2.67277070690210
116
 energy: -22.553746588141 gnorm: 0.562247123140 xtb: 6.6.1 (8d0f1dd)
C           -1.76062917323571        0.51931004062625       -2.12771705930723
C           -1.45097748484714       -0.21464887593897       -0.98942556208338
C           -0.35490840329576        0.16925521845827       -0.01262702200114
C            0.27560074475168        1.47960655712206       -0.24544380037157
C           -0.18248482003307        2.31737803994976       -1.35656716188513
C           -1.09503254652210        1.71037356224883       -2.29051330207369
C            0.46012651612774       -0.68925603752680        0.87567127799249
C            1.82756484904778       -0.33354343791196        1.14376369558687
C            2.35441550155904        1.05282800328065        0.77343561735070
N            1.56303368909879        1.95291866106170        0.27028852268797
C            0.06295501688910       -1.82425927049975        1.59819836212068
C            1.19595233895760       -2.70086688645247        1.84094849452466
N            2.53186198068683       -2.48274045941133        1.85928740034198
C            2.86348230752521       -1.18132489914429        1.53830992543047
C            4.23657559415191       -0.74464745969034        1.79695128187307
C            4.67534485109586        0.53717538270919        1.60172813182884
C            3.73777691675727        1.38245710938518        1.08726857176055
C           -1.29061085180944       -2.07682213043865        2.11591191216027
C           -1.51723481201213       -3.25136862900573        2.83067878268498
C           -0.56278372513878       -4.15471409369836        3.18139537129738
C            0.65614495862527       -3.76566395238794        2.63170192725071
O           -2.46467048044604       -1.29491747093547        1.84959664803507
O           -2.14008368541377       -1.53531436086283       -0.93504200255982
C           -1.12514350879041        2.14371474298747       -3.73657224916291
C           -0.76527730665593       -5.15822366079160        4.28923315590988
H            0.42397537328855        3.18822373024009       -1.72491896900755
H           -2.28291206064528       -0.06337480261707       -2.85832905513840
H            3.96891221909543        2.46462484505238        0.84760735921983
H            5.01121019734702       -1.49333644214999        2.11559107261488
H            1.43154783879134       -4.54823133347454        2.95770088900761
H           -2.55247432091326       -3.70397667312921        2.95504589615827
O           -1.30166619939473        3.25270357380869       -4.19152872085449