116
 energy: -22.928061455056 gnorm: 0.329736929581 xtb: 6.6.1 (8d0f1dd)
C           -3.31122850772930        0.79849766164622       -0.92477639677520
C           -2.44380812530352       -0.12270372891954       -0.27661132624697
C           -1.41337090092821        0.39579727573559        0.56335275196199
C           -0.89266158675590        1.65801491088749        0.27377586709581
C           -1.72665675402493        2.51431363229076       -0.49448366572522
C           -2.95444148494349        2.13954154133227       -1.01494489940871
C           -0.74098268209890       -0.43411532818871        1.49825021926784
C            0.56872586496315        0.03782116815119        1.86248088067890
C            1.03782416582094        1.29402317993033        1.50887470833621
N            0.31238977034758        2.07067427098208        0.65193736800696
C           -1.29695700510141       -1.39996043042223        2.41574187746061
C           -0.38243517664656       -2.18060797534842        3.13232615520648
N            0.91308504082021       -1.90366887689689        3.30325166013478
C            1.37712470144904       -0.74872102533751        2.81811050966982
C            2.52149331701875       -0.17739833758153        3.39379298866852
C            2.95849061756259        1.02681208890480        2.95105897606587
C            2.24288949469137        1.78498308775960        2.03503020483770
C           -2.74860936222260       -1.74497937691422        2.38401158947411
C           -3.09416315450955       -2.91614440870436        3.00571134491758
C           -2.16786021984049       -3.77788778654213        3.63251872101904
C           -0.85708937311598       -3.40495313382985        3.68547234358092
O           -3.71994433332149       -0.94984598373544        1.67726658385724
O           -2.55702603277562       -1.47241711578389       -0.57241635275616
C           -3.84297843593025        3.13357444054366       -1.60938954875544
C           -2.68769581069131       -5.03867041417370        4.30484659386931
H           -1.39666850744143        3.51251503834900       -0.76806311868865
H           -4.27662633836220        0.55105838579656       -1.33106614114542
H            2.66329581305412        2.73912661909249        1.72562431984580
H            3.05775395548473       -0.69369546277216        4.16536137542516
H           -0.24710966264510       -4.12034095424229        4.22946223699121
H           -4.11477991332403       -3.04712728052358        3.03244694615357
O           -4.21824883374556        4.03433712717988       -0.87713382485991
O           -4.44510595673734        2.90643496899600       -2.81853501752979
C           -5.44216520282800        3.83300025693726       -3.02488532025093
C            4.23586651889298        1.50004220933226        3.59165660008449
O            5.05927614697201        0.66079890002952        3.91714215179376
O            4.47001334453535        2.86385149488593        3.72605651435371
C            5.79457498613219        3.08584475587818        4.15829123132174
O           -3.82227255313510       -5.27347675879771        4.16636005494405
O           -1.85023202017753       -5.79767454267276        5.06656077253571
C           -2.55119635829503       -6.86252441382958        5.62930343183426
C           -5.07197156564436       -1.42399175670916        1.58830531863830
C           -1.33089900128490       -2.23622472573986       -0.99264499351172
H           -2.54510546830388       -7.76426885143998        4.99136022291012
H           -3.57194749219491       -6.44405511486021        5.74196173723541
H           -2.09133598235598       -7.02043774843818        6.64022264233588
H            5.72707967266424        3.46798026205549        5.10135971236643
H            6.34060091246885        3.78468702308830        3.50069950143490
H            6.17933064298187        2.03010500085905        4.19342358084693
H           -0.91862729772622       -2.57650129080332       -0.01361370304871
H           -0.49769766914251       -1.60651221708571       -1.34094446550576
H           -1.52632419730509       -2.94569707152159       -1.75361447637286
H           -5.11788846557077       -2.41810833635233        1.17520213188926
H           -5.67929807973498       -0.69619639428435        1.04301666067831
H           -5.57598832326623       -1.42383358739762        2.57928294206544
H           -6.13050215934830        3.76035386975488       -2.23272855695873
H           -5.86615610071888        3.45938329385866       -4.02668959924245
H           -5.13479557532099        4.87790991548477       -2.98314551356402
C           -1.38192942069774        3.73616555005018        2.91232598411686
C           -1.84821468128685        2.59982427735607        3.49755545445181
C           -1.05946531454833        2.05730632010638        4.60922730982276
C            0.19893954712228        2.69376791964407        4.86302140881997
C            0.50425395911860        3.94630308659851        4.28768785650746
C           -0.26031777722226        4.46998310053134        3.25072669343212
C           -1.20488993561782        0.74454293276906        5.14851520323437
C           -0.06287609782692        0.02744069315890        5.60930570802864
C            1.19208754369866        0.71421540266195        5.78882868583885
N            1.19428660993148        2.06344359410476        5.62744624321596
C           -2.41361422770794        0.07928500213936        5.25249410304426
C           -2.45851584031083       -1.32662100968547        5.60237876023992
N           -1.29466212405906       -1.98318595734370        5.89916817085159
C           -0.14475655767527       -1.32117560077092        5.98824682881008
C            0.97209270935794       -1.98958449505532        6.53157704134458
C            2.21982707914082       -1.36973967291181        6.68703967237737
C            2.30561929262884       -0.09745313075593        6.26436900324455
C           -3.73018485967715        0.71367583494582        5.25810242262992
C           -4.89964478833448       -0.06184623426677        5.21204641615509
C           -4.82617965800088       -1.39228978090841        5.46901303780036
C           -3.67144193418464       -1.98914944386360        5.67265433266067
O           -3.75568638935321        2.07705011038914        5.52067969627343
O           -2.94192434743730        1.91263938797883        3.01658762327703
C            0.21273512614467        5.50086066357994        2.34765104514621
C           -6.06660304520411       -2.17604633098929        5.80641622556876
H            1.41756699010566        4.38133362238595        4.66974005703471
H           -1.82880610647429        4.11982501512100        2.06992133318584
H            3.26888037378556        0.32655662585251        6.31721410015598
H            0.87146188387207       -3.08471526305024        6.57830423410869
H           -3.67716811065157       -3.05999292755990        5.83019634570050
H           -5.77379677507622        0.43595144608221        4.71017130754348
O            1.34459852619901        5.82615848916894        2.44941456579099
O           -0.74718748219123        6.07961784856304        1.59848183464284
C           -0.21473095568964        7.24015934882472        1.05753806029483
C            3.53228080814219       -2.00967610361154        7.02506769044485
O            3.64093082622715       -3.14437803815732        7.50071391725347
O            4.56565258381079       -1.22937033368332        6.69086985080897
C            5.72579357310716       -1.80692399125161        7.22246151275881
O           -7.04801223588612       -1.95726935745904        5.14194115322235
O           -6.01514389321278       -2.93743591896022        6.94765316328794
C           -7.21292732384718       -3.62681918543340        7.15115816329978
C           -4.95459780685163        2.65960679932188        5.86868674392943
C           -3.68284113682406        2.59129188358641        2.05479246020704
H           -7.43119628931628       -4.22607794725959        6.20622607140901
H           -8.06548455146707       -2.91765848248592        7.29781126410398
H           -7.07314693247270       -4.33087306029711        7.91223421050944
H            6.57332189837178       -1.29353136199234        6.78341268688262
H            5.74663761932316       -2.84282155125561        6.88089468184451
H            5.69426191474290       -1.72781984964892        8.29460302186842
H           -4.10481209541493        3.44288266176275        2.60483747673152
H           -4.49244774344916        1.87419893016926        1.82433103764650
H           -3.18901540870812        2.85154642679373        1.06781919454921
H           -5.55414326821421        2.76698137191684        4.93950725322359
H           -4.78658370641210        3.62090640967288        6.25983200635257
H           -5.43485580473958        1.97242995129449        6.65265772412460
H            0.89164886030839        7.38838561720231        1.13776105146914
H           -0.62894889903848        8.04195665205089        1.64837664327952
H           -0.59282546386754        7.45699159724320        0.03719083132488
116
 energy: -22.762371369972 gnorm: 0.468700611579 xtb: 6.6.1 (8d0f1dd)
C           -2.72597353731831        0.91033023933827       -0.87922644471970
C           -2.13957557166945       -0.14203465810628       -0.05725135025205
C           -1.13328987208999        0.43120579941395        0.88693921636637
C           -0.66197781072755        1.77802955199257        0.81203153461567
C           -1.36959136752931        2.72994471947997        0.01571833220398
C           -2.46342740534237        2.36688514048220       -0.76421321770542
C           -0.46359604484559       -0.42998552498268        1.88538291624908
C            0.93974137691263       -0.06847457907631        2.04719083434472
C            1.31137359161747        1.28198614786931        1.95932504062259
N            0.48207023022098        2.26746160063298        1.49670781516492
C           -0.99202658838022       -1.65658713515275        2.51056976384555
C            0.02435874650980       -2.62419423851868        2.81708001344973
N            1.35629441303288       -2.30889508319289        2.79637102840510
C            1.77895502930165       -1.08396973454964        2.54457616916921
C            3.10347576000748       -0.68036703175469        3.01613618596708
C            3.38278297301241        0.66543025527953        3.08680297048907
C            2.51081147524927        1.61989432921529        2.56163035777852
C           -2.39553368782130       -1.92974001652911        2.72553165300480
C           -2.70174471966956       -3.16008029168080        3.35572484698865
C           -1.70963228922873       -4.06507043105645        3.71983418406252
C           -0.35588622922656       -3.73899046207780        3.58108094334532
O           -3.38448988039121       -1.00672886197795        2.35222968862119
O           -2.28177427861889       -1.62209831044845       -0.37133197957242
C           -3.39287885398778        3.34644993572894       -1.41051880317903
C           -2.08275863529162       -5.26100879621538        4.41277043262101
H           -1.13767089108168        3.76435118509663       -0.14222732644248
H           -3.43355909161391        0.65280147945051       -1.64644468295022
H            2.75419217608325        2.69573767600260        2.56947067903829
H            3.98293420936695       -1.35387838487594        3.31257334222359
H            0.37152217847543       -4.47902177445541        3.71714170343119
H           -3.77689497395881       -3.31443065247687        3.47348436178473
O           -2.89151221226551        4.39499921739628       -1.62837038957010
O           -4.70067246583819        2.99335204655479       -1.64233985588761
C           -5.27747771731304        3.79351193918480       -2.56958288191918
C            4.77106352441857        0.83644068331211        3.47309427436951
O            5.50324229493420       -0.18880148557758        3.68365883892656
O            5.29228533166191        2.06513803315254        3.37842504552385
C            6.68128005772917        1.96731568493378        3.62956629025512
O           -3.15522687600719       -5.43499731294622        4.98935433012929
O           -1.08761239459007       -6.14359520391901        4.59106369663857
C           -1.55440680876317       -7.24432958853685        5.34305452332050
C           -4.76237067733819       -1.36782403226665        2.18008359285217
C           -1.88562092644874       -2.16978588070964       -1.56242432608311
H           -2.30156901367964       -7.71706346844317        4.72597194354256
H           -2.03710080114763       -6.84795905588997        6.25516180898066
H           -0.79764706507423       -8.05380045906799        5.55967556612549
H            7.10477400342751        2.69328166146247        2.83583873919432
H            7.02460083449807        0.91837640136347        3.56616581937516
H            6.68361995204285        2.20278612982552        4.70314862764281
H           -2.59752198976325       -2.98687043835713       -1.99241070533251
H           -0.70748701686251       -2.31271964147193       -1.33987093204016
H           -1.73017208098588       -1.53323678906105       -2.46958206646771
H           -5.32406843473054       -0.72224484455961        1.60814949242467
H           -5.23069650354200       -1.30095573051380        3.15181798193867
H           -4.94497135593913       -2.31336402710995        1.56625830140956
H           -5.24795016812067        4.70721953844663       -2.28777521576226
H           -6.37387506982439        3.33905968307514       -2.60513050697178
H           -4.74327735247574        3.75121980069810       -3.52531653112317
C           -2.26701502096804        4.09949412256330        2.81893313574275
C           -2.55478647754232        2.91729024384174        3.57929277609514
C           -1.63871498869138        2.34565034848639        4.57014123069173
C           -0.38606973725212        3.01035412064837        4.70887635443624
C           -0.17922006649793        4.28152927474632        4.10842791981387
C           -1.07639856667200        4.78428373563847        3.14878177395561
C           -1.71618787503794        1.01857903399990        5.24784996681889
C           -0.54706833547219        0.32111233698546        5.58009851294737
C            0.61896592615329        1.06751470469748        5.47673276761017
N            0.78273533687999        2.39403797951748        5.33306980581695
C           -2.95451898308431        0.24765799477339        5.56656300936791
C           -2.81319187540875       -1.17018372426351        5.99921360115143
N           -1.59088050662466       -1.70527542651622        6.12269214716298
C           -0.51184827693556       -0.99808223912968        5.98976240418013
C            0.76419477898544       -1.61310454302971        6.19232723013588
C            1.90645826163828       -0.95394020992133        5.98298858154259
C            1.76990713786070        0.39466443920762        5.70185251637633
C           -4.18319510181534        0.90134071303518        5.78415655352262
C           -5.34623405007570        0.18846748773210        5.74502927659838
C           -5.25494425540470       -1.23861841234083        5.85492414558591
C           -4.00475348093169       -1.88938582494820        6.00255900499755
O           -4.10347499012889        2.18678441984521        6.37231348177958
O           -3.65512367971729        2.12374581091600        3.26296343798826
C           -0.64987119927229        5.95891949331546        2.38707493066827
C           -6.39726570895343       -2.14403664187717        5.49800375839739
H            0.38753083246681        4.95482020070288        4.55034006864993
H           -2.74930510636396        4.48803238782975        2.01490599166995
H            2.63587527867697        1.05522964580043        5.63194184241167
H            0.91006339760881       -2.61004118241256        6.60521713628046
H           -4.02854791002848       -3.04618822489274        5.86636437361226
H           -6.31197160951619        0.63222239273549        5.96577107595060
O           -0.33620034801079        7.04901850341309        2.91570168986301
O           -0.68251694753702        5.78386603569915        1.01782115751005
C           -0.49229316733173        7.03343347729136        0.27831948270716
C            3.20108004556937       -1.67714006994660        6.33591137244718
O            3.05434479570680       -2.87592067054427        6.20237679647075
O            4.26273470830942       -0.89559833677715        6.61465062874550
C            5.16891591356657       -1.63432043900789        7.36535487889859
O           -6.78011986731676       -2.01501985943993        4.36116165941763
O           -7.13152662575602       -2.82700865235193        6.40732215656513
C           -8.55353254008426       -3.04382951647122        5.94401796742644
C           -3.19756013468993        2.38473053282675        7.42793860065970
C           -4.00389636952344        1.96888156886168        1.89028331924158
H           -8.78315486831160       -4.02826582442539        5.61297443587936
H           -8.60638234049021       -2.31371381147916        5.20957909227188
H           -9.24885262163675       -2.75699986984740        6.64674436610300
H            5.23425386474412       -1.15125574243525        8.29164915181612
H            6.10291489778377       -1.62008371093176        6.91178429960667
H            4.80849987176318       -2.58356698352541        7.64100141476930
H           -4.99866002944179        1.52007272845554        1.84822314279458
H           -3.28126555372531        1.17490648213505        1.39131977667819
H           -3.85946357233225        2.80644516867981        1.30269385482696
H           -3.48495085475491        1.60372229329936        8.15461956128328
H           -3.35960968524254        3.42227211282798        7.72807396746305
H           -2.16613156302161        2.15590961817495        7.27511055648437
H            0.54803146005652        7.17112272020143        0.37479418794671
H           -1.09310472408969        8.00418222696150        0.38874244885568
H           -0.74709536248842        6.68820444674252       -0.70886949151244
116
 energy: -22.797461072460 gnorm: 0.441618045284 xtb: 6.6.1 (8d0f1dd)
C           -2.60747482725702        1.01984702912337       -0.55547646751918
C           -2.04848338399115       -0.00650226311615        0.14274691659655
C           -0.86474380330708        0.31636919539443        1.01046086407683
C           -0.20308221009983        1.55693248215782        0.63233544362332
C           -0.94729741229040        2.56113546545828       -0.05039048353137
C           -2.04502462437785        2.24180067948664       -0.79613897009471
C           -0.15994429735313       -0.53275411844050        1.89322951699811
C            1.13900258100689       -0.16258551135240        2.22086760589762
C            1.65866877121184        1.16015842235764        1.95054611490752
N            0.87053120532869        2.05497973375816        1.38255258352861
C           -0.72183385603104       -1.66436882230686        2.54103409589765
C            0.19899655239122       -2.67127308980027        3.06501361525535
N            1.45622770299873       -2.32118728768443        3.42934150160793
C            1.89870452559865       -1.13853295505510        3.05876543033400
C            3.17449985671120       -0.70044501348740        3.38578148859380
C            3.69412763147637        0.51726874149724        3.20599130271289
C            2.97962845201842        1.47901707986902        2.48689686632925
C           -2.14559846845381       -1.82285496225667        2.81556700331504
C           -2.49760130557434       -3.19252778099502        2.92615077742514
C           -1.54364601375566       -4.14672956358742        3.29899261204575
C           -0.17029833165279       -3.94202011435743        3.40535392257608
O           -2.90583532499661       -0.66392211954469        2.66175237656586
O           -2.60974792770889       -1.29263379193087        0.23448598287105
C           -2.72378676489733        3.34132969462394       -1.42534361142688
C           -2.03717862172374       -5.58550094812581        3.63100672541446
H           -0.57742982947873        3.65014672651473       -0.07109113175813
H           -3.58936589589119        0.87830022769843       -0.88428836200319
H            3.48843597859141        2.49350438251078        2.45569404768766
H            3.96277506266655       -1.47251527267680        3.70529441618941
H            0.60296050397983       -4.64823432307446        3.63005994276510
H           -3.52354394504525       -3.58080558030832        2.81250230907040
O           -2.13772961746069        4.40513498790622       -1.37731231882365
O           -3.98335421217640        3.03041185322400       -1.98295993595367
C           -4.69394838462001        4.29663833040767       -2.10321522416964
C            5.13172749902775        0.81413787275874        3.54048233741309
O            5.71224748570584        0.39607465887303        4.48240184242414
O            5.61829864567164        1.65271635536799        2.57971165595319
C            6.70972339637255        2.25819228365421        3.11254893542140
O           -2.92587484005507       -5.97751475238016        2.94368026792222
O           -1.37543412190001       -6.38434210390411        4.56352384866276
C           -2.00549403545529       -7.54640960207153        4.76785828218997
C           -4.27986753624671       -0.73872221832714        2.98071657327466
C           -3.03662193849290       -1.86850577696223       -0.98355612834487
H           -1.77937170928979       -7.71237059578612        5.79304965063365
H           -1.79549427457804       -8.54147620235660        4.20681203859468
H           -3.11887918028185       -7.29461035349703        4.89027126405478
H            6.21174074721702        2.81714145099142        3.89599782480824
H            7.16999832016674        2.80907316238842        2.32111143546007
H            7.40321598204037        1.58125416861615        3.65294887145952
H           -2.91299107478983       -1.03486629219849       -1.76146517859254
H           -4.13448437313113       -2.06365288510522       -0.95548942402951
H           -2.32974424046007       -2.64687707819461       -1.46905416143013
H           -4.73377814374234       -0.04100292156779        2.20769663107734
H           -4.67217087772115       -0.15656006071084        3.78522269654433
H           -4.62993179156243       -1.73896718895710        2.85626618069223
H           -5.04302539173178        4.55974666884565       -1.15752588856232
H           -5.63916634252400        3.91422688109136       -2.69839420489283
H           -4.10009615264768        5.07064565528759       -2.47273240122727
C           -2.62133649582593        3.77837078669045        2.83257755445225
C           -2.77971431288545        2.61365446705995        3.63331685741124
C           -1.69426114954818        2.07528745199468        4.43473097474921
C           -0.40139246881473        2.64215701238849        4.31158428850957
C           -0.29216994427138        3.83150357587154        3.47159108589936
C           -1.33760406670289        4.35147112924707        2.76537363101747
C           -1.74717834792339        0.83038665422468        5.09981189530163
C           -0.49205511476991        0.30176348566668        5.44220368042084
C            0.76770877115909        0.85239531383305        5.06529447878446
N            0.78980333437495        2.11612979006936        4.55071841649448
C           -2.93290336391152        0.24938461545808        5.70401688003278
C           -2.79402486947388       -1.12232883491041        6.11094539197953
N           -1.66632037406486       -1.58677938920092        6.58736527926359
C           -0.51273383454803       -0.87357208544196        6.27085832858147
C            0.71488752826806       -1.33936145318163        6.81425831066756
C            1.91955757875872       -0.79504994049654        6.36548907561297
C            1.93579852445166        0.27052697700358        5.54160433060893
C           -4.27598141293337        0.86329222259274        5.88252578846920
C           -5.38938163540101        0.00819154751314        6.00431938783890
C           -5.21461006266400       -1.41148075954979        5.97856338920030
C           -3.90292762636155       -1.95620394176027        6.07797222004696
O           -4.65259581166805        2.12864761448245        6.24061384589752
O           -3.84168904106693        1.81086701703273        3.59502311062640
C           -1.01498864876974        5.51931085547875        1.85563668322056
C           -6.41408586890692       -2.32457071621198        5.83238689636147
H            0.64117483071121        4.17254790069989        3.37464598553635
H           -3.32820487549192        4.04990973593127        2.19549453232074
H            2.81646984210311        0.87457942830284        5.35884271972063
H            0.70384901086445       -2.20300341199165        7.48990479520095
H           -3.70275983657521       -3.02509125844771        6.08643781279643
H           -6.40259344590766        0.31829905224803        6.11444107508413
O           -0.02342542207424        5.61933237216044        1.20206731237148
O           -2.00317493295184        6.56284785576172        1.80590400411806
C           -1.66226591846388        7.34840086498608        0.67930006826882
C            3.20028113066822       -1.46986635609866        6.88176307548026
O            3.10658830100035       -2.58830310195813        7.41087724232665
O            4.41105256900197       -0.82725597737762        6.66557809225109
C            5.44934509911852       -1.71806660974563        6.60114920533814
O           -6.26416535472543       -3.52947102393100        5.94661442572252
O           -7.64857268295234       -1.81418638952283        5.58450658170754
C           -8.53904928599065       -2.62524181769524        4.68076997419790
C           -3.73980473203000        3.12200209271764        6.70759862009907
C           -5.07406811945139        2.43160196082134        3.08516500419665
H           -8.20120416660231       -3.59428206638336        4.72216230041636
H           -8.73736656086931       -2.14213654472609        3.75036212053243
H           -9.51612745025737       -2.58815628787166        5.19796176468569
H            6.15337256984732       -1.42617215087542        5.77604652385714
H            4.96335862422002       -2.81406934223734        6.55533564400389
H            6.04634741311788       -1.63929460214690        7.58541563744368
H           -5.93523972120321        1.78038407836588        3.29269411755282
H           -5.11828902256990        2.58693917285879        2.01417941041474
H           -5.27847254206958        3.36247853960470        3.61802813723868
H           -2.75730954298358        2.83688560035416        6.59803758145083
H           -3.96710461721622        2.92584491312550        7.70026250552241
H           -3.95350169653908        4.14251700000678        6.29164668499765
H           -1.79910943612752        6.70161808304532       -0.26293016788405
H           -0.63093229101148        7.55778285261097        0.74207403346209
H           -2.11629714172713        8.32794773922020        0.54542263122393
116
 energy: -22.789702568017 gnorm: 0.454243932632 xtb: 6.6.1 (8d0f1dd)
C           -2.19420806691303        1.02538527095717       -0.76736754573790
C           -1.62018390393625        0.06249224897287        0.09546464043320
C           -0.58024129737546        0.40124097374297        0.96687632462740
C           -0.16429207402407        1.71167398620747        0.83923353108291
C           -0.82575946793614        2.73256391677204        0.10334870981410
C           -1.83811043324292        2.37361606916740       -0.75768505754271
C            0.02874877628729       -0.51167844909831        1.90474796793229
C            1.35940954287487       -0.11045304755492        2.19983969346615
C            1.91254545513229        1.19041007497407        2.03495726153639
N            1.02537714596251        2.15242872332462        1.51991415797573
C           -0.58237138789650       -1.66041004737156        2.57480012410547
C            0.39275995087828       -2.67826094636798        2.86037593421949
N            1.70611885142288       -2.47655264357161        2.72646357397213
C            2.19264223115096       -1.18836424350691        2.62625784620630
C            3.53051840376497       -0.90862050179197        2.73878929082466
C            4.06918768342561        0.39555046917946        2.58113704050617
C            3.25316000082994        1.43823985423988        2.23483560699277
C           -2.03839980907298       -2.01252230970970        2.67513107561202
C           -2.38605839419527       -3.26432639858979        3.05802687299568
C           -1.45214680213820       -4.13967141827068        3.64105963823477
C           -0.12326065793829       -3.83370488759652        3.62869273728929
O           -2.99356628068063       -1.02618690353606        2.37457053742838
O           -2.00793980543854       -1.23026853713512       -0.11876856097263
C           -2.77299371712753        3.54871740340003       -1.13985455038069
C           -1.86290692227995       -5.40726893290307        4.38377972377943
H           -0.49121439743434        3.82576049211858        0.12401742564309
H           -3.09992358398232        0.89305381318789       -1.36622655123426
H            3.84343541999816        2.32938822649371        1.97588330742230
H            4.18414990748544       -1.75187764716266        3.09880821805369
H            0.59499878899386       -4.59356075806436        3.97888959523207
H           -3.35442075613382       -3.58749390140119        3.13500103569684
O           -2.17933001054543        4.60179721445308       -1.30336654315976