156
 energy: -253.996878248152 gnorm: 0.140700024500 xtb: 6.7.1 (edcfbbe)
C            0.62560000000000        2.67950000000000       -2.71850000000000
C            1.58630000000000       -2.66230000000000        2.36290000000000
C           -3.99870000000000        1.93670000000000       -0.81660000000000
C           -3.20920000000000        0.98980000000000       -0.17740000000000
C           -1.78160000000000        1.14140000000000       -0.23770000000000
C           -1.23090000000000        2.03290000000000       -1.19800000000000
C           -2.07510000000000        2.96700000000000       -1.79570000000000
C           -3.43780000000000        2.94530000000000       -1.58310000000000
C           -0.88870000000000        0.35470000000000        0.56860000000000
C            0.42220000000000        0.12770000000000        0.07840000000000
C            0.91830000000000        0.90030000000000       -1.00760000000000
N            0.10900000000000        1.88780000000000       -1.58370000000000
C           -1.23860000000000       -0.18810000000000        1.85230000000000
C           -0.46080000000000       -1.25320000000000        2.37860000000000
N            0.75120000000000       -1.60090000000000        1.76530000000000
C            1.23410000000000       -0.88020000000000        0.66560000000000
C            2.48900000000000       -1.11960000000000        0.11750000000000
C            2.98350000000000       -0.35650000000000       -0.92270000000000
C            2.20800000000000        0.65170000000000       -1.46120000000000
C           -2.24620000000000        0.41020000000000        2.68530000000000
C           -2.60950000000000       -0.23580000000000        3.85990000000000
C           -1.94470000000000       -1.37320000000000        4.28710000000000
C           -0.87410000000000       -1.85400000000000        3.56420000000000
O           -2.72440000000000        1.67390000000000        2.33920000000000
O           -3.73160000000000       -0.13130000000000        0.46120000000000
C           -4.29260000000000        3.96530000000000       -2.22650000000000
C           -2.28350000000000       -2.00790000000000        5.57780000000000
C            4.33410000000000       -0.60900000000000       -1.47110000000000
O            4.74860000000000        0.08880000000000       -2.37860000000000
O            5.04320000000000       -1.64100000000000       -0.91900000000000
C            6.27880000000000       -1.73570000000000       -1.55170000000000
O           -3.78250000000000        4.82960000000000       -2.91520000000000
O           -5.63690000000000        3.86530000000000       -1.99600000000000
C           -6.29850000000000        4.89470000000000       -2.65680000000000
O           -3.27700000000000       -1.66060000000000        6.18830000000000
O           -1.40010000000000       -2.96160000000000        6.01260000000000
C           -1.73160000000000       -3.35460000000000        7.30390000000000
H           -5.06830000000000        1.90230000000000       -0.73850000000000
H           -1.68680000000000        3.74210000000000       -2.42880000000000
H           -3.36800000000000        0.17240000000000        4.50000000000000
H           -0.35490000000000       -2.70230000000000        3.96560000000000
H            3.11570000000000       -1.90410000000000        0.49100000000000
H            2.64390000000000        1.23430000000000       -2.24970000000000
C            1.28510000000000       -4.03310000000000        1.78480000000000
C            2.17110000000000       -5.11660000000000        2.37520000000000
C            1.36160000000000        3.92690000000000       -2.25560000000000
C            1.91130000000000        4.74790000000000       -3.40950000000000
C           -3.82090000000000        2.14480000000000        3.08370000000000
C           -5.13380000000000       -0.23460000000000        0.44270000000000
H           -7.37120000000000        4.81120000000000       -2.47070000000000
H           -6.09550000000000        4.81630000000000       -3.72750000000000
H           -5.92580000000000        5.85150000000000       -2.28370000000000
H           -1.10560000000000       -4.19800000000000        7.59980000000000
H           -2.78590000000000       -3.63840000000000        7.33270000000000
H           -1.55530000000000       -2.50850000000000        7.97140000000000
H            6.84350000000000       -2.56830000000000       -1.12750000000000
H            6.82240000000000       -0.79920000000000       -1.40540000000000
H            6.11740000000000       -1.89860000000000       -2.62000000000000
H            1.46230000000000       -2.66070000000000        3.44760000000000
H            2.64010000000000       -2.41730000000000        2.22640000000000
H            1.40210000000000       -3.99470000000000        0.69440000000000
H            0.22610000000000       -4.26900000000000        1.94820000000000
H            3.22600000000000       -4.90090000000000        2.19760000000000
H            1.95790000000000       -6.09870000000000        1.94900000000000
H            2.03630000000000       -5.18960000000000        3.45520000000000
H           -4.22790000000000        3.02060000000000        2.57690000000000
H           -3.48550000000000        2.44410000000000        4.07510000000000
H           -4.59270000000000        1.37750000000000        3.14720000000000
H           -5.41660000000000       -1.14350000000000        0.97490000000000
H           -5.48620000000000       -0.30020000000000       -0.58740000000000
H           -5.57660000000000        0.62400000000000        0.94850000000000
H            2.43710000000000        5.64000000000000       -3.06380000000000
H            1.11180000000000        5.07490000000000       -4.07610000000000
H            2.61260000000000        4.16480000000000       -4.00840000000000
H            2.17170000000000        3.63400000000000       -1.57590000000000
H            0.68480000000000        4.53480000000000       -1.64200000000000
H           -0.19730000000000        2.93960000000000       -3.38790000000000
H            1.27120000000000        2.05000000000000       -3.33510000000000
C            0.17370000000000        2.01540000000000        3.83170000000000
C            3.05620000000000       -3.70770000000000        7.45070000000000
C           -2.87370000000000        1.34000000000000        7.77170000000000
C           -1.84740000000000        0.43090000000000        7.99110000000000
C           -0.63390000000000        0.57070000000000        7.23280000000000
C           -0.62420000000000        1.46210000000000        6.12440000000000
C           -1.67460000000000        2.36530000000000        5.98050000000000
C           -2.78560000000000        2.31480000000000        6.79470000000000
C            0.51100000000000       -0.26930000000000        7.45160000000000
C            1.41220000000000       -0.47640000000000        6.37700000000000
C            1.36700000000000        0.37520000000000        5.24150000000000
N            0.36160000000000        1.34050000000000        5.13390000000000
C            0.78870000000000       -0.94160000000000        8.69160000000000
C            1.56680000000000       -2.13050000000000        8.66390000000000
N            2.32260000000000       -2.42870000000000        7.52030000000000
C            2.35200000000000       -1.54330000000000        6.43100000000000
C            3.25000000000000       -1.68530000000000        5.37770000000000
C            3.25910000000000       -0.80300000000000        4.31310000000000
C            2.32300000000000        0.20890000000000        4.24930000000000
C            0.36480000000000       -0.41890000000000        9.95980000000000
C            0.44930000000000       -1.24610000000000       11.07150000000000
C            1.02450000000000       -2.50370000000000       10.99220000000000
C            1.60620000000000       -2.92030000000000        9.81190000000000
O           -0.05330000000000        0.90770000000000       10.02330000000000
O           -2.00170000000000       -0.64860000000000        8.86040000000000
C           -3.91980000000000        3.23270000000000        6.55560000000000
C            1.07120000000000       -3.36910000000000       12.18960000000000
C            4.23420000000000       -0.94550000000000        3.21160000000000
O            4.34500000000000       -0.05060000000000        2.39340000000000
O            4.93800000000000       -2.11760000000000        3.16070000000000
C            5.80480000000000       -2.08480000000000        2.07320000000000
O           -3.95650000000000        3.88530000000000        5.52910000000000
O           -4.88660000000000        3.26880000000000        7.52210000000000
C           -5.88090000000000        4.16830000000000        7.15330000000000
O            0.58180000000000       -2.98200000000000       13.23460000000000
O            1.68000000000000       -4.58440000000000       12.03520000000000
C            1.65110000000000       -5.27220000000000       13.24390000000000
H           -3.77700000000000        1.29330000000000        8.34850000000000
H           -1.64380000000000        3.12490000000000        5.22270000000000
H            0.08310000000000       -0.92400000000000       12.02750000000000
H            2.08820000000000       -3.87860000000000        9.81040000000000
H            3.97730000000000       -2.47250000000000        5.36620000000000
H            2.36420000000000        0.86580000000000        3.40160000000000
C            2.17990000000000       -4.81280000000000        6.88250000000000
C            2.91060000000000       -6.13630000000000        6.74160000000000
C            0.94180000000000        3.31740000000000        3.69850000000000
C            0.77300000000000        3.93340000000000        2.31870000000000
C           -0.59410000000000        1.30370000000000       11.25890000000000
C           -3.33060000000000       -0.93150000000000        9.22730000000000
H           -6.65130000000000        4.18960000000000        7.92670000000000
H           -6.31340000000000        3.85000000000000        6.20200000000000
H           -5.43640000000000        5.15980000000000        7.03920000000000
H            2.14350000000000       -6.23900000000000       13.12140000000000
H            0.61070000000000       -5.41580000000000       13.54490000000000
H            2.17060000000000       -4.67960000000000       14.00060000000000
H            6.28890000000000       -3.05720000000000        1.96410000000000
H            6.55320000000000       -1.30740000000000        2.24150000000000
H            5.23220000000000       -1.84550000000000        1.17420000000000
H            3.43080000000000       -3.97230000000000        8.44160000000000
H            3.96100000000000       -3.58850000000000        6.85360000000000
H            1.78370000000000       -4.48750000000000        5.91230000000000
H            1.29520000000000       -4.93110000000000        7.52020000000000
H            3.77320000000000       -6.04170000000000        6.08020000000000
H            2.26680000000000       -6.91790000000000        6.33340000000000
H            3.28070000000000       -6.48590000000000        7.70660000000000
H           -0.95900000000000        2.32680000000000       11.16030000000000
H            0.17790000000000        1.27290000000000       12.02890000000000
H           -1.42930000000000        0.65200000000000       11.51910000000000
H           -3.34450000000000       -1.86930000000000        9.78360000000000
H           -3.93300000000000       -1.04160000000000        8.32260000000000
H           -3.72050000000000       -0.13840000000000        9.86580000000000
H            1.31530000000000        4.87550000000000        2.21980000000000
H           -0.27830000000000        4.13170000000000        2.10350000000000
H            1.13600000000000        3.25970000000000        1.54050000000000
H            2.00290000000000        3.13810000000000        3.91170000000000
H            0.61020000000000        4.01550000000000        4.47720000000000
H           -0.89120000000000        2.18490000000000        3.66120000000000
H            0.45950000000000        1.32300000000000        3.03620000000000
156
 energy: -254.026504828810 gnorm: 0.063448025650 xtb: 6.7.1 (edcfbbe)
C            0.62113902394109        2.67187659758421       -2.70551994066343
C            1.57437309237331       -2.65618342693096        2.35400231876288
C           -4.00149013477008        1.92714443098492       -0.81305745885138
C           -3.20388900585899        0.99727496192980       -0.17327476943857
C           -1.78290109162646        1.12715997916383       -0.24494444366825
C           -1.23132306791337        2.01177760379605       -1.21095775448236
C           -2.06394623332538        2.96108287058076       -1.79811998931803
C           -3.43253717295344        2.94214381232757       -1.57487137289523
C           -0.89339289814603        0.35396784246711        0.56856320227313
C            0.41904900633870        0.12842131166553        0.08044978572945
C            0.91162752454009        0.90003055175587       -1.00946902327837
N            0.10638860270897        1.88314035337541       -1.58053974783900
C           -1.23143680090510       -0.18174903040637        1.85253416490018
C           -0.44397053774463       -1.23962307919070        2.38235533727652
N            0.74946768904984       -1.60039426255563        1.76126837796970
C            1.23193318998820       -0.87909062678727        0.67183248048231
C            2.48195931464367       -1.13107314601750        0.12429575070402
C            2.97329584720781       -0.35846096669082       -0.91900439300504
C            2.20172423084552        0.66004163615711       -1.46227793249271
C           -2.24974459460516        0.39139811604720        2.67679285832683
C           -2.60526475108666       -0.23196882789207        3.85817350502409
C           -1.93490643709761       -1.37490197512043        4.28012102720982
C           -0.85439760862680       -1.85655492657693        3.55822534756308
O           -2.73537524420095        1.62953024891438        2.31701739439293
O           -3.71917957155661       -0.10866213406268        0.46498693987059
C           -4.26473885635046        3.96923979528813       -2.22473015608391
C           -2.29682167314652       -1.99226743256773        5.56463347889638
C            4.31482833088378       -0.58756459498719       -1.48577223411368
O            4.74976071263044        0.09717571489114       -2.38623950954496
O            5.01959216834469       -1.61582293090974       -0.94719081906123
C            6.28220388509041       -1.73647299888212       -1.55677780306664
O           -3.78027093196135        4.83645888705794       -2.92044504025341
O           -5.59945422105484        3.86991124809139       -2.00052554249526
C           -6.30113530834740        4.89681179447228       -2.65796284815306
O           -3.28217033225993       -1.65849573664985        6.18879011629457
O           -1.42267025318664       -2.93536055291308        6.00223826497687
C           -1.73194696694311       -3.36141273150467        7.30729345648214
H           -5.07386729965536        1.89576130640307       -0.73940562910059
H           -1.68005718200396        3.74231305462210       -2.43054245865415
H           -3.36864007270451        0.17181775540227        4.50119734004337
H           -0.34344369947009       -2.71213321530406        3.95768210923182
H            3.10957903101800       -1.92022219512361        0.49121296576322
H            2.64574546797569        1.23979050052360       -2.25148069995782
C            1.27441466089734       -4.03408326617038        1.77522861976774
C            2.16993288407642       -5.10889597231453        2.37622448903451
C            1.36018047112329        3.92596004406401       -2.24388546341858
C            1.90594260130613        4.73971209789830       -3.40933000542010
C           -3.81993752567835        2.13018991282255        3.06899440884357
C           -5.12295101147698       -0.23095776653570        0.44520068919905
H           -7.36622889287432        4.78894406025798       -2.45593170287205
H           -6.11415374306257        4.83584431568201       -3.73366739673893
H           -5.94647473586742        5.86666215518008       -2.29835716459061
H           -1.09386990241372       -4.20283073046488        7.57273696513459
H           -2.78367845188403       -3.65547828240770        7.35757721091179
H           -1.55671800378518       -2.53383391825663        7.99808199560642
H            6.82030515643618       -2.57271916271048       -1.11127680725315
H            6.84478311485229       -0.80980042035534       -1.41527109699887
H            6.14849918987711       -1.90267025239341       -2.62889687299177
H            1.44032956883709       -2.65530920228369        3.43792367355622
H            2.62561082627103       -2.41403401202210        2.20479887866397
H            1.40913029960113       -3.99908028924677        0.68946985651365
H            0.22227074360457       -4.27586755453747        1.95460159419352
H            3.22157324054925       -4.88994653269116        2.19351514135809
H            1.95160569243720       -6.08512736324787        1.94566071097494
H            2.02882254807123       -5.18041555627254        3.45414201086178
H           -4.20612967081748        3.00805866333973        2.55042656431493
H           -3.49563660117453        2.43938969754137        4.06258605697081
H           -4.61087421995370        1.38238016265340        3.15019748594653
H           -5.38231159604693       -1.14537597859754        0.97925031161712
H           -5.49203330785545       -0.30279061815898       -0.58230752049704
H           -5.59194858532170        0.61847988611418        0.94872536790875
H            2.42830961226127        5.62695523993757       -3.05417229948654
H            1.10388540613529        5.06801902717735       -4.06959649959297
H            2.60943478884073        4.15514478736342       -4.00131539567146
H            2.17947964961994        3.63196018156841       -1.58027999535963
H            0.67857696274866        4.54000057865531       -1.64678058915797
H           -0.20777806938749        2.93889732999753       -3.36519706251082
H            1.27743917183493        2.04292228362280       -3.31289856889872
C            0.18225324785602        2.01299219036261        3.84780345724130
C            3.04701151557979       -3.69583693899123        7.45031015953323
C           -2.87381424883229        1.33480460029672        7.77972633090779
C           -1.84394452467164        0.43869952627279        7.99038938212562
C           -0.64125615586420        0.55360942088863        7.22522082388741
C           -0.63428683099507        1.43745185462983        6.11025641185210
C           -1.66638834597653        2.36131881448574        5.97323024548571
C           -2.77564232381578        2.31901966437826        6.80553904109446
C            0.50490465699325       -0.27374784993972        7.45315138041520
C            1.40381022804850       -0.48210480134187        6.37745984819132
C            1.35458267122403        0.36915358156786        5.24027231315428
N            0.36008172392008        1.33441583315067        5.13779034227612
C            0.79468748136415       -0.93569222981624        8.69021891029876
C            1.58052238005797       -2.11991697628390        8.66000775526626
N            2.31677141216322       -2.42741293265047        7.51733218251441
C            2.34654840483057       -1.54779261573508        6.43536165190806
C            3.24726635513747       -1.69650392646902        5.38856518326467
C            3.25368781044610       -0.80413241812492        4.32317396771808
C            2.31500697575161        0.21531419332092        4.25080293239361
C            0.36198423132726       -0.43119710323982        9.95359171805285
C            0.45230536519409       -1.24257655403965       11.06825186437404
C            1.02536784246775       -2.50668351344594       10.97932236657272
C            1.61692901241738       -2.92391652475574        9.79584734980954
O           -0.06044753268396        0.87692132551541       10.01309590488368
O           -1.99250860559487       -0.62557124843564        8.85419590308554
C           -3.89396985614246        3.24329520393850        6.55380134064067
C            1.05663949485987       -3.34847631138611       12.18712017840751
C            4.22315367609221       -0.92008600396102        3.21967739906901
O            4.35263263718837       -0.04121381558205        2.39405600588421
O            4.92634945491303       -2.08129980404614        3.17203301698651
C            5.81423182281789       -2.08587361809529        2.07882940868634
O           -3.95253449592418        3.91021709978049        5.54065377574619
O           -4.86097712513826        3.27037504097598        7.50239002423869
C           -5.88494929143541        4.17017017729137        7.15534368015080
O            0.57835194847846       -2.98045695998502       13.23898203926509
O            1.66368919985865       -4.55406922122015       12.04022174060524
C            1.65169258789809       -5.27588483553104       13.24754743762485
H           -3.78224364843579        1.28682152505721        8.35200445963434
H           -1.63405310902218        3.12912165336713        5.21982799691089
H            0.08699682898498       -0.92596626373451       12.03004356712277
H            2.09708872454906       -3.88499189430437        9.79792215650127
H            3.97881319648015       -2.48338725065992        5.37302679595494
H            2.36472138971869        0.87094286263685        3.39987535235885
C            2.17041832785676       -4.80869681590929        6.88077616895747
C            2.91380925301397       -6.12953631421215        6.74401043031787
C            0.95062408050235        3.32169063114173        3.71128936475133
C            0.77019471428499        3.92588753460402        2.32392459103967
C           -0.59310985803324        1.29618721968217       11.24887587718064
C           -3.32195730859248       -0.92293868732202        9.22933606668187
H           -6.63955826868568        4.17138516414636        7.94062386504278
H           -6.33198223576495        3.86784660325674        6.20415390498960
H           -5.46330054572993        5.17229966349613        7.03762703385211
H            2.14829070702990       -6.23362628079285       13.09654971098270
H            0.61790048288809       -5.43395303706738       13.56679674287823
H            2.16954180367145       -4.70108438587567       14.02024577648595
H            6.28089772734580       -3.06661549935368        1.99582721823392
H            6.57519501408162       -1.31541489831283        2.22515972643852
H            5.26400704883058       -1.85397045918433        1.16430960629409
H            3.41078867633681       -3.96071375178123        8.44565156979337
H            3.94451153288589       -3.57449016283977        6.84193967722795
H            1.78949794102037       -4.48891741923653        5.90527058904066
H            1.29739523962683       -4.93725046808013        7.52815778207741
H            3.77154793340267       -6.03097214432329        6.07937520111962
H            2.26377586594493       -6.90275084434164        6.33648966271343
H            3.27766752282835       -6.47633421465626        7.71055438741315
H           -0.94798085862739        2.32009961446973       11.12722913662824
H            0.17140497039077        1.27767160383537       12.03107038003075
H           -1.43410950038785        0.65884228087493       11.53410790403598
H           -3.30813945732699       -1.86366591273813        9.78097967314024
H           -3.94043180046715       -1.04118856058934        8.33503849081037
H           -3.73036983418352       -0.14315663955412        9.87662189407598
H            1.31372068828260        4.86534486831580        2.23330203501328
H           -0.28082950310875        4.12343118687404        2.11495562660097
H            1.13867796034617        3.25054425718796        1.55170140680029
H            2.01195978092847        3.14087409938828        3.90572371097651
H            0.60576611857426        4.02447662201484        4.47590424813311
H           -0.87956672829256        2.19503016967856        3.68530925560305
H            0.47827888518073        1.32305289342479        3.05330323686859
156
 energy: -254.038889418283 gnorm: 0.016584847133 xtb: 6.7.1 (edcfbbe)
C            0.61634952863087        2.66198957234658       -2.69183496630676
C            1.56526652343425       -2.64890987265046        2.34230760667545
C           -4.00516267351973        1.92429939706264       -0.81652283137138
C           -3.20258550669358        1.00115702756950       -0.17974504392749
C           -1.78493029356560        1.11506887992532       -0.25192305496953
C           -1.23092898757705        1.99675929259290       -1.21833354451181
C           -2.05479249299913        2.95651648424607       -1.79865699911690
C           -3.42709990917748        2.94302092313900       -1.57162949817655
C           -0.89875721854081        0.35081439589206        0.56770903898746
C            0.41670014219132        0.12752657897111        0.08118779830514
C            0.90653006183382        0.89963427721201       -1.00885879130777
N            0.10403814782093        1.87916080580486       -1.57424648264243
C           -1.22651300613578       -0.17856824716598        1.85285389114529
C           -0.43268845691268       -1.23151578316192        2.38545479294588
N            0.74601061714145       -1.60113910513472        1.75451638569270
C            1.23034591817999       -0.88000839086309        0.67200464698918
C            2.47718024909224       -1.14201702700679        0.12105751826240
C            2.96494006198841       -0.35985058286914       -0.91978146750839
C            2.19733293663299        0.66699029966121       -1.46084670491142
C           -2.24898995306625        0.37951709326706        2.67419802925778
C           -2.60277028227874       -0.23170659365601        3.85780363755572
C           -1.92790110754649       -1.37655862261705        4.27779428452662
C           -0.84180805477585       -1.85841189608914        3.55667962144892
O           -2.74907900354029        1.58933861980863        2.29631999615838
O           -3.71104342277242       -0.08941569986994        0.46363333236031
C           -4.23400143890599        3.97837832595490       -2.23064617857079
C           -2.31024967817765       -1.97316472423532        5.55991086305148
C            4.29786616909036       -0.56393553197847       -1.50642938515768
O            4.74809349763390        0.11541119917284       -2.40049197283216
O            5.00052780730201       -1.59007549790816       -0.97948607647123
C            6.28622330236189       -1.73799704849369       -1.56366469356552
O           -3.76604948932237        4.85094893494264       -2.92840487405389
O           -5.56162261426457        3.88289836066962       -2.00843401585689
C           -6.30485831213416        4.90148068831160       -2.65953816764223
O           -3.29449304812102       -1.65187782259997        6.19086178542635
O           -1.44480499374164       -2.90855340982905        6.00172865207282
C           -1.73192433195758       -3.37412411706129        7.31277093767021
H           -5.07827661087666        1.89897461559163       -0.74644020208772
H           -1.67850416635176        3.74545727671109       -2.42652146565790
H           -3.36956604043949        0.16415403036986        4.50265275187565
H           -0.34580027928344       -2.72324039636913        3.95481943397655
H            3.10599769743055       -1.93735494672836        0.47358236747252
H            2.65436046683382        1.24395486134618       -2.24516097947590
C            1.26296498115614       -4.03327654127159        1.76513505539758
C            2.16627857238999       -5.10029158139150        2.37531328076093
C            1.35730625045273        3.92177224375681       -2.23080904198926
C            1.89910244340293        4.72921745791326       -3.40612424963505
C           -3.82327806425515        2.11885508638142        3.04769336591444
C           -5.11301102122026       -0.23523159164699        0.45210521738358
H           -7.35882396706574        4.75411304719522       -2.43104803497115
H           -6.13593569785783        4.84983928244777       -3.73894844437905
H           -5.96974555516671        5.88185913759873       -2.30891901045633
H           -1.07554722076089       -4.21496291807795        7.52881849553261
H           -2.77995784387116       -3.67857624946183        7.37671564799821
H           -1.55208099967778       -2.56612551698525        8.02547803231678
H            6.78447616066325       -2.58073612590193       -1.08691027284590
H            6.86478689308113       -0.82162555804538       -1.41989248136885
H            6.17913029811407       -1.91124871910483       -2.63794928217012
H            1.42882738175312       -2.65098496248392        3.42426409075411
H            2.61485625470301       -2.41383773021469        2.18607470797188
H            1.40899531841711       -4.00392091454158        0.68358134209148
H            0.21698150712424       -4.28102784261715        1.95513002034838
H            3.21420702191122       -4.87407018456663        2.18976562736708
H            1.94656733788453       -6.07373388320775        1.94320942259537
H            2.01948464275146       -5.16623237061076        3.45136567221520
H           -4.18228651186082        2.99562959263439        2.50858300927570
H           -3.50343424296125        2.43697160963560        4.04115850675003
H           -4.63292989924185        1.39023050405420        3.14479691458899
H           -5.33842774629485       -1.15592249459525        0.99034115946985