      -----------------------------------------------------------      
     |                   =====================                   |     
     |                           x T B                           |     
     |                   =====================                   |     
     |                         S. Grimme                         |     
     |          Mulliken Center for Theoretical Chemistry        |     
     |                    University of Bonn                     |     
      -----------------------------------------------------------      

   * xtb version 6.6.1 (8d0f1dd) compiled by 'runner@Mac-1690902418499.local' on 2023-08-01

   xtb is free software: you can redistribute it and/or modify it under
   the terms of the GNU Lesser General Public License as published by
   the Free Software Foundation, either version 3 of the License, or
   (at your option) any later version.
   
   xtb is distributed in the hope that it will be useful,
   but WITHOUT ANY WARRANTY; without even the implied warranty of
   MERCHANTABILITY or FITNESS FOR A PARTICULAR PURPOSE.  See the
   GNU Lesser General Public License for more details.
   
   Cite this work as:
   * C. Bannwarth, E. Caldeweyher, S. Ehlert, A. Hansen, P. Pracht,
     J. Seibert, S. Spicher, S. Grimme, WIREs Comput. Mol. Sci., 2020, 11,
     e01493. DOI: 10.1002/wcms.1493
   
   for GFN2-xTB:
   * C. Bannwarth, S. Ehlert and S. Grimme., J. Chem. Theory Comput., 2019,
     15, 1652-1671. DOI: 10.1021/acs.jctc.8b01176
   for GFN1-xTB:
   * S. Grimme, C. Bannwarth, P. Shushkov, J. Chem. Theory Comput., 2017,
     13, 1989-2009. DOI: 10.1021/acs.jctc.7b00118
   for GFN0-xTB:
   * P. Pracht, E. Caldeweyher, S. Ehlert, S. Grimme, ChemRxiv, 2019, preprint.
     DOI: 10.26434/chemrxiv.8326202.v1
   for GFN-FF:
   * S. Spicher and S. Grimme, Angew. Chem. Int. Ed., 2020, 59, 15665-15673.
     DOI: 10.1002/anie.202004239
   
   for ALPB and GBSA implicit solvation:
   * S. Ehlert, M. Stahn, S. Spicher, S. Grimme, J. Chem. Theory Comput.,
     2021, 17, 4250-4261. DOI: 10.1021/acs.jctc.1c00471
   
   for DFT-D4:
   * E. Caldeweyher, C. Bannwarth and S. Grimme, J. Chem. Phys., 2017,
     147, 034112. DOI: 10.1063/1.4993215
   * E. Caldeweyher, S. Ehlert, A. Hansen, H. Neugebauer, S. Spicher,
     C. Bannwarth and S. Grimme, J. Chem. Phys., 2019, 150, 154122.
     DOI: 10.1063/1.5090222
   * E. Caldeweyher, J.-M. Mewes, S. Ehlert and S. Grimme, Phys. Chem. Chem. Phys.
     2020, 22, 8499-8512. DOI: 10.1039/D0CP00502A
   
   for sTDA-xTB:
   * S. Grimme and C. Bannwarth, J. Chem. Phys., 2016, 145, 054103.
     DOI: 10.1063/1.4959605
   
   in the mass-spec context:
   * V. Asgeirsson, C. Bauer and S. Grimme, Chem. Sci., 2017, 8, 4879.
     DOI: 10.1039/c7sc00601b
   * J. Koopman and S. Grimme, ACS Omega 2019, 4, 12, 15120-15133.
     DOI: 10.1021/acsomega.9b02011
   
   for metadynamics refer to:
   * S. Grimme, J. Chem. Theory Comput., 2019, 155, 2847-2862
     DOI: 10.1021/acs.jctc.9b00143
   
   for SPH calculations refer to:
   * S. Spicher and S. Grimme, J. Chem. Theory Comput., 2021, 17, 1701-1714
     DOI: 10.1021/acs.jctc.0c01306
   
   with help from (in alphabetical order)
   P. Atkinson, C. Bannwarth, F. Bohle, G. Brandenburg, E. Caldeweyher
   M. Checinski, S. Dohm, S. Ehlert, S. Ehrlich, I. Gerasimov, C. Hölzer
   A. Katbashev, J. Koopman, C. Lavigne, S. Lehtola, F. März, M. Müller,
   F. Musil, H. Neugebauer, J. Pisarek, C. Plett, P. Pracht, F. Pultar,
   J. Seibert, P. Shushkov, S. Spicher, M. Stahn, M. Steiner, T. Strunk,
   J. Stückrath, T. Rose, and J. Unsleber
   
 * started run on 2024/11/12 at 09:34:20.332     

           -------------------------------------------------
          |                Calculation Setup                |
           -------------------------------------------------

          program call               : xtb opt_radical_Katherine1.mol --gfn2 --sp --chrg -2 --uhf 2
          coordinate file            : opt_radical_Katherine1.mol
          omp threads                :                     8

   ID    Z sym.   atoms
    1    6 C      1-21, 25-44, 47, 52-75
    2    8 O      22, 23, 45, 46, 48-51
    3    5 B      24
    4    1 H      76-141
########################################################################
[WARNING] Please study the warnings concerning your input carefully
-1- prog_main: Charge in sdf/mol input was overwritten
########################################################################

           -------------------------------------------------
          |                 G F N 2 - x T B                 |
           -------------------------------------------------

        Reference                      10.1021/acs.jctc.8b01176
      * Hamiltonian:
        H0-scaling (s, p, d)           1.850000    2.230000    2.230000
        zeta-weighting                 0.500000
      * Dispersion:
        s8                             2.700000
        a1                             0.520000
        a2                             5.000000
        s9                             5.000000
      * Repulsion:
        kExp                           1.500000    1.000000
        rExp                           1.000000
      * Coulomb:
        alpha                          2.000000
        third order                    shell-resolved
        anisotropic                    true
        a3                             3.000000
        a5                             4.000000
        cn-shift                       1.200000
        cn-exp                         4.000000
        max-rad                        5.000000

q/qsh data taken from xtbrestart
CAMM data taken from xtbrestart

          ...................................................
          :                      SETUP                      :
          :.................................................:
          :  # basis functions                 366          :
          :  # atomic orbitals                 366          :
          :  # shells                          216          :
          :  # electrons                       383          :
          :  max. iterations                   250          :
          :  Hamiltonian                  GFN2-xTB          :
          :  restarted?                       true          :
          :  GBSA solvation                  false          :
          :  PC potential                    false          :
          :  electronic temp.          300.0000000     K    :
          :  accuracy                    1.0000000          :
          :  -> integral cutoff          0.2500000E+02      :
          :  -> integral neglect         0.1000000E-07      :
          :  -> SCF convergence          0.1000000E-05 Eh   :
          :  -> wf. convergence          0.1000000E-03 e    :
          :  Broyden damping             0.4000000          :
          ...................................................

 iter      E             dE          RMSdq      gap      omega  full diag
   1   -212.6209775 -0.212621E+03  0.345E-01    1.23       0.0  T
   2   -212.6198786  0.109891E-02  0.319E-01    0.98       1.0  T
   3   -212.6005949  0.192836E-01  0.331E-01    0.86       1.0  T
   4   -212.6082763 -0.768143E-02  0.287E-01    1.01       1.0  T
   5   -212.6294628 -0.211864E-01  0.138E-01    1.06       1.0  T
   6   -212.6301503 -0.687532E-03  0.114E-01    1.07       1.0  T
   7   -212.6351408 -0.499051E-02  0.290E-02    1.10       1.0  T
   8   -212.6354114 -0.270612E-03  0.821E-03    1.11       1.0  T
   9   -212.6354240 -0.125647E-04  0.329E-03    1.11       2.6  T
  10   -212.6354130  0.110179E-04  0.516E-03    1.11       1.6  T
  11   -212.6354241 -0.110928E-04  0.150E-03    1.11       5.6  T
  12   -212.6354249 -0.885347E-06  0.423E-04    1.11      19.9  T
  13   -212.6354250 -0.557850E-07  0.123E-04    1.11      68.4  T

   *** convergence criteria satisfied after 13 iterations ***

         #    Occupation            Energy/Eh            Energy/eV
      -------------------------------------------------------------
         1        2.0000           -0.5094984             -13.8642
       ...           ...                  ...                  ...
       186        2.0000           -0.1982017              -5.3933
       187        2.0000           -0.1955225              -5.3204
       188        2.0000           -0.1940308              -5.2798
       189        2.0000           -0.1935000              -5.2654
       190        2.0000           -0.1894876              -5.1562
       191        1.8005           -0.1535636              -4.1787
       192        1.1995           -0.1509240              -4.1069 (HOMO)
       193                         -0.1100661              -2.9951 (LUMO)
       194                         -0.1099687              -2.9924
       195                         -0.0690046              -1.8777
       196                         -0.0676889              -1.8419
       197                         -0.0574903              -1.5644
       ...                                ...                  ...
       366                          0.9156090              24.9150
      -------------------------------------------------------------
                  HL-Gap            0.0408579 Eh            1.1118 eV
             Fermi-level           -0.1415041 Eh           -3.8505 eV

 transition dipole moment (au) for excitation:         191         192
     X       Y       Z   
   6.4003   0.7186   0.6942  total (au/Debye):    6.478  16.465
 dE (eV)             :    0.072
 oscillator strength :  0.10443E+00

 SCC (total)                   0 d,  0 h,  0 min,  1.397 sec
 SCC setup                      ...        0 min,  0.000 sec (  0.028%)
 Dispersion                     ...        0 min,  0.002 sec (  0.133%)
 classical contributions        ...        0 min,  0.000 sec (  0.026%)
 integral evaluation            ...        0 min,  0.007 sec (  0.528%)
 iterations                     ...        0 min,  1.284 sec ( 91.919%)
 molecular gradient             ...        0 min,  0.066 sec (  4.723%)
 printout                       ...        0 min,  0.037 sec (  2.641%)

         :::::::::::::::::::::::::::::::::::::::::::::::::::::
         ::                     SUMMARY                     ::
         :::::::::::::::::::::::::::::::::::::::::::::::::::::
         :: total energy            -209.493606161726 Eh    ::
         :: gradient norm              0.047800708563 Eh/a0 ::
         :: HOMO-LUMO gap              1.111799629061 eV    ::
         ::.................................................::
         :: SCC energy              -212.635424997839 Eh    ::
         :: -> isotropic ES            0.480609472530 Eh    ::
         :: -> anisotropic ES          0.033425987967 Eh    ::
         :: -> anisotropic XC          0.071350926714 Eh    ::
         :: -> dispersion             -0.205425949202 Eh    ::
         :: repulsion energy           3.138208774485 Eh    ::
         :: add. restraining           0.000000000000 Eh    ::
         :: total charge              -1.999993710602 e     ::
         :::::::::::::::::::::::::::::::::::::::::::::::::::::

           -------------------------------------------------
          |                Property Printout                |
           -------------------------------------------------

    * Orbital Energies and Occupations

         #    Occupation            Energy/Eh            Energy/eV
      -------------------------------------------------------------
         1        2.0000           -0.5094984             -13.8642
       ...           ...                  ...                  ...
       180        2.0000           -0.2193858              -5.9698
       181        2.0000           -0.2186085              -5.9486
       182        2.0000           -0.2169990              -5.9048
       183        2.0000           -0.2066378              -5.6229
       184        2.0000           -0.2036118              -5.5406
       185        2.0000           -0.2019310              -5.4948
       186        2.0000           -0.1982017              -5.3933
       187        2.0000           -0.1955225              -5.3204
       188        2.0000           -0.1940308              -5.2798
       189        2.0000           -0.1935000              -5.2654
       190        2.0000           -0.1894876              -5.1562
       191        1.8005           -0.1535636              -4.1787
       192        1.1995           -0.1509240              -4.1069 (HOMO)
       193                         -0.1100661              -2.9951 (LUMO)
       194                         -0.1099687              -2.9924
       195                         -0.0690046              -1.8777
       196                         -0.0676889              -1.8419
       197                         -0.0574903              -1.5644
       198                         -0.0573060              -1.5594
       199                         -0.0521938              -1.4203
       200                         -0.0519910              -1.4147
       201                         -0.0409918              -1.1154
       202                         -0.0362723              -0.9870
       203                         -0.0073315              -0.1995
       ...                                ...                  ...
       366                          0.9156090              24.9150
      -------------------------------------------------------------
                  HL-Gap            0.0408579 Eh            1.1118 eV
             Fermi-level           -0.1415041 Eh           -3.8505 eV

     #   Z          covCN         q      C6AA      α(0)
     1   6 C        2.929    -0.073    29.809     8.954
     2   6 C        2.855     0.168    24.375     8.092
     3   6 C        2.969    -0.015    28.392     8.740
     4   6 C        2.986    -0.034    28.842     8.809
     5   6 C        2.939    -0.048    29.192     8.861
     6   6 C        2.970    -0.011    28.291     8.725
     7   6 C        2.966    -0.006    28.165     8.705
     8   6 C        2.990    -0.005    28.144     8.702
     9   6 C        2.983    -0.031    28.761     8.797
    10   6 C        2.842     0.212    23.518     7.948
    11   6 C        2.974    -0.014    28.369     8.737
    12   6 C        2.984    -0.039    28.968     8.829
    13   6 C        2.840     0.208    23.602     7.962
    14   6 C        2.982    -0.032    28.790     8.801
    15   6 C        2.931    -0.034    28.840     8.807
    16   6 C        2.970    -0.014    28.362     8.736
    17   6 C        2.934    -0.029    28.737     8.792
    18   6 C        2.862     0.168    24.388     8.095
    19   6 C        2.928    -0.067    29.660     8.931
    20   6 C        2.971    -0.007    28.195     8.710
    21   6 C        2.935    -0.051    29.261     8.871
    22   8 O        1.632    -0.417    21.201     6.215
    23   8 O        1.639    -0.412    21.101     6.201
    24   5 B        3.184     0.627    13.235     6.067
    25   6 C        2.928    -0.067    29.658     8.931
    26   6 C        2.862     0.168    24.385     8.094
    27   6 C        2.974    -0.014    28.365     8.736
    28   6 C        2.984    -0.039    28.968     8.829
    29   6 C        2.935    -0.051    29.259     8.871
    30   6 C        2.971    -0.007    28.192     8.709
    31   6 C        2.966    -0.006    28.162     8.705
    32   6 C        2.990    -0.005    28.145     8.702
    33   6 C        2.982    -0.032    28.790     8.801
    34   6 C        2.968    -0.015    28.389     8.740
    35   6 C        2.986    -0.034    28.843     8.810
    36   6 C        2.843     0.212    23.521     7.948
    37   6 C        2.983    -0.031    28.762     8.797
    38   6 C        2.934    -0.029    28.737     8.792
    39   6 C        2.970    -0.014    28.362     8.736
    40   6 C        2.931    -0.034    28.839     8.807
    41   6 C        2.855     0.168    24.375     8.092
    42   6 C        2.929    -0.072    29.799     8.952
    43   6 C        2.970    -0.011    28.288     8.724
    44   6 C        2.939    -0.048    29.185     8.860
    45   8 O        1.632    -0.418    21.217     6.218
    46   8 O        1.639    -0.413    21.108     6.202
    47   6 C        2.840     0.208    23.602     7.962
    48   8 O        0.857    -0.460    22.912     6.418
    49   8 O        0.858    -0.467    23.067     6.439
    50   8 O        0.857    -0.459    22.904     6.417
    51   8 O        0.858    -0.467    23.068     6.439
    52   6 C        3.902     0.028    20.056     6.366
    53   6 C        3.760    -0.104    22.528     6.766
    54   6 C        3.760    -0.103    22.515     6.764
    55   6 C        3.765    -0.100    22.447     6.753
    56   6 C        3.903     0.026    20.074     6.369
    57   6 C        3.761    -0.102    22.498     6.762
    58   6 C        3.763    -0.100    22.449     6.754
    59   6 C        3.761    -0.100    22.464     6.757
    60   6 C        3.903     0.026    20.085     6.370
    61   6 C        3.762    -0.101    22.480     6.759
    62   6 C        3.761    -0.102    22.488     6.760
    63   6 C        3.761    -0.101    22.466     6.757
    64   6 C        3.903     0.026    20.074     6.369
    65   6 C        3.761    -0.101    22.466     6.757
    66   6 C        3.763    -0.100    22.448     6.754
    67   6 C        3.761    -0.102    22.497     6.762
    68   6 C        3.902     0.027    20.057     6.366
    69   6 C        3.765    -0.100    22.449     6.753
    70   6 C        3.760    -0.103    22.513     6.764
    71   6 C        3.760    -0.103    22.524     6.766
    72   6 C        3.903     0.026    20.085     6.370
    73   6 C        3.761    -0.101    22.466     6.757
    74   6 C        3.761    -0.102    22.489     6.760
    75   6 C        3.762    -0.101    22.480     6.759
    76   1 H        0.925     0.018     2.762     2.599
    77   1 H        0.925     0.035     2.520     2.483
    78   1 H        0.925     0.034     2.524     2.484
    79   1 H        0.925     0.019     2.749     2.593
    80   1 H        0.925     0.028     2.608     2.526
    81   1 H        0.925     0.038     2.482     2.464
    82   1 H        0.925     0.019     2.753     2.595
    83   1 H        0.925     0.039     2.462     2.454
    84   1 H        0.925     0.031     2.577     2.511
    85   1 H        0.925     0.018     2.767     2.601
    86   1 H        0.925     0.039     2.466     2.456
    87   1 H        0.925     0.035     2.518     2.481
    88   1 H        0.925     0.016     2.788     2.611
    89   1 H        0.925     0.032     2.562     2.503
    90   1 H        0.925     0.044     2.399     2.422
    91   1 H        0.925     0.020     2.739     2.588
    92   1 H        0.925     0.034     2.537     2.491
    93   1 H        0.925     0.029     2.601     2.522
    94   1 H        0.925     0.020     2.737     2.587
    95   1 H        0.925     0.043     2.403     2.424
    96   1 H        0.925     0.028     2.618     2.530
    97   1 H        0.925     0.019     2.747     2.592
    98   1 H        0.925     0.034     2.533     2.489
    99   1 H        0.925     0.033     2.541     2.493
   100   1 H        0.925     0.020     2.735     2.586
   101   1 H        0.925     0.029     2.608     2.525
   102   1 H        0.925     0.046     2.374     2.410
   103   1 H        0.925     0.019     2.750     2.593
   104   1 H        0.925     0.028     2.608     2.526
   105   1 H        0.925     0.038     2.481     2.463
   106   1 H        0.925     0.018     2.762     2.599
   107   1 H        0.925     0.035     2.520     2.483
   108   1 H        0.925     0.034     2.524     2.485
   109   1 H        0.925     0.019     2.752     2.594
   110   1 H        0.925     0.039     2.461     2.453
   111   1 H        0.925     0.031     2.578     2.511
   112   1 H        0.925     0.020     2.737     2.587
   113   1 H        0.925     0.029     2.605     2.524
   114   1 H        0.925     0.046     2.371     2.408
   115   1 H        0.925     0.020     2.738     2.588
   116   1 H        0.925     0.044     2.400     2.423
   117   1 H        0.925     0.028     2.619     2.531
   118   1 H        0.925     0.019     2.748     2.592
   119   1 H        0.925     0.034     2.534     2.489
   120   1 H        0.925     0.033     2.541     2.493
   121   1 H        0.925     0.016     2.789     2.611
   122   1 H        0.925     0.032     2.562     2.503
   123   1 H        0.925     0.044     2.396     2.421
   124   1 H        0.925     0.020     2.739     2.588
   125   1 H        0.925     0.033     2.541     2.493
   126   1 H        0.925     0.029     2.598     2.521
   127   1 H        0.925     0.018     2.767     2.601
   128   1 H        0.925     0.039     2.463     2.454
   129   1 H        0.925     0.035     2.521     2.483
   130   1 H        0.926     0.036     2.505     2.475
   131   1 H        0.926     0.033     2.539     2.492
   132   1 H        0.926     0.037     2.487     2.466
   133   1 H        0.926     0.042     2.418     2.432
   134   1 H        0.926     0.044     2.390     2.417
   135   1 H        0.926     0.039     2.456     2.451
   136   1 H        0.926     0.034     2.537     2.491
   137   1 H        0.926     0.036     2.506     2.475
   138   1 H        0.926     0.040     2.454     2.450
   139   1 H        0.926     0.044     2.390     2.418
   140   1 H        0.926     0.037     2.487     2.466
   141   1 H        0.926     0.042     2.418     2.432

 Mol. C6AA /au·bohr⁶  :     230188.382894
 Mol. C8AA /au·bohr⁸  :    5521408.688101
 Mol. α(0) /au        :        745.187912


Wiberg/Mayer (AO) data.
largest (>0.10) Wiberg bond orders for each atom

 ---------------------------------------------------------------------------
     #   Z sym  total        # sym  WBO       # sym  WBO       # sym  WBO
 ---------------------------------------------------------------------------
     1   6 C    3.960 --     6 C    1.402     2 C    1.366   131 H    0.961
     2   6 C    3.905 --     1 C    1.366     3 C    1.217    22 O    1.137
     3   6 C    3.975 --     4 C    1.253     7 C    1.242     2 C    1.217
     4   6 C    3.957 --     5 C    1.400     3 C    1.253    10 C    1.067
     5   6 C    3.965 --     4 C    1.400     6 C    1.389   130 H    0.961
     6   6 C    3.944 --     1 C    1.402     5 C    1.389    52 C    0.981
     7   6 C    3.883 --     3 C    1.242     8 C    1.232    11 C    1.175
     8   6 C    3.971 --    14 C    1.260     9 C    1.248     7 C    1.232
     9   6 C    3.966 --    17 C    1.409     8 C    1.248    10 C    1.068
    10   6 C    3.925 --    50 O    1.656     9 C    1.068     4 C    1.067
    11   6 C    3.980 --    12 C    1.277    18 C    1.257     7 C    1.175
    12   6 C    3.962 --    21 C    1.364    11 C    1.277    13 C    1.084
    13   6 C    3.925 --    51 O    1.642    12 C    1.084    14 C    1.065
    14   6 C    3.964 --    15 C    1.400     8 C    1.260    13 C    1.065
    15   6 C    3.985 --    16 C    1.408    14 C    1.400   133 H    0.961
    16   6 C    3.957 --    15 C    1.408    17 C    1.396    60 C    0.980
    17   6 C    3.986 --     9 C    1.409    16 C    1.396   132 H    0.960
    18   6 C    3.919 --    19 C    1.390    11 C    1.257    23 O    1.092
    19   6 C    3.965 --    18 C    1.390    20 C    1.383   135 H    0.957
    20   6 C    3.959 --    21 C    1.429    19 C    1.383    56 C    0.981
    21   6 C    3.970 --    20 C    1.429    12 C    1.364   134 H    0.960
    22   8 O    2.136 --     2 C    1.137    24 B    0.754
    23   8 O    2.145 --    18 C    1.092    24 B    0.825
    24   5 B    3.298 --    23 O    0.825    46 O    0.824    22 O    0.754
                            45 O    0.754
    25   6 C    3.965 --    26 C    1.390    30 C    1.383   138 H    0.957
    26   6 C    3.919 --    25 C    1.390    27 C    1.257    46 O    1.092
    27   6 C    3.980 --    28 C    1.277    26 C    1.257    31 C    1.175
    28   6 C    3.962 --    29 C    1.365    27 C    1.277    47 C    1.084
    29   6 C    3.969 --    30 C    1.429    28 C    1.365   139 H    0.960
    30   6 C    3.959 --    29 C    1.429    25 C    1.383    64 C    0.981
    31   6 C    3.883 --    34 C    1.241    32 C    1.232    27 C    1.175
    32   6 C    3.971 --    33 C    1.260    37 C    1.248    31 C    1.232
    33   6 C    3.964 --    40 C    1.400    32 C    1.260    47 C    1.065
    34   6 C    3.975 --    35 C    1.253    31 C    1.241    41 C    1.218
    35   6 C    3.958 --    44 C    1.400    34 C    1.253    36 C    1.067
    36   6 C    3.925 --    48 O    1.655    37 C    1.068    35 C    1.067
    37   6 C    3.966 --    38 C    1.409    32 C    1.248    36 C    1.068
    38   6 C    3.986 --    37 C    1.409    39 C    1.396   140 H    0.960
    39   6 C    3.957 --    40 C    1.408    38 C    1.396    72 C    0.980
    40   6 C    3.985 --    39 C    1.408    33 C    1.400   141 H    0.961
    41   6 C    3.906 --    42 C    1.367    34 C    1.218    45 O    1.135
    42   6 C    3.960 --    43 C    1.403    41 C    1.367   136 H    0.962
    43   6 C    3.945 --    42 C    1.403    44 C    1.390    68 C    0.981
    44   6 C    3.965 --    35 C    1.400    43 C    1.390   137 H    0.960
    45   8 O    2.133 --    41 C    1.135    24 B    0.754
    46   8 O    2.144 --    26 C    1.092    24 B    0.824
    47   6 C    3.925 --    49 O    1.642    28 C    1.084    33 C    1.065
    48   8 O    1.926 --    36 C    1.655
    49   8 O    1.915 --    47 C    1.642
    50   8 O    1.926 --    10 C    1.656
    51   8 O    1.915 --    13 C    1.642
    52   6 C    3.989 --    53 C    0.999    54 C    0.993    55 C    0.983
                             6 C    0.981
    53   6 C    3.996 --    52 C    0.999   121 H    0.986   122 H    0.984
                           123 H    0.980
    54   6 C    3.995 --    52 C    0.993   127 H    0.986   129 H    0.983
                           128 H    0.982
    55   6 C    3.993 --   126 H    0.987   125 H    0.986   124 H    0.985
                            52 C    0.983
    56   6 C    3.990 --    57 C    0.999    59 C    0.991    58 C    0.987
                            20 C    0.981
    57   6 C    3.997 --    56 C    0.999    97 H    0.986    99 H    0.986
                            98 H    0.985
    58   6 C    3.994 --    96 H    0.987    56 C    0.987    94 H    0.985
                            95 H    0.980
    59   6 C    3.995 --    56 C    0.991   101 H    0.987   100 H    0.986
                           102 H    0.976
    60   6 C    3.989 --    62 C    0.999    61 C    0.989    63 C    0.989
                            16 C    0.980
    61   6 C    3.995 --    60 C    0.989   111 H    0.987   109 H    0.986
                           110 H    0.984
    62   6 C    3.997 --    60 C    0.999   106 H    0.986   107 H    0.985
                           108 H    0.985
    63   6 C    3.995 --    60 C    0.989   104 H    0.987   103 H    0.986
                           105 H    0.984
    64   6 C    3.990 --    67 C    0.999    65 C    0.991    66 C    0.987
                            30 C    0.981
    65   6 C    3.995 --    64 C    0.991   113 H    0.987   112 H    0.986
                           114 H    0.976
    66   6 C    3.994 --   117 H    0.987    64 C    0.987   115 H    0.985
                           116 H    0.980
    67   6 C    3.997 --    64 C    0.999   118 H    0.986   120 H    0.986
                           119 H    0.985
    68   6 C    3.989 --    71 C    0.999    70 C    0.993    69 C    0.983
                            43 C    0.981
    69   6 C    3.993 --    93 H    0.987    92 H    0.986    91 H    0.985
                            68 C    0.983
    70   6 C    3.995 --    68 C    0.993    85 H    0.986    87 H    0.983
                            86 H    0.982
    71   6 C    3.996 --    68 C    0.999    88 H    0.986    89 H    0.984
                            90 H    0.980
    72   6 C    3.989 --    74 C    0.999    75 C    0.990    73 C    0.988
                            39 C    0.980
    73   6 C    3.995 --    72 C    0.988    80 H    0.987    79 H    0.986
                            81 H    0.984
    74   6 C    3.997 --    72 C    0.999    76 H    0.986    77 H    0.985
                            78 H    0.985
    75   6 C    3.995 --    72 C    0.990    84 H    0.987    82 H    0.986
                            83 H    0.983
    76   1 H    0.999 --    74 C    0.986
    77   1 H    0.999 --    74 C    0.985
    78   1 H    0.999 --    74 C    0.985
    79   1 H    0.999 --    73 C    0.986
    80   1 H    0.999 --    73 C    0.987
    81   1 H    0.999 --    73 C    0.984
    82   1 H    0.999 --    75 C    0.986
    83   1 H    0.998 --    75 C    0.983
    84   1 H    0.999 --    75 C    0.987
    85   1 H    0.999 --    70 C    0.986
    86   1 H    0.998 --    70 C    0.982
    87   1 H    0.999 --    70 C    0.983
    88   1 H    0.999 --    71 C    0.986
    89   1 H    0.999 --    71 C    0.984
    90   1 H    0.998 --    71 C    0.980
    91   1 H    0.998 --    69 C    0.985
    92   1 H    0.999 --    69 C    0.986
    93   1 H    0.999 --    69 C    0.987
    94   1 H    0.999 --    58 C    0.985
    95   1 H    0.998 --    58 C    0.980
    96   1 H    0.999 --    58 C    0.987
    97   1 H    0.999 --    57 C    0.986
    98   1 H    0.999 --    57 C    0.985
    99   1 H    0.999 --    57 C    0.986
   100   1 H    0.999 --    59 C    0.986
   101   1 H    0.999 --    59 C    0.987
   102   1 H    0.998 --    59 C    0.976
   103   1 H    0.999 --    63 C    0.986
   104   1 H    0.999 --    63 C    0.987
   105   1 H    0.999 --    63 C    0.984
   106   1 H    0.999 --    62 C    0.986
   107   1 H    0.999 --    62 C    0.985
   108   1 H    0.999 --    62 C    0.985
   109   1 H    0.999 --    61 C    0.986
   110   1 H    0.998 --    61 C    0.984
   111   1 H    0.999 --    61 C    0.987
   112   1 H    0.999 --    65 C    0.986
   113   1 H    0.999 --    65 C    0.987
   114   1 H    0.998 --    65 C    0.976
   115   1 H    0.999 --    66 C    0.985
   116   1 H    0.998 --    66 C    0.980
   117   1 H    0.999 --    66 C    0.987
   118   1 H    0.999 --    67 C    0.986
   119   1 H    0.999 --    67 C    0.985
   120   1 H    0.999 --    67 C    0.986
   121   1 H    0.999 --    53 C    0.986
   122   1 H    0.999 --    53 C    0.984
   123   1 H    0.998 --    53 C    0.980
   124   1 H    0.998 --    55 C    0.985
   125   1 H    0.999 --    55 C    0.986
   126   1 H    0.999 --    55 C    0.987
   127   1 H    0.999 --    54 C    0.986
   128   1 H    0.998 --    54 C    0.982
   129   1 H    0.999 --    54 C    0.983
   130   1 H    0.998 --     5 C    0.961
   131   1 H    0.998 --     1 C    0.961
   132   1 H    0.998 --    17 C    0.960
   133   1 H    0.998 --    15 C    0.961
   134   1 H    0.997 --    21 C    0.960
   135   1 H    0.998 --    19 C    0.957
   136   1 H    0.998 --    42 C    0.962
   137   1 H    0.998 --    44 C    0.960
   138   1 H    0.998 --    25 C    0.957
   139   1 H    0.997 --    29 C    0.960
   140   1 H    0.998 --    38 C    0.960
   141   1 H    0.998 --    40 C    0.961
 ---------------------------------------------------------------------------

Topologies differ in bond orders
Writing corrected topology to xtbtopo.mol

molecular dipole:
                 x           y           z       tot (Debye)
 q only:       -0.040      -0.581       1.418
   full:       -0.061      -0.608       1.609       4.374
molecular quadrupole (traceless):
                xx          xy          yy          xz          yz          zz
 q only:     -102.259       7.957      22.826     -15.845      -7.804      79.434
  q+dip:     -107.171      11.828      24.200     -16.096      -7.667      82.972
   full:     -105.831      13.079      19.387     -16.088      -8.857      86.444


           -------------------------------------------------
          | TOTAL ENERGY             -209.493606161726 Eh   |
          | GRADIENT NORM               0.047800708563 Eh/α |
          | HOMO-LUMO GAP               1.111799629061 eV   |
           -------------------------------------------------
########################################################################
[WARNING] Runtime exception occurred
-1- restart_readRestart: Number of electron missmatch in restart file.
########################################################################

------------------------------------------------------------------------
 * finished run on 2024/11/12 at 09:34:21.748     
------------------------------------------------------------------------
 total:
 * wall-time:     0 d,  0 h,  0 min,  1.415 sec
 *  cpu-time:     0 d,  0 h,  0 min,  5.535 sec
 * ratio c/w:     3.912 speedup
Note: The following floating-point exceptions are signalling: IEEE_UNDERFLOW_FLAG
normal termination of xtb
 SCF:
 * wall-time:     0 d,  0 h,  0 min,  1.397 sec
 *  cpu-time:     0 d,  0 h,  0 min,  5.496 sec
 * ratio c/w:     3.934 speedup

