      -----------------------------------------------------------      
     |                   =====================                   |     
     |                           x T B                           |     
     |                   =====================                   |     
     |                         S. Grimme                         |     
     |          Mulliken Center for Theoretical Chemistry        |     
     |                    University of Bonn                     |     
      -----------------------------------------------------------      

   * xtb version 6.6.1 (8d0f1dd) compiled by 'runner@Mac-1690902418499.local' on 2023-08-01

   xtb is free software: you can redistribute it and/or modify it under
   the terms of the GNU Lesser General Public License as published by
   the Free Software Foundation, either version 3 of the License, or
   (at your option) any later version.
   
   xtb is distributed in the hope that it will be useful,
   but WITHOUT ANY WARRANTY; without even the implied warranty of
   MERCHANTABILITY or FITNESS FOR A PARTICULAR PURPOSE.  See the
   GNU Lesser General Public License for more details.
   
   Cite this work as:
   * C. Bannwarth, E. Caldeweyher, S. Ehlert, A. Hansen, P. Pracht,
     J. Seibert, S. Spicher, S. Grimme, WIREs Comput. Mol. Sci., 2020, 11,
     e01493. DOI: 10.1002/wcms.1493
   
   for GFN2-xTB:
   * C. Bannwarth, S. Ehlert and S. Grimme., J. Chem. Theory Comput., 2019,
     15, 1652-1671. DOI: 10.1021/acs.jctc.8b01176
   for GFN1-xTB:
   * S. Grimme, C. Bannwarth, P. Shushkov, J. Chem. Theory Comput., 2017,
     13, 1989-2009. DOI: 10.1021/acs.jctc.7b00118
   for GFN0-xTB:
   * P. Pracht, E. Caldeweyher, S. Ehlert, S. Grimme, ChemRxiv, 2019, preprint.
     DOI: 10.26434/chemrxiv.8326202.v1
   for GFN-FF:
   * S. Spicher and S. Grimme, Angew. Chem. Int. Ed., 2020, 59, 15665-15673.
     DOI: 10.1002/anie.202004239
   
   for ALPB and GBSA implicit solvation:
   * S. Ehlert, M. Stahn, S. Spicher, S. Grimme, J. Chem. Theory Comput.,
     2021, 17, 4250-4261. DOI: 10.1021/acs.jctc.1c00471
   
   for DFT-D4:
   * E. Caldeweyher, C. Bannwarth and S. Grimme, J. Chem. Phys., 2017,
     147, 034112. DOI: 10.1063/1.4993215
   * E. Caldeweyher, S. Ehlert, A. Hansen, H. Neugebauer, S. Spicher,
     C. Bannwarth and S. Grimme, J. Chem. Phys., 2019, 150, 154122.
     DOI: 10.1063/1.5090222
   * E. Caldeweyher, J.-M. Mewes, S. Ehlert and S. Grimme, Phys. Chem. Chem. Phys.
     2020, 22, 8499-8512. DOI: 10.1039/D0CP00502A
   
   for sTDA-xTB:
   * S. Grimme and C. Bannwarth, J. Chem. Phys., 2016, 145, 054103.
     DOI: 10.1063/1.4959605
   
   in the mass-spec context:
   * V. Asgeirsson, C. Bauer and S. Grimme, Chem. Sci., 2017, 8, 4879.
     DOI: 10.1039/c7sc00601b
   * J. Koopman and S. Grimme, ACS Omega 2019, 4, 12, 15120-15133.
     DOI: 10.1021/acsomega.9b02011
   
   for metadynamics refer to:
   * S. Grimme, J. Chem. Theory Comput., 2019, 155, 2847-2862
     DOI: 10.1021/acs.jctc.9b00143
   
   for SPH calculations refer to:
   * S. Spicher and S. Grimme, J. Chem. Theory Comput., 2021, 17, 1701-1714
     DOI: 10.1021/acs.jctc.0c01306
   
   with help from (in alphabetical order)
   P. Atkinson, C. Bannwarth, F. Bohle, G. Brandenburg, E. Caldeweyher
   M. Checinski, S. Dohm, S. Ehlert, S. Ehrlich, I. Gerasimov, C. Hölzer
   A. Katbashev, J. Koopman, C. Lavigne, S. Lehtola, F. März, M. Müller,
   F. Musil, H. Neugebauer, J. Pisarek, C. Plett, P. Pracht, F. Pultar,
   J. Seibert, P. Shushkov, S. Spicher, M. Stahn, M. Steiner, T. Strunk,
   J. Stückrath, T. Rose, and J. Unsleber
   
 * started run on 2024/11/12 at 09:31:35.491     

           -------------------------------------------------
          |                Calculation Setup                |
           -------------------------------------------------

          program call               : xtb Katherine1.mol --opt --gfn2 --chrg -2 --uhf 2 --tight
          coordinate file            : Katherine1.mol
          omp threads                :                     8

   ID    Z sym.   atoms
    1    6 C      1-21, 25-44, 47, 52-75
    2    8 O      22, 23, 45, 46, 48-51
    3    5 B      24
    4    1 H      76-141
########################################################################
[WARNING] Please study the warnings concerning your input carefully
-2- prog_main: Charge in sdf/mol input was overwritten
-1- prog_main_parseArguments: Unknown option '--tight' provided
########################################################################

           -------------------------------------------------
          |                 G F N 2 - x T B                 |
           -------------------------------------------------

        Reference                      10.1021/acs.jctc.8b01176
      * Hamiltonian:
        H0-scaling (s, p, d)           1.850000    2.230000    2.230000
        zeta-weighting                 0.500000
      * Dispersion:
        s8                             2.700000
        a1                             0.520000
        a2                             5.000000
        s9                             5.000000
      * Repulsion:
        kExp                           1.500000    1.000000
        rExp                           1.000000
      * Coulomb:
        alpha                          2.000000
        third order                    shell-resolved
        anisotropic                    true
        a3                             3.000000
        a5                             4.000000
        cn-shift                       1.200000
        cn-exp                         4.000000
        max-rad                        5.000000

q/qsh data taken from xtbrestart
CAMM data taken from xtbrestart

          ...................................................
          :                      SETUP                      :
          :.................................................:
          :  # basis functions                 366          :
          :  # atomic orbitals                 366          :
          :  # shells                          216          :
          :  # electrons                       383          :
          :  max. iterations                   250          :
          :  Hamiltonian                  GFN2-xTB          :
          :  restarted?                       true          :
          :  GBSA solvation                  false          :
          :  PC potential                    false          :
          :  electronic temp.          300.0000000     K    :
          :  accuracy                    1.0000000          :
          :  -> integral cutoff          0.2500000E+02      :
          :  -> integral neglect         0.1000000E-07      :
          :  -> SCF convergence          0.1000000E-05 Eh   :
          :  -> wf. convergence          0.1000000E-03 e    :
          :  Broyden damping             0.4000000          :
          ...................................................

 iter      E             dE          RMSdq      gap      omega  full diag
   1   -212.0851562 -0.212085E+03  0.205E+00    1.36       0.0  T
   2   -212.0530449  0.321113E-01  0.141E+00    0.62       1.0  T
   3   -211.9036458  0.149399E+00  0.117E+00    1.29       1.0  T
   4   -212.0323112 -0.128665E+00  0.667E-01    0.46       1.0  T
   5   -212.1441108 -0.111800E+00  0.139E-01    0.99       1.0  T
   6   -212.1391658  0.494506E-02  0.161E-01    0.94       1.0  T
   7   -212.1228713  0.162945E-01  0.264E-01    0.86       1.0  T
   8   -212.1469607 -0.240894E-01  0.253E-02    0.97       1.0  T
   9   -212.1461257  0.834956E-03  0.512E-02    0.96       1.0  T
  10   -212.1470181 -0.892385E-03  0.503E-03    0.97       1.7  T
  11   -212.1470221 -0.401983E-05  0.184E-03    0.97       4.6  T
  12   -212.1470224 -0.327812E-06  0.761E-04    0.97      11.1  T
  13   -212.1470219  0.529129E-06  0.134E-03    0.97       6.3  T
  14   -212.1470225 -0.587231E-06  0.226E-04    0.97      37.2  T

   *** convergence criteria satisfied after 14 iterations ***

         #    Occupation            Energy/Eh            Energy/eV
      -------------------------------------------------------------
         1        2.0000           -0.5202784             -14.1575
       ...           ...                  ...                  ...
       186        2.0000           -0.2027351              -5.5167
       187        2.0000           -0.1976042              -5.3771
       188        2.0000           -0.1954631              -5.3188
       189        2.0000           -0.1942075              -5.2847
       190        2.0000           -0.1919887              -5.2243
       191        1.8042           -0.1564201              -4.2564
       192        1.1958           -0.1537356              -4.1834 (HOMO)
       193                         -0.1180567              -3.2125 (LUMO)
       194                         -0.1179259              -3.2089
       195                         -0.0831573              -2.2628
       196                         -0.0817008              -2.2232
       197                         -0.0630490              -1.7157
       ...                                ...                  ...
       366                          0.8732847              23.7633
      -------------------------------------------------------------
                  HL-Gap            0.0356789 Eh            0.9709 eV
             Fermi-level           -0.1456222 Eh           -3.9626 eV

 transition dipole moment (au) for excitation:         191         192
     X       Y       Z   
   6.7837   0.2503   0.7121  total (au/Debye):    6.826  17.349
 dE (eV)             :    0.073
 oscillator strength :  0.11791E+00

 SCC (total)                   0 d,  0 h,  0 min,  1.575 sec
 SCC setup                      ...        0 min,  0.000 sec (  0.026%)
 Dispersion                     ...        0 min,  0.002 sec (  0.112%)
 classical contributions        ...        0 min,  0.000 sec (  0.026%)
 integral evaluation            ...        0 min,  0.008 sec (  0.478%)
 iterations                     ...        0 min,  1.466 sec ( 93.074%)
 molecular gradient             ...        0 min,  0.072 sec (  4.593%)
 printout                       ...        0 min,  0.027 sec (  1.689%)

         :::::::::::::::::::::::::::::::::::::::::::::::::::::
         ::                     SUMMARY                     ::
         :::::::::::::::::::::::::::::::::::::::::::::::::::::
         :: total energy            -209.334779051579 Eh    ::
         :: gradient norm              0.233173885590 Eh/a0 ::
         :: HOMO-LUMO gap              0.970871679013 eV    ::
         ::.................................................::
         :: SCC energy              -212.147022494127 Eh    ::
         :: -> isotropic ES            0.476519370069 Eh    ::
         :: -> anisotropic ES          0.042459395136 Eh    ::
         :: -> anisotropic XC          0.079843713596 Eh    ::
         :: -> dispersion             -0.203221827244 Eh    ::
         :: repulsion energy           2.809545101069 Eh    ::
         :: add. restraining           0.000000000000 Eh    ::
         :: total charge              -2.000009121985 e     ::
         :::::::::::::::::::::::::::::::::::::::::::::::::::::

      ----------------------------------------------------------- 
     |                   =====================                   |
     |                        A N C O P T                        |
     |                   =====================                   |
     |               Approximate Normal Coordinate               |
     |                Rational Function Optimizer                |
      ----------------------------------------------------------- 

          ...................................................
          :                      SETUP                      :
          :.................................................:
          :   optimization level            normal          :
          :   max. optcycles                   423          :
          :   ANC micro-cycles                  20          :
          :   degrees of freedom               417          :
          :.................................................:
          :   RF solver                   davidson          :
          :   write xtbopt.log                true          :
          :   linear?                        false          :
          :   energy convergence         0.5000000E-05 Eh   :
          :   grad. convergence          0.1000000E-02 Eh/α :
          :   maxmium RF displ.          1.0000000          :
          :   Hlow (freq-cutoff)         0.1000000E-01      :
          :   Hmax (freq-cutoff)         5.0000000          :
          :   S6 in model hess.         20.0000000          :
          ...................................................

generating ANC from model Hessian ...
Using Lindh-Hessian (1995)
 Shifting diagonal of input Hessian by    9.9764937549160059E-003
 Lowest  eigenvalues of input Hessian
    0.000000    0.000000    0.000000    0.000000    0.000000    0.000000
    0.010000    0.010007    0.010017    0.010101    0.010130    0.010327
    0.010334    0.010393    0.010520    0.010634    0.010735    0.010762
 Highest eigenvalues
    1.991352    1.993532    2.194924    2.196996    2.223459    2.224925


........................................................................
.............................. CYCLE    1 ..............................
........................................................................

 iter      E             dE          RMSdq      gap      omega  full diag
   1   -212.1470225 -0.212147E+03  0.112E-04    0.97       0.0  T
   2   -212.1470222  0.298356E-06  0.936E-04    0.97       9.0  T
   3   -212.1470225 -0.299600E-06  0.765E-05    0.97     110.1  T
     SCC iter.                  ...        0 min,  0.201 sec
     gradient                   ...        0 min,  0.059 sec
 * total energy  :  -209.3347791 Eh     change       -0.4969195E-08 Eh
   gradient norm :     0.2331714 Eh/α   predicted     0.0000000E+00 (-100.00%)
   displ. norm   :     0.5510138 α      lambda       -0.1027871E+00
   maximum displ.:     0.1953384 α      in ANC's #162, #241, #224, ...

........................................................................
.............................. CYCLE    2 ..............................
........................................................................

 iter      E             dE          RMSdq      gap      omega  full diag
   1   -212.3270955 -0.212327E+03  0.284E-01    0.91       0.0  T
   2   -212.3256192  0.147632E-02  0.235E-01    1.10       1.0  T
   3   -212.3116023  0.140169E-01  0.263E-01    0.92       1.0  T
   4   -212.2925349  0.190674E-01  0.340E-01    0.78       1.0  T
   5   -212.3250796 -0.325447E-01  0.137E-01    0.96       1.0  T
   6   -212.3322136 -0.713402E-02  0.134E-02    1.02       1.0  T
   7   -212.3321501  0.634737E-04  0.163E-02    1.02       1.0  T
   8   -212.3322327 -0.825418E-04  0.410E-03    1.02       2.1  T
   9   -212.3322353 -0.258444E-05  0.163E-03    1.02       5.2  T
  10   -212.3322356 -0.366393E-06  0.785E-04    1.02      10.7  T
  11   -212.3322358 -0.136249E-06  0.443E-04    1.02      19.0  T
     SCC iter.                  ...        0 min,  0.809 sec
     gradient                   ...        0 min,  0.064 sec
 * total energy  :  -209.4118373 Eh     change       -0.7705825E-01 Eh
   gradient norm :     0.1247514 Eh/α   predicted    -0.6701015E-01 ( -13.04%)
   displ. norm   :     0.5677865 α      lambda       -0.5205864E-01
   maximum displ.:     0.2183014 α      in ANC's #154, #90, #162, ...

........................................................................
.............................. CYCLE    3 ..............................
........................................................................

 iter      E             dE          RMSdq      gap      omega  full diag
   1   -212.4649479 -0.212465E+03  0.189E-01    1.02       0.0  T
   2   -212.4649933 -0.454340E-04  0.167E-01    1.14       1.0  T
   3   -212.4591559  0.583742E-02  0.160E-01    1.04       1.0  T
   4   -212.4376247  0.215312E-01  0.272E-01    0.91       1.0  T
   5   -212.4642768 -0.266521E-01  0.885E-02    1.06       1.0  T
   6   -212.4673659 -0.308915E-02  0.176E-02    1.09       1.0  T
   7   -212.4674654 -0.995242E-04  0.607E-03    1.09       1.4  T
   8   -212.4674637  0.170909E-05  0.509E-03    1.09       1.7  T
   9   -212.4674709 -0.717988E-05  0.240E-03    1.09       3.5  T
  10   -212.4674734 -0.245070E-05  0.369E-04    1.09      22.8  T
  11   -212.4674734 -0.168931E-07  0.180E-04    1.09      46.8  T
  12   -212.4674734  0.821115E-08  0.199E-04    1.09      42.3  T
     SCC iter.                  ...        0 min,  0.775 sec
     gradient                   ...        0 min,  0.066 sec
 * total energy  :  -209.4447654 Eh     change       -0.3292809E-01 Eh
   gradient norm :     0.0362527 Eh/α   predicted    -0.3442071E-01 (   4.53%)
   displ. norm   :     0.5574875 α      lambda       -0.1435747E-01
   maximum displ.:     0.1711828 α      in ANC's #36, #90, #30, ...

........................................................................
.............................. CYCLE    4 ..............................
........................................................................

 iter      E             dE          RMSdq      gap      omega  full diag
   1   -212.5137720 -0.212514E+03  0.146E-01    1.10       0.0  T
   2   -212.5137195  0.525096E-04  0.882E-02    1.11       1.0  T
   3   -212.4982366  0.154829E-01  0.192E-01    1.02       1.0  T
   4   -212.5061820 -0.794542E-02  0.133E-01    1.06       1.0  T
   5   -212.5137978 -0.761579E-02  0.133E-02    1.11       1.0  T
   6   -212.5138655 -0.676645E-04  0.316E-03    1.11       2.7  T
   7   -212.5138683 -0.280014E-05  0.129E-03    1.11       6.5  T
   8   -212.5138684 -0.104977E-06  0.581E-04    1.11      14.5  T
   9   -212.5138684 -0.155019E-07  0.266E-04    1.11      31.7  T
     SCC iter.                  ...        0 min,  0.519 sec
     gradient                   ...        0 min,  0.065 sec
 * total energy  :  -209.4553299 Eh     change       -0.1056447E-01 Eh
   gradient norm :     0.0218684 Eh/α   predicted    -0.9409834E-02 ( -10.93%)
   displ. norm   :     0.6152325 α      lambda       -0.8000005E-02
   maximum displ.:     0.2173526 α      in ANC's #30, #21, #36, ...

........................................................................
.............................. CYCLE    5 ..............................
........................................................................

 iter      E             dE          RMSdq      gap      omega  full diag
   1   -212.5516982 -0.212552E+03  0.125E-01    1.11       0.0  T
   2   -212.5517129 -0.146863E-04  0.738E-02    1.11       1.0  T
   3   -212.5514793  0.233554E-03  0.322E-02    1.10       1.0  T
   4   -212.5494016  0.207771E-02  0.716E-02    1.10       1.0  T
   5   -212.5517243 -0.232264E-02  0.428E-03    1.11       2.0  T
   6   -212.5517299 -0.567713E-05  0.150E-03    1.11       5.6  T
   7   -212.5517301 -0.168186E-06  0.753E-04    1.11      11.2  T
   8   -212.5517301 -0.259227E-07  0.304E-04    1.11      27.7  T
     SCC iter.                  ...        0 min,  0.428 sec
     gradient                   ...        0 min,  0.060 sec
 * total energy  :  -209.4613200 Eh     change       -0.5990151E-02 Eh
   gradient norm :     0.0150434 Eh/α   predicted    -0.5514054E-02 (  -7.95%)
   displ. norm   :     0.6086253 α      lambda       -0.4445085E-02
   maximum displ.:     0.2803788 α      in ANC's #21, #30, #36, ...

........................................................................
.............................. CYCLE    6 ..............................
........................................................................

 iter      E             dE          RMSdq      gap      omega  full diag
   1   -212.5714597 -0.212571E+03  0.101E-01    1.11       0.0  T
   2   -212.5714758 -0.160634E-04  0.602E-02    1.11       1.0  T
   3   -212.5709039  0.571871E-03  0.416E-02    1.10       1.0  T
   4   -212.5657488  0.515512E-02  0.113E-01    1.08       1.0  T
   5   -212.5714939 -0.574512E-02  0.343E-03    1.11       2.5  T
   6   -212.5714967 -0.274811E-05  0.140E-03    1.11       6.0  T
   7   -212.5714969 -0.212768E-06  0.668E-04    1.11      12.6  T
   8   -212.5714969 -0.301040E-07  0.237E-04    1.11      35.5  T
     SCC iter.                  ...        0 min,  0.633 sec
     gradient                   ...        0 min,  0.065 sec
 * total energy  :  -209.4646709 Eh     change       -0.3350838E-02 Eh
   gradient norm :     0.0086946 Eh/α   predicted    -0.3045830E-02 (  -9.10%)
   displ. norm   :     0.6142965 α      lambda       -0.2788881E-02
   maximum displ.:     0.3472320 α      in ANC's #21, #30, #3, ...

........................................................................
.............................. CYCLE    7 ..............................
........................................................................

 iter      E             dE          RMSdq      gap      omega  full diag
   1   -212.5859794 -0.212586E+03  0.789E-02    1.10       0.0  T
   2   -212.5859540  0.253806E-04  0.476E-02    1.10       1.0  T
   3   -212.5765930  0.936106E-02  0.144E-01    1.04       1.0  T
   4   -212.5856136 -0.902064E-02  0.304E-02    1.09       1.0  T
   5   -212.5859883 -0.374719E-03  0.394E-03    1.10       2.1  T
   6   -212.5859935 -0.519531E-05  0.114E-03    1.10       7.4  T
   7   -212.5859937 -0.168122E-06  0.594E-04    1.10      14.2  T
   8   -212.5859937 -0.365501E-07  0.214E-04    1.10      39.4  T
     SCC iter.                  ...        0 min,  0.540 sec
     gradient                   ...        0 min,  0.062 sec
 * total energy  :  -209.4668497 Eh     change       -0.2178876E-02 Eh
   gradient norm :     0.0090103 Eh/α   predicted    -0.1920651E-02 ( -11.85%)
   displ. norm   :     0.6141421 α      lambda       -0.2048428E-02
   maximum displ.:     0.3651989 α      in ANC's #21, #3, #30, ...

........................................................................
.............................. CYCLE    8 ..............................
........................................................................

 iter      E             dE          RMSdq      gap      omega  full diag
   1   -212.5932109 -0.212593E+03  0.649E-02    1.10       0.0  T
   2   -212.5931675  0.433511E-04  0.400E-02    1.10       1.0  T
   3   -212.5820198  0.111478E-01  0.158E-01    1.04       1.0  T
   4   -212.5930014 -0.109817E-01  0.239E-02    1.10       1.0  T
   5   -212.5932195 -0.218019E-03  0.434E-03    1.10       1.9  T
   6   -212.5932262 -0.674032E-05  0.109E-03    1.10       7.7  T
   7   -212.5932264 -0.174977E-06  0.529E-04    1.10      15.9  T
   8   -212.5932264 -0.176653E-07  0.218E-04    1.10      38.6  T
     SCC iter.                  ...        0 min,  0.563 sec
     gradient                   ...        0 min,  0.060 sec
 * total energy  :  -209.4685389 Eh     change       -0.1689146E-02 Eh
   gradient norm :     0.0086424 Eh/α   predicted    -0.1410519E-02 ( -16.50%)
   displ. norm   :     0.6393074 α      lambda       -0.1770465E-02
   maximum displ.:     0.3680219 α      in ANC's #21, #3, #6, ...

........................................................................
.............................. CYCLE    9 ..............................
........................................................................

 iter      E             dE          RMSdq      gap      omega  full diag
   1   -212.5965388 -0.212597E+03  0.617E-02    1.10       0.0  T
   2   -212.5964853  0.535002E-04  0.384E-02    1.11       1.0  T
   3   -212.5841829  0.123024E-01  0.166E-01    1.04       1.0  T
   4   -212.5964501 -0.122672E-01  0.168E-02    1.10       1.0  T
   5   -212.5965432 -0.931339E-04  0.361E-03    1.11       2.3  T
   6   -212.5965480 -0.478475E-05  0.864E-04    1.11       9.7  T
   7   -212.5965480 -0.255309E-07  0.480E-04    1.11      17.6  T
   8   -212.5965480 -0.172141E-07  0.209E-04    1.11      40.3  T
     SCC iter.                  ...        0 min,  0.460 sec
     gradient                   ...        0 min,  0.064 sec
 * total energy  :  -209.4700432 Eh     change       -0.1504370E-02 Eh
   gradient norm :     0.0071382 Eh/α   predicted    -0.1247041E-02 ( -17.11%)
   displ. norm   :     0.6929298 α      lambda       -0.1632163E-02
   maximum displ.:     0.3754396 α      in ANC's #21, #3, #6, ...

........................................................................
.............................. CYCLE   10 ..............................
........................................................................

 iter      E             dE          RMSdq      gap      omega  full diag
   1   -212.5980765 -0.212598E+03  0.628E-02    1.11       0.0  T
   2   -212.5980094  0.671033E-04  0.393E-02    1.12       1.0  T
   3   -212.5843871  0.136223E-01  0.175E-01    1.05       1.0  T
   4   -212.5979961 -0.136090E-01  0.165E-02    1.11       1.0  T
   5   -212.5980818 -0.856924E-04  0.417E-03    1.12       2.0  T
   6   -212.5980883 -0.655873E-05  0.871E-04    1.12       9.7  T
   7   -212.5980884 -0.291059E-07  0.487E-04    1.12      17.3  T
   8   -212.5980884  0.614762E-10  0.249E-04    1.12      33.8  T
     SCC iter.                  ...        0 min,  0.453 sec
     gradient                   ...        0 min,  0.063 sec
 * total energy  :  -209.4714217 Eh     change       -0.1378498E-02 Eh
   gradient norm :     0.0055985 Eh/α   predicted    -0.1207926E-02 ( -12.37%)
   displ. norm   :     0.7052756 α      lambda       -0.1366568E-02
   maximum displ.:     0.3412183 α      in ANC's #21, #3, #6, ...

........................................................................
.............................. CYCLE   11 ..............................
........................................................................

 iter      E             dE          RMSdq      gap      omega  full diag
   1   -212.5977228 -0.212598E+03  0.601E-02    1.12       0.0  T
   2   -212.5977171  0.567211E-05  0.361E-02    1.12       1.0  T
   3   -212.5942423  0.347482E-02  0.881E-02    1.09       1.0  T
   4   -212.5971959 -0.295360E-02  0.354E-02    1.11       1.0  T
   5   -212.5977313 -0.535408E-03  0.171E-03    1.12       4.9  T
   6   -212.5977318 -0.435741E-06  0.801E-04    1.12      10.5  T
   7   -212.5977318 -0.365818E-07  0.442E-04    1.12      19.0  T
     SCC iter.                  ...        0 min,  0.506 sec
     gradient                   ...        0 min,  0.064 sec
 * total energy  :  -209.4725750 Eh     change       -0.1153242E-02 Eh
   gradient norm :     0.0056010 Eh/α   predicted    -0.1023161E-02 ( -11.28%)
   displ. norm   :     0.6848888 α      lambda       -0.1121750E-02
   maximum displ.:     0.3391942 α      in ANC's #3, #6, #21, ...

........................................................................
.............................. CYCLE   12 ..............................
........................................................................

 iter      E             dE          RMSdq      gap      omega  full diag
   1   -212.5996563 -0.212600E+03  0.532E-02    1.12       0.0  T
   2   -212.5996374  0.189077E-04  0.323E-02    1.13       1.0  T
   3   -212.5926463  0.699112E-02  0.125E-01    1.08       1.0  T
   4   -212.5995601 -0.691379E-02  0.165E-02    1.12       1.0  T
   5   -212.5996624 -0.102375E-03  0.216E-03    1.13       3.9  T
   6   -212.5996636 -0.119069E-05  0.738E-04    1.13      11.4  T
   7   -212.5996637 -0.324318E-07  0.387E-04    1.13      21.8  T
   8   -212.5996637 -0.379848E-08  0.172E-04    1.13      49.0  T
     SCC iter.                  ...        0 min,  0.538 sec
     gradient                   ...        0 min,  0.062 sec
 * total energy  :  -209.4735347 Eh     change       -0.9597361E-03 Eh
   gradient norm :     0.0062616 Eh/α   predicted    -0.8239697E-03 ( -14.15%)
   displ. norm   :     0.6697805 α      lambda       -0.9832025E-03
   maximum displ.:     0.3578251 α      in ANC's #3, #6, #21, ...

........................................................................
.............................. CYCLE   13 ..............................
........................................................................

 iter      E             dE          RMSdq      gap      omega  full diag
   1   -212.6004105 -0.212600E+03  0.486E-02    1.12       0.0  T
   2   -212.6003818  0.286891E-04  0.304E-02    1.12       1.0  T
   3   -212.5924721  0.790967E-02  0.133E-01    1.08       1.0  T
   4   -212.6002872 -0.781509E-02  0.182E-02    1.12       1.0  T
   5   -212.6004156 -0.128372E-03  0.289E-03    1.12       2.9  T
   6   -212.6004186 -0.303242E-05  0.661E-04    1.12      12.7  T
   7   -212.6004186 -0.209271E-07  0.379E-04    1.12      22.2  T
   8   -212.6004186 -0.664275E-08  0.161E-04    1.12      52.3  T
     SCC iter.                  ...        0 min,  0.456 sec
     gradient                   ...        0 min,  0.068 sec
 * total energy  :  -209.4743852 Eh     change       -0.8504313E-03 Eh
   gradient norm :     0.0055944 Eh/α   predicted    -0.7121447E-03 ( -16.26%)
   displ. norm   :     0.6602749 α      lambda       -0.8963106E-03
   maximum displ.:     0.3756578 α      in ANC's #3, #6, #12, ...

........................................................................
.............................. CYCLE   14 ..............................
........................................................................

 iter      E             dE          RMSdq      gap      omega  full diag
   1   -212.6038205 -0.212604E+03  0.458E-02    1.12       0.0  T
   2   -212.6037878  0.326969E-04  0.284E-02    1.12       1.0  T
   3   -212.5954508  0.833705E-02  0.136E-01    1.08       1.0  T
   4   -212.6038020 -0.835122E-02  0.919E-03    1.12       1.0  T
   5   -212.6038256 -0.235426E-04  0.183E-03    1.12       4.6  T
   6   -212.6038264 -0.864846E-06  0.642E-04    1.12      13.1  T
   7   -212.6038265 -0.339893E-07  0.335E-04    1.12      25.2  T
     SCC iter.                  ...        0 min,  0.375 sec
     gradient                   ...        0 min,  0.062 sec
 * total energy  :  -209.4751592 Eh     change       -0.7740166E-03 Eh
   gradient norm :     0.0052875 Eh/α   predicted    -0.6435407E-03 ( -16.86%)
   displ. norm   :     0.6486529 α      lambda       -0.8021235E-03
   maximum displ.:     0.3867161 α      in ANC's #3, #6, #12, ...

........................................................................
.............................. CYCLE   15 ..............................
........................................................................

 iter      E             dE          RMSdq      gap      omega  full diag
   1   -212.6047831 -0.212605E+03  0.444E-02    1.12       0.0  T
   2   -212.6044961  0.287002E-03  0.367E-02    1.11       1.0  T
   3   -212.5948074  0.968864E-02  0.150E-01    1.07       1.0  T
   4   -212.6047713 -0.996387E-02  0.928E-03    1.12       1.0  T
   5   -212.6047895 -0.181828E-04  0.324E-03    1.12       2.6  T
   6   -212.6047936 -0.406204E-05  0.601E-04    1.12      14.0  T
   7   -212.6047936 -0.795143E-08  0.384E-04    1.12      21.9  T
   8   -212.6047936 -0.183228E-07  0.121E-04    1.12      69.7  T
     SCC iter.                  ...        0 min,  0.491 sec
     gradient                   ...        0 min,  0.062 sec
 * total energy  :  -209.4758507 Eh     change       -0.6915752E-03 Eh
   gradient norm :     0.0049821 Eh/α   predicted    -0.5698093E-03 ( -17.61%)
   displ. norm   :     0.6207205 α      lambda       -0.6939542E-03
   maximum displ.:     0.3864503 α      in ANC's #3, #6, #1, ...

........................................................................
.............................. CYCLE   16 ..............................
........................................................................

 iter      E             dE          RMSdq      gap      omega  full diag
   1   -212.6063458 -0.212606E+03  0.411E-02    1.11       0.0  T
   2   -212.6062203  0.125508E-03  0.292E-02    1.11       1.0  T
   3   -212.5962616  0.995870E-02  0.150E-01    1.06       1.0  T
   4   -212.6063332 -0.100716E-01  0.831E-03    1.11       1.0  T
   5   -212.6063505 -0.173482E-04  0.230E-03    1.11       3.7  T
   6   -212.6063524 -0.184932E-05  0.540E-04    1.11      15.6  T
   7   -212.6063524 -0.148698E-07  0.308E-04    1.11      27.3  T
   8   -212.6063524 -0.761324E-08  0.118E-04    1.11      71.2  T
     SCC iter.                  ...        0 min,  0.535 sec
     gradient                   ...        0 min,  0.066 sec
 * total energy  :  -209.4764508 Eh     change       -0.6000596E-03 Eh
   gradient norm :     0.0047686 Eh/α   predicted    -0.4806673E-03 ( -19.90%)
   displ. norm   :     0.5765976 α      lambda       -0.5847000E-03
   maximum displ.:     0.3741674 α      in ANC's #3, #6, #1, ...

........................................................................
.............................. CYCLE   17 ..............................
........................................................................

 iter      E             dE          RMSdq      gap      omega  full diag
   1   -212.6080725 -0.212608E+03  0.366E-02    1.11       0.0  T
   2   -212.6077669  0.305596E-03  0.340E-02    1.11       1.0  T
   3   -212.6018624  0.590449E-02  0.118E-01    1.08       1.0  T
   4   -212.6080640 -0.620155E-02  0.821E-03    1.11       1.0  T
   5   -212.6080796 -0.156509E-04  0.232E-03    1.11       3.6  T
   6   -212.6080816 -0.197381E-05  0.501E-04    1.11      16.8  T
   7   -212.6080816 -0.138775E-07  0.286E-04    1.11      29.5  T
   8   -212.6080816 -0.725998E-08  0.113E-04    1.11      74.7  T
     SCC iter.                  ...        0 min,  0.795 sec
     gradient                   ...        0 min,  0.064 sec
 * total energy  :  -209.4769581 Eh     change       -0.5073229E-03 Eh
   gradient norm :     0.0043522 Eh/α   predicted    -0.3895494E-03 ( -23.21%)
   displ. norm   :     0.5251811 α      lambda       -0.4967757E-03
   maximum displ.:     0.3548236 α      in ANC's #3, #6, #1, ...

........................................................................
.............................. CYCLE   18 ..............................
........................................................................

 iter      E             dE          RMSdq      gap      omega  full diag
   1   -212.6078403 -0.212608E+03  0.317E-02    1.11       0.0  T
   2   -212.6076194  0.220832E-03  0.288E-02    1.11       1.0  T
   3   -212.6026753  0.494415E-02  0.107E-01    1.08       1.0  T
   4   -212.6078309 -0.515560E-02  0.795E-03    1.11       1.1  T
   5   -212.6078464 -0.154628E-04  0.166E-03    1.11       5.1  T
   6   -212.6078472 -0.862423E-06  0.428E-04    1.11      19.7  T
   7   -212.6078472 -0.466733E-08  0.255E-04    1.11      33.0  T
     SCC iter.                  ...        0 min,  0.439 sec
     gradient                   ...        0 min,  0.063 sec
 * total energy  :  -209.4773936 Eh     change       -0.4355080E-03 Eh
   gradient norm :     0.0045231 Eh/α   predicted    -0.3169005E-03 ( -27.23%)
   displ. norm   :     0.4774753 α      lambda       -0.4337142E-03
   maximum displ.:     0.3346629 α      in ANC's #3, #1, #6, ...

........................................................................
.............................. CYCLE   19 ..............................
........................................................................

 iter      E             dE          RMSdq      gap      omega  full diag
   1   -212.6094838 -0.212609E+03  0.261E-02    1.11       0.0  T
   2   -212.6094754  0.839163E-05  0.163E-02    1.11       1.0  T
   3   -212.6071654  0.230996E-02  0.715E-02    1.10       1.0  T
   4   -212.6093887 -0.222330E-02  0.155E-02    1.11       1.0  T
   5   -212.6094877 -0.989935E-04  0.136E-03    1.11       6.2  T
   6   -212.6094882 -0.484853E-06  0.363E-04    1.11      23.2  T
   7   -212.6094882 -0.714098E-08  0.204E-04    1.11      41.3  T
     SCC iter.                  ...        0 min,  0.571 sec
     gradient                   ...        0 min,  0.064 sec
 * total energy  :  -209.4777855 Eh     change       -0.3918958E-03 Eh
   gradient norm :     0.0038112 Eh/α   predicted    -0.2663025E-03 ( -32.05%)
   displ. norm   :     0.4573778 α      lambda       -0.4121034E-03
   maximum displ.:     0.3279234 α      in ANC's #3, #1, #6, ...

........................................................................
.............................. CYCLE   20 ..............................
........................................................................

 iter      E             dE          RMSdq      gap      omega  full diag
   1   -212.6094717 -0.212609E+03  0.241E-02    1.11       0.0  T
   2   -212.6093924  0.792414E-04  0.195E-02    1.11       1.0  T
   3   -212.6057174  0.367505E-02  0.910E-02    1.09       1.0  T
   4   -212.6094654 -0.374800E-02  0.596E-03    1.11       1.4  T
   5   -212.6094742 -0.885424E-05  0.848E-04    1.11       9.9  T
   6   -212.6094744 -0.170071E-06  0.314E-04    1.11      26.8  T
   7   -212.6094744 -0.432024E-08  0.163E-04    1.11      51.8  T
     SCC iter.                  ...        0 min,  0.539 sec
     gradient                   ...        0 min,  0.062 sec
 * total energy  :  -209.4781670 Eh     change       -0.3814715E-03 Eh
   gradient norm :     0.0036902 Eh/α   predicted    -0.2491577E-03 ( -34.69%)
   displ. norm   :     0.4683496 α      lambda       -0.4289027E-03
   maximum displ.:     0.3390562 α      in ANC's #3, #1, #6, ...
 * RMSD in coord.:     0.7649547 α      energy gain  -0.1433880E+00 Eh

generating ANC from model Hessian ...
Using Lindh-Hessian (1995)
 Shifting diagonal of input Hessian by    9.9674374860836915E-003
 Lowest  eigenvalues of input Hessian
    0.000000    0.000000    0.000000    0.000000    0.000000    0.000000
    0.010000    0.010021    0.010027    0.010115    0.010159    0.010392
    0.010408    0.010467    0.010612    0.010724    0.010822    0.010855
 Highest eigenvalues
    2.081110    2.081430    2.210096    2.210292    2.230462    2.230746


........................................................................
.............................. CYCLE   21 ..............................
........................................................................

 iter      E             dE          RMSdq      gap      omega  full diag
   1   -212.6100714 -0.212610E+03  0.258E-02    1.11       0.0  T
   2   -212.6100496  0.218517E-04  0.168E-02    1.11       1.0  T
   3   -212.6058462  0.420337E-02  0.962E-02    1.09       1.0  T
   4   -212.6100617 -0.421555E-02  0.615E-03    1.11       1.4  T
   5   -212.6100732 -0.114492E-04  0.985E-04    1.11       8.5  T
   6   -212.6100734 -0.239871E-06  0.337E-04    1.11      25.0  T
   7   -212.6100734 -0.101644E-07  0.168E-04    1.11      50.1  T
     SCC iter.                  ...        0 min,  0.485 sec
     gradient                   ...        0 min,  0.063 sec
 * total energy  :  -209.4785664 Eh     change       -0.3993586E-03 Eh
   gradient norm :     0.0037630 Eh/α   predicted     0.0000000E+00 (-100.00%)
   displ. norm   :     0.1046908 α      lambda       -0.1373691E-03
   maximum displ.:     0.0912496 α      in ANC's #3, #24, #13, ...

........................................................................
.............................. CYCLE   22 ..............................
........................................................................

 iter      E             dE          RMSdq      gap      omega  full diag
   1   -212.6097685 -0.212610E+03  0.917E-03    1.11       0.0  T
   2   -212.6097656  0.293112E-05  0.605E-03    1.11       1.4  T
   3   -212.6092056  0.559921E-03  0.351E-02    1.11       1.0  T
   4   -212.6097657 -0.560055E-03  0.293E-03    1.11       2.9  T
   5   -212.6097688 -0.312624E-05  0.358E-04    1.11      23.5  T
   6   -212.6097689 -0.246476E-07  0.134E-04    1.11      62.7  T
   7   -212.6097689 -0.737543E-09  0.790E-05    1.11     106.6  T
     SCC iter.                  ...        0 min,  0.535 sec
     gradient                   ...        0 min,  0.062 sec
 * total energy  :  -209.4786979 Eh     change       -0.1315391E-03 Eh
   gradient norm :     0.0025437 Eh/α   predicted    -0.6985707E-04 ( -46.89%)
   displ. norm   :     0.2217040 α      lambda       -0.2645309E-03
   maximum displ.:     0.1723048 α      in ANC's #3, #13, #24, ...

........................................................................
.............................. CYCLE   23 ..............................
........................................................................

 iter      E             dE          RMSdq      gap      omega  full diag
   1   -212.6093265 -0.212609E+03  0.216E-02    1.11       0.0  T
   2   -212.6093160  0.105364E-04  0.138E-02    1.11       1.0  T
   3   -212.6067749  0.254107E-02  0.748E-02    1.10       1.0  T
   4   -212.6093115 -0.253657E-02  0.666E-03    1.11       1.3  T
   5   -212.6093278 -0.163457E-04  0.748E-04    1.11      11.3  T
   6   -212.6093279 -0.119032E-06  0.304E-04    1.11      27.7  T
   7   -212.6093279 -0.458741E-08  0.172E-04    1.11      48.9  T
     SCC iter.                  ...        0 min,  0.434 sec
     gradient                   ...        0 min,  0.061 sec
 * total energy  :  -209.4789384 Eh     change       -0.2405405E-03 Eh
   gradient norm :     0.0017005 Eh/α   predicted    -0.1387686E-03 ( -42.31%)
   displ. norm   :     0.5000786 α      lambda       -0.3301107E-03
   maximum displ.:     0.3798031 α      in ANC's #3, #13, #24, ...

........................................................................
.............................. CYCLE   24 ..............................
........................................................................

 iter      E             dE          RMSdq      gap      omega  full diag
   1   -212.6081879 -0.212608E+03  0.486E-02    1.11       0.0  T
   2   -212.6081558  0.320496E-04  0.300E-02    1.11       1.0  T
   3   -212.5998160  0.833986E-02  0.136E-01    1.07       1.0  T
   4   -212.6081264 -0.831042E-02  0.135E-02    1.12       1.0  T
   5   -212.6081918 -0.653956E-04  0.210E-03    1.11       4.0  T
   6   -212.6081932 -0.145868E-05  0.692E-04    1.11      12.2  T
   7   -212.6081933 -0.378482E-07  0.372E-04    1.11      22.7  T
   8   -212.6081933 -0.624260E-08  0.133E-04    1.11      63.1  T
     SCC iter.                  ...        0 min,  0.503 sec
     gradient                   ...        0 min,  0.062 sec
 * total energy  :  -209.4793483 Eh     change       -0.4098350E-03 Eh
   gradient norm :     0.0038569 Eh/α   predicted    -0.1834010E-03 ( -55.25%)
   displ. norm   :     0.2826656 α      lambda       -0.2255114E-03
   maximum displ.:     0.2204040 α      in ANC's #3, #13, #6, ...

........................................................................
.............................. CYCLE   25 ..............................
........................................................................

 iter      E             dE          RMSdq      gap      omega  full diag
   1   -212.6084139 -0.212608E+03  0.254E-02    1.12       0.0  T
   2   -212.6084090  0.487263E-05  0.153E-02    1.12       1.0  T
   3   -212.6065568  0.185216E-02  0.641E-02    1.10       1.0  T
   4   -212.6083953 -0.183848E-02  0.715E-03    1.12       1.2  T
   5   -212.6084148 -0.195200E-04  0.662E-04    1.12      12.7  T
   6   -212.6084149 -0.851715E-07  0.318E-04    1.12      26.5  T
   7   -212.6084149 -0.559692E-08  0.163E-04    1.12      51.6  T
     SCC iter.                  ...        0 min,  0.455 sec
     gradient                   ...        0 min,  0.065 sec
 * total energy  :  -209.4795599 Eh     change       -0.2116214E-03 Eh
   gradient norm :     0.0041892 Eh/α   predicted    -0.1217649E-03 ( -42.46%)
   displ. norm   :     0.2576025 α      lambda       -0.2152533E-03
   maximum displ.:     0.2007462 α      in ANC's #3, #13, #6, ...

........................................................................
.............................. CYCLE   26 ..............................
........................................................................

 iter      E             dE          RMSdq      gap      omega  full diag
   1   -212.6091372 -0.212609E+03  0.217E-02    1.12       0.0  T
   2   -212.6091358  0.143438E-05  0.129E-02    1.12       1.0  T
   3   -212.6084082  0.727545E-03  0.402E-02    1.11       1.0  T
   4   -212.6091220 -0.713758E-03  0.627E-03    1.12       1.3  T
   5   -212.6091378 -0.158117E-04  0.526E-04    1.12      16.0  T
   6   -212.6091378 -0.506207E-07  0.262E-04    1.12      32.2  T
   7   -212.6091378 -0.500287E-08  0.132E-04    1.12      63.7  T
     SCC iter.                  ...        0 min,  0.418 sec
     gradient                   ...        0 min,  0.061 sec
 * total energy  :  -209.4797658 Eh     change       -0.2058928E-03 Eh
   gradient norm :     0.0036472 Eh/α   predicted    -0.1147690E-03 ( -44.26%)
   displ. norm   :     0.2691046 α      lambda       -0.2342780E-03
   maximum displ.:     0.2095903 α      in ANC's #3, #13, #6, ...

........................................................................
.............................. CYCLE   27 ..............................
........................................................................

 iter      E             dE          RMSdq      gap      omega  full diag
   1   -212.6099363 -0.212610E+03  0.210E-02    1.12       0.0  T
   2   -212.6099350  0.131177E-05  0.125E-02    1.12       1.0  T
   3   -212.6092194  0.715647E-03  0.398E-02    1.11       1.0  T
   4   -212.6099283 -0.708978E-03  0.468E-03    1.12       1.8  T
   5   -212.6099369 -0.853949E-05  0.506E-04    1.12      16.6  T
   6   -212.6099369 -0.431572E-07  0.257E-04    1.12      32.8  T
   7   -212.6099369 -0.622700E-08  0.136E-04    1.12      62.1  T
     SCC iter.                  ...        0 min,  0.438 sec
     gradient                   ...        0 min,  0.061 sec
 * total energy  :  -209.4799887 Eh     change       -0.2228610E-03 Eh
   gradient norm :     0.0027499 Eh/α   predicted    -0.1256277E-03 ( -43.63%)
   displ. norm   :     0.2929876 α      lambda       -0.2499891E-03
   maximum displ.:     0.2291303 α      in ANC's #3, #13, #12, ...

........................................................................
.............................. CYCLE   28 ..............................
........................................................................

 iter      E             dE          RMSdq      gap      omega  full diag
   1   -212.6105834 -0.212611E+03  0.213E-02    1.12       0.0  T
   2   -212.6105821  0.126866E-05  0.127E-02    1.12       1.0  T
   3   -212.6098409  0.741202E-03  0.405E-02    1.11       1.0  T
   4   -212.6105783 -0.737374E-03  0.387E-03    1.12       2.2  T
   5   -212.6105840 -0.569820E-05  0.508E-04    1.12      16.6  T
   6   -212.6105840 -0.363582E-07  0.266E-04    1.12      31.7  T
   7   -212.6105840 -0.684315E-08  0.147E-04    1.12      57.2  T
     SCC iter.                  ...        0 min,  0.415 sec
     gradient                   ...        0 min,  0.060 sec
 * total energy  :  -209.4802247 Eh     change       -0.2360886E-03 Eh
   gradient norm :     0.0020240 Eh/α   predicted    -0.1357291E-03 ( -42.51%)
   displ. norm   :     0.3002367 α      lambda       -0.2427608E-03
   maximum displ.:     0.2367203 α      in ANC's #3, #13, #12, ...

........................................................................
.............................. CYCLE   29 ..............................
........................................................................

 iter      E             dE          RMSdq      gap      omega  full diag
   1   -212.6110119 -0.212611E+03  0.206E-02    1.12       0.0  T
   2   -212.6110102  0.168860E-05  0.123E-02    1.12       1.0  T
   3   -212.6101175  0.892750E-03  0.445E-02    1.11       1.0  T
   4   -212.6110089 -0.891401E-03  0.318E-03    1.12       2.6  T
   5   -212.6110125 -0.362061E-05  0.507E-04    1.12      16.6  T
   6   -212.6110125 -0.344183E-07  0.269E-04    1.12      31.3  T
   7   -212.6110125 -0.695798E-08  0.146E-04    1.12      57.5  T
     SCC iter.                  ...        0 min,  0.385 sec
     gradient                   ...        0 min,  0.059 sec
 * total energy  :  -209.4804546 Eh     change       -0.2298320E-03 Eh
   gradient norm :     0.0018801 Eh/α   predicted    -0.1323232E-03 ( -42.43%)
   displ. norm   :     0.4274820 α      lambda       -0.2201566E-03
   maximum displ.:     0.3398691 α      in ANC's #3, #13, #12, ...

........................................................................
.............................. CYCLE   30 ..............................
........................................................................

 iter      E             dE          RMSdq      gap      omega  full diag
   1   -212.6112178 -0.212611E+03  0.279E-02    1.12       0.0  T
   2   -212.6112148  0.306021E-05  0.167E-02    1.12       1.0  T
   3   -212.6096223  0.159243E-02  0.594E-02    1.11       1.0  T
   4   -212.6112103 -0.158801E-02  0.487E-03    1.12       1.7  T
   5   -212.6112189 -0.860391E-05  0.707E-04    1.12      11.9  T
   6   -212.6112190 -0.702788E-07  0.368E-04    1.12      22.9  T
   7   -212.6112190 -0.113665E-07  0.197E-04    1.12      42.8  T
     SCC iter.                  ...        0 min,  0.496 sec
     gradient                   ...        0 min,  0.062 sec
 * total energy  :  -209.4807637 Eh     change       -0.3091544E-03 Eh
   gradient norm :     0.0023581 Eh/α   predicted    -0.1190211E-03 ( -61.50%)
   displ. norm   :     0.2447422 α      lambda       -0.1830956E-03
   maximum displ.:     0.1970718 α      in ANC's #3, #5, #1, ...

........................................................................
.............................. CYCLE   31 ..............................
........................................................................

 iter      E             dE          RMSdq      gap      omega  full diag
   1   -212.6112502 -0.212611E+03  0.151E-02    1.12       0.0  T
   2   -212.6112486  0.157010E-05  0.912E-03    1.12       1.0  T
   3   -212.6105605  0.688078E-03  0.390E-02    1.11       1.0  T
   4   -212.6112476 -0.687087E-03  0.285E-03    1.12       3.0  T
   5   -212.6112505 -0.290968E-05  0.382E-04    1.12      22.1  T
   6   -212.6112506 -0.202916E-07  0.189E-04    1.12      44.6  T
   7   -212.6112506 -0.185639E-08  0.998E-05    1.12      84.4  T
     SCC iter.                  ...        0 min,  0.473 sec
     gradient                   ...        0 min,  0.060 sec
 * total energy  :  -209.4809424 Eh     change       -0.1786642E-03 Eh
   gradient norm :     0.0024915 Eh/α   predicted    -0.9703617E-04 ( -45.69%)
   displ. norm   :     0.2291470 α      lambda       -0.1782189E-03
   maximum displ.:     0.1845161 α      in ANC's #3, #5, #1, ...

........................................................................
.............................. CYCLE   32 ..............................
........................................................................

 iter      E             dE          RMSdq      gap      omega  full diag
   1   -212.6112234 -0.212611E+03  0.135E-02    1.12       0.0  T
   2   -212.6112223  0.103120E-05  0.812E-03    1.12       1.0  T
   3   -212.6107530  0.469332E-03  0.323E-02    1.11       1.0  T
   4   -212.6112194 -0.466396E-03  0.334E-03    1.12       2.5  T
   5   -212.6112237 -0.427478E-05  0.345E-04    1.12      24.4  T
   6   -212.6112237 -0.172038E-07  0.160E-04    1.12      52.5  T
   7   -212.6112237 -0.709861E-09  0.851E-05    1.12      99.0  T
     SCC iter.                  ...        0 min,  0.440 sec
     gradient                   ...        0 min,  0.062 sec
 * total energy  :  -209.4811169 Eh     change       -0.1745404E-03 Eh
   gradient norm :     0.0023530 Eh/α   predicted    -0.9379235E-04 ( -46.26%)
   displ. norm   :     0.2361090 α      lambda       -0.1882585E-03
   maximum displ.:     0.1889791 α      in ANC's #3, #5, #1, ...

........................................................................
.............................. CYCLE   33 ..............................
........................................................................

 iter      E             dE          RMSdq      gap      omega  full diag
   1   -212.6110560 -0.212611E+03  0.133E-02    1.12       0.0  T
   2   -212.6110540  0.193434E-05  0.813E-03    1.12       1.0  T
   3   -212.6103510  0.703070E-03  0.395E-02    1.11       1.0  T
   4   -212.6110528 -0.701880E-03  0.308E-03    1.12       2.7  T
   5   -212.6110563 -0.345726E-05  0.354E-04    1.12      23.8  T
   6   -212.6110563 -0.194669E-07  0.155E-04    1.12      54.5  T
   7   -212.6110563 -0.376815E-09  0.832E-05    1.12     101.2  T
     SCC iter.                  ...        0 min,  0.488 sec
     gradient                   ...        0 min,  0.059 sec
 * total energy  :  -209.4813010 Eh     change       -0.1840437E-03 Eh
   gradient norm :     0.0020481 Eh/α   predicted    -0.9937766E-04 ( -46.00%)
   displ. norm   :     0.2567024 α      lambda       -0.2046336E-03
   maximum displ.:     0.2038006 α      in ANC's #3, #5, #1, ...

........................................................................
.............................. CYCLE   34 ..............................
........................................................................

 iter      E             dE          RMSdq      gap      omega  full diag
   1   -212.6108261 -0.212611E+03  0.137E-02    1.12       0.0  T
   2   -212.6108240  0.203105E-05  0.841E-03    1.12       1.0  T
   3   -212.6100818  0.742281E-03  0.405E-02    1.11       1.0  T
   4   -212.6108225 -0.740784E-03  0.325E-03    1.12       2.6  T
   5   -212.6108264 -0.389394E-05  0.375E-04    1.12      22.5  T
   6   -212.6108265 -0.221612E-07  0.160E-04    1.12      52.6  T
   7   -212.6108265 -0.549903E-09  0.841E-05    1.12     100.1  T
     SCC iter.                  ...        0 min,  0.420 sec
     gradient                   ...        0 min,  0.062 sec
 * total energy  :  -209.4815004 Eh     change       -0.1994395E-03 Eh
   gradient norm :     0.0016910 Eh/α   predicted    -0.1090596E-03 ( -45.32%)
   displ. norm   :     0.4205875 α      lambda       -0.2191286E-03
   maximum displ.:     0.3312946 α      in ANC's #3, #5, #1, ...

........................................................................
.............................. CYCLE   35 ..............................
........................................................................

 iter      E             dE          RMSdq      gap      omega  full diag
   1   -212.6104787 -0.212610E+03  0.214E-02    1.12       0.0  T
   2   -212.6104734  0.526391E-05  0.132E-02    1.12       1.0  T
   3   -212.6086415  0.183195E-02  0.637E-02    1.10       1.0  T
   4   -212.6104698 -0.182832E-02  0.517E-03    1.12       1.6  T
   5   -212.6104796 -0.985511E-05  0.619E-04    1.12      13.6  T
   6   -212.6104797 -0.630403E-07  0.254E-04    1.12      33.1  T
   7   -212.6104797 -0.200595E-08  0.133E-04    1.12      63.4  T
     SCC iter.                  ...        0 min,  0.415 sec
     gradient                   ...        0 min,  0.062 sec
 * total energy  :  -209.4818157 Eh     change       -0.3153067E-03 Eh
   gradient norm :     0.0014309 Eh/α   predicted    -0.1181793E-03 ( -62.52%)
   displ. norm   :     0.4271656 α      lambda       -0.2123405E-03
   maximum displ.:     0.3356538 α      in ANC's #3, #5, #1, ...

........................................................................
.............................. CYCLE   36 ..............................
........................................................................

 iter      E             dE          RMSdq      gap      omega  full diag
   1   -212.6104663 -0.212610E+03  0.205E-02    1.12       0.0  T
   2   -212.6104640  0.222565E-05  0.124E-02    1.12       1.0  T
   3   -212.6094357  0.102830E-02  0.477E-02    1.11       1.0  T
   4   -212.6104534 -0.101762E-02  0.588E-03    1.11       1.4  T
   5   -212.6104671 -0.137222E-04  0.563E-04    1.12      15.0  T
   6   -212.6104671 -0.479173E-07  0.240E-04    1.12      35.1  T
   7   -212.6104671 -0.211810E-08  0.122E-04    1.12      68.9  T
     SCC iter.                  ...        0 min,  0.427 sec
     gradient                   ...        0 min,  0.064 sec
 * total energy  :  -209.4821232 Eh     change       -0.3074536E-03 Eh
   gradient norm :     0.0015214 Eh/α   predicted    -0.1147823E-03 ( -62.67%)
   displ. norm   :     0.4212007 α      lambda       -0.2034300E-03
   maximum displ.:     0.3300357 α      in ANC's #3, #5, #1, ...

........................................................................
.............................. CYCLE   37 ..............................
........................................................................

 iter      E             dE          RMSdq      gap      omega  full diag
   1   -212.6108057 -0.212611E+03  0.193E-02    1.12       0.0  T
   2   -212.6108042  0.155427E-05  0.117E-02    1.12       1.0  T
   3   -212.6100319  0.772275E-03  0.413E-02    1.11       1.0  T
   4   -212.6107884 -0.756510E-03  0.665E-03    1.11       1.3  T
   5   -212.6108065 -0.181014E-04  0.531E-04    1.12      15.9  T
   6   -212.6108066 -0.422977E-07  0.223E-04    1.12      37.8  T
   7   -212.6108066 -0.152500E-08  0.116E-04    1.12      72.6  T
     SCC iter.                  ...        0 min,  0.551 sec
     gradient                   ...        0 min,  0.061 sec
 * total energy  :  -209.4824194 Eh     change       -0.2962522E-03 Eh
   gradient norm :     0.0016624 Eh/α   predicted    -0.1097371E-03 ( -62.96%)
   displ. norm   :     0.4162624 α      lambda       -0.1980470E-03
   maximum displ.:     0.3253020 α      in ANC's #3, #1, #5, ...

........................................................................
.............................. CYCLE   38 ..............................
........................................................................

 iter      E             dE          RMSdq      gap      omega  full diag
   1   -212.6113033 -0.212611E+03  0.185E-02    1.12       0.0  T
   2   -212.6113027  0.527711E-06  0.111E-02    1.12       1.0  T
   3   -212.6109375  0.365284E-03  0.285E-02    1.11       1.0  T
   4   -212.6112773 -0.339865E-03  0.783E-03    1.11       1.1  T
   5   -212.6113039 -0.265349E-04  0.471E-04    1.12      17.9  T
   6   -212.6113039 -0.363276E-07  0.210E-04    1.12      40.1  T
   7   -212.6113039 -0.165016E-08  0.110E-04    1.12      76.3  T
     SCC iter.                  ...        0 min,  0.567 sec
     gradient                   ...        0 min,  0.069 sec
 * total energy  :  -209.4827082 Eh     change       -0.2888040E-03 Eh
   gradient norm :     0.0017380 Eh/α   predicted    -0.1066503E-03 ( -63.07%)
   displ. norm   :     0.4182040 α      lambda       -0.1970463E-03
   maximum displ.:     0.3258640 α      in ANC's #3, #1, #5, ...

........................................................................
.............................. CYCLE   39 ..............................
........................................................................

 iter      E             dE          RMSdq      gap      omega  full diag
   1   -212.6120640 -0.212612E+03  0.184E-02    1.12       0.0  T
   2   -212.6120642 -0.169724E-06  0.110E-02    1.12       1.0  T
   3   -212.6119851  0.791479E-04  0.134E-02    1.11       1.0  T
   4   -212.6119534  0.316645E-04  0.157E-02    1.11       1.0  T
   5   -212.6120647 -0.111354E-03  0.507E-04    1.12      16.6  T
   6   -212.6120648 -0.414354E-07  0.207E-04    1.12      40.7  T
   7   -212.6120648 -0.457732E-09  0.110E-04    1.12      76.6  T
     SCC iter.                  ...        0 min,  0.554 sec
     gradient                   ...        0 min,  0.063 sec
 * total energy  :  -209.4829944 Eh     change       -0.2861302E-03 Eh
   gradient norm :     0.0016901 Eh/α   predicted    -0.1061819E-03 ( -62.89%)
   displ. norm   :     0.4242298 α      lambda       -0.1976076E-03
   maximum displ.:     0.3301043 α      in ANC's #3, #1, #5, ...

........................................................................
.............................. CYCLE   40 ..............................
........................................................................

 iter      E             dE          RMSdq      gap      omega  full diag
   1   -212.6126621 -0.212613E+03  0.186E-02    1.12       0.0  T
   2   -212.6126522  0.990423E-05  0.120E-02    1.12       1.0  T
   3   -212.6103926  0.225956E-02  0.708E-02    1.10       1.0  T
   4   -212.6126591 -0.226650E-02  0.338E-03    1.12       2.5  T
   5   -212.6126627 -0.358701E-05  0.490E-04    1.12      17.2  T
   6   -212.6126628 -0.460849E-07  0.207E-04    1.12      40.7  T
   7   -212.6126628 -0.110043E-08  0.115E-04    1.12      73.3  T
     SCC iter.                  ...        0 min,  0.527 sec
     gradient                   ...        0 min,  0.066 sec
 * total energy  :  -209.4832820 Eh     change       -0.2875949E-03 Eh
   gradient norm :     0.0014961 Eh/α   predicted    -0.1067072E-03 ( -62.90%)
   displ. norm   :     0.4298364 α      lambda       -0.1962275E-03
   maximum displ.:     0.3341329 α      in ANC's #3, #1, #5, ...

........................................................................
.............................. CYCLE   41 ..............................
........................................................................

 iter      E             dE          RMSdq      gap      omega  full diag
   1   -212.6133646 -0.212613E+03  0.188E-02    1.12       0.0  T
   2   -212.6133563  0.825642E-05  0.119E-02    1.12       1.0  T
   3   -212.6111723  0.218398E-02  0.696E-02    1.10       1.0  T
   4   -212.6133627 -0.219031E-02  0.281E-03    1.12       3.0  T
   5   -212.6133651 -0.241726E-05  0.435E-04    1.12      19.4  T
   6   -212.6133651 -0.311211E-07  0.203E-04    1.12      41.4  T
   7   -212.6133651 -0.798963E-09  0.103E-04    1.12      81.9  T
     SCC iter.                  ...        0 min,  0.435 sec
     gradient                   ...        0 min,  0.061 sec
 * total energy  :  -209.4835702 Eh     change       -0.2882875E-03 Eh
   gradient norm :     0.0012751 Eh/α   predicted    -0.1061712E-03 ( -63.17%)
   displ. norm   :     0.4402726 α      lambda       -0.1996894E-03
   maximum displ.:     0.3414874 α      in ANC's #3, #1, #5, ...

........................................................................
.............................. CYCLE   42 ..............................
........................................................................

 iter      E             dE          RMSdq      gap      omega  full diag
   1   -212.6139047 -0.212614E+03  0.198E-02    1.12       0.0  T
   2   -212.6139027  0.203873E-05  0.119E-02    1.12       1.0  T
   3   -212.6129346  0.968135E-03  0.463E-02    1.11       1.0  T
   4   -212.6139018 -0.967233E-03  0.303E-03    1.12       2.8  T
   5   -212.6139051 -0.330874E-05  0.411E-04    1.12      20.5  T
   6   -212.6139051 -0.223040E-07  0.214E-04    1.12      39.4  T
   7   -212.6139051 -0.188751E-08  0.105E-04    1.12      80.3  T
     SCC iter.                  ...        0 min,  0.403 sec
     gradient                   ...        0 min,  0.066 sec
 * total energy  :  -209.4838648 Eh     change       -0.2945572E-03 Eh
   gradient norm :     0.0011561 Eh/α   predicted    -0.1084467E-03 ( -63.18%)
   displ. norm   :     0.4628681 α      lambda       -0.2099219E-03
   maximum displ.:     0.3571981 α      in ANC's #3, #1, #2, ...
 * RMSD in coord.:     0.5820390 α      energy gain  -0.5697797E-02 Eh

generating ANC from model Hessian ...
Using Lindh-Hessian (1995)
 Shifting diagonal of input Hessian by    9.9644550648177940E-003
 Lowest  eigenvalues of input Hessian
    0.000000    0.000000    0.000000    0.000000    0.000000    0.000000
    0.010000    0.010019    0.010028    0.010123    0.010164    0.010401
    0.010405    0.010476    0.010591    0.010740    0.010811    0.010845
 Highest eigenvalues
    2.078841    2.079151    2.208798    2.209174    2.228156    2.228551


........................................................................
.............................. CYCLE   43 ..............................
........................................................................

 iter      E             dE          RMSdq      gap      omega  full diag
   1   -212.6144077 -0.212614E+03  0.217E-02    1.12       0.0  T
   2   -212.6143661  0.416370E-04  0.159E-02    1.12       1.0  T
   3   -212.6108235  0.354255E-02  0.892E-02    1.10       1.0  T
   4   -212.6144079 -0.358434E-02  0.184E-03    1.12       4.6  T
   5   -212.6144086 -0.713540E-06  0.511E-04    1.12      16.5  T
   6   -212.6144086 -0.471106E-07  0.236E-04    1.12      35.6  T
     SCC iter.                  ...        0 min,  0.435 sec
     gradient                   ...        0 min,  0.067 sec
 * total energy  :  -209.4841749 Eh     change       -0.3100917E-03 Eh
   gradient norm :     0.0011332 Eh/α   predicted     0.0000000E+00 (-100.00%)
   displ. norm   :     0.1223641 α      lambda       -0.7051275E-04
   maximum displ.:     0.1134261 α      in ANC's #3, #1, #16, ...

........................................................................
.............................. CYCLE   44 ..............................
........................................................................

 iter      E             dE          RMSdq      gap      omega  full diag
   1   -212.6146396 -0.212615E+03  0.731E-03    1.12       0.0  T
   2   -212.6146303  0.933958E-05  0.628E-03    1.12       1.3  T
   3   -212.6142916  0.338726E-03  0.278E-02    1.12       1.0  T
   4   -212.6146397 -0.348101E-03  0.820E-04    1.12      10.3  T
   5   -212.6146398 -0.160113E-06  0.219E-04    1.12      38.4  T
   6   -212.6146398 -0.914144E-08  0.908E-05    1.12      92.7  T
     SCC iter.                  ...        0 min,  0.595 sec
     gradient                   ...        0 min,  0.072 sec
 * total energy  :  -209.4842784 Eh     change       -0.1035493E-03 Eh
   gradient norm :     0.0009287 Eh/α   predicted    -0.3552610E-04 ( -65.69%)
   displ. norm   :     0.1881665 α      lambda       -0.1036547E-03
   maximum displ.:     0.1548312 α      in ANC's #3, #1, #42, ...

........................................................................
.............................. CYCLE   45 ..............................
........................................................................

 iter      E             dE          RMSdq      gap      omega  full diag
   1   -212.6144415 -0.212614E+03  0.124E-02    1.12       0.0  T
   2   -212.6144407  0.750907E-06  0.742E-03    1.12       1.1  T
   3   -212.6140620  0.378744E-03  0.289E-02    1.12       1.0  T
   4   -212.6144404 -0.378421E-03  0.187E-03    1.12       4.5  T
   5   -212.6144417 -0.125615E-05  0.279E-04    1.12      30.1  T
   6   -212.6144417 -0.100734E-07  0.133E-04    1.12      63.2  T
   7   -212.6144417 -0.123984E-08  0.660E-05    1.12     127.5  T
     SCC iter.                  ...        0 min,  0.539 sec
     gradient                   ...        0 min,  0.061 sec
 * total energy  :  -209.4844290 Eh     change       -0.1505821E-03 Eh
   gradient norm :     0.0009434 Eh/α   predicted    -0.5264475E-04 ( -65.04%)
   displ. norm   :     0.2955208 α      lambda       -0.1509720E-03
   maximum displ.:     0.2278356 α      in ANC's #3, #1, #8, ...

........................................................................
.............................. CYCLE   46 ..............................
........................................................................

 iter      E             dE          RMSdq      gap      omega  full diag
   1   -212.6136997 -0.212614E+03  0.194E-02    1.12       0.0  T
   2   -212.6136981  0.154294E-05  0.116E-02    1.12       1.0  T
   3   -212.6128954  0.802748E-03  0.421E-02    1.11       1.0  T
   4   -212.6136955 -0.800112E-03  0.355E-03    1.12       2.4  T
   5   -212.6137001 -0.464995E-05  0.436E-04    1.12      19.3  T
   6   -212.6137002 -0.251170E-07  0.215E-04    1.12      39.2  T
   7   -212.6137002 -0.428798E-08  0.105E-04    1.12      80.4  T
     SCC iter.                  ...        0 min,  0.525 sec
     gradient                   ...        0 min,  0.063 sec
 * total energy  :  -209.4846446 Eh     change       -0.2155644E-03 Eh
   gradient norm :     0.0009334 Eh/α   predicted    -0.7843323E-04 ( -63.61%)
   displ. norm   :     0.4041716 α      lambda       -0.1886913E-03
   maximum displ.:     0.3035745 α      in ANC's #3, #1, #8, ...

........................................................................
.............................. CYCLE   47 ..............................
........................................................................

 iter      E             dE          RMSdq      gap      omega  full diag
   1   -212.6134241 -0.212613E+03  0.256E-02    1.12       0.0  T
   2   -212.6134242 -0.156401E-06  0.151E-02    1.12       1.0  T
   3   -212.6132531  0.171117E-03  0.196E-02    1.12       1.0  T
   4   -212.6133799 -0.126786E-03  0.101E-02    1.12       1.0  T
   5   -212.6134248 -0.448880E-04  0.570E-04    1.12      14.8  T
   6   -212.6134248 -0.469238E-07  0.290E-04    1.12      29.0  T
   7   -212.6134248 -0.786670E-08  0.141E-04    1.12      59.8  T
     SCC iter.                  ...        0 min,  0.478 sec
     gradient                   ...        0 min,  0.059 sec
 * total energy  :  -209.4849115 Eh     change       -0.2668633E-03 Eh
   gradient norm :     0.0010747 Eh/α   predicted    -0.1011957E-03 ( -62.08%)
   displ. norm   :     0.4680611 α      lambda       -0.2004456E-03
   maximum displ.:     0.3483257 α      in ANC's #3, #1, #8, ...

........................................................................
.............................. CYCLE   48 ..............................
........................................................................

 iter      E             dE          RMSdq      gap      omega  full diag
   1   -212.6130641 -0.212613E+03  0.284E-02    1.12       0.0  T
   2   -212.6130646 -0.522626E-06  0.167E-02    1.12       1.0  T
   3   -212.6130306  0.340369E-04  0.905E-03    1.12       1.0  T
   4   -212.6129130  0.117623E-03  0.183E-02    1.12       1.0  T
   5   -212.6130650 -0.152001E-03  0.583E-04    1.12      14.5  T
   6   -212.6130650 -0.396007E-07  0.319E-04    1.12      26.4  T
   7   -212.6130650 -0.965861E-08  0.158E-04    1.12      53.3  T
     SCC iter.                  ...        0 min,  0.486 sec
     gradient                   ...        0 min,  0.063 sec
 * total energy  :  -209.4851959 Eh     change       -0.2844040E-03 Eh
   gradient norm :     0.0011580 Eh/α   predicted    -0.1099818E-03 ( -61.33%)
   displ. norm   :     0.4890430 α      lambda       -0.1980848E-03
   maximum displ.:     0.3622278 α      in ANC's #3, #1, #8, ...

........................................................................
.............................. CYCLE   49 ..............................
........................................................................

 iter      E             dE          RMSdq      gap      omega  full diag
   1   -212.6130668 -0.212613E+03  0.282E-02    1.12       0.0  T
   2   -212.6130641  0.270481E-05  0.168E-02    1.12       1.0  T
   3   -212.6116393  0.142480E-02  0.561E-02    1.11       1.0  T
   4   -212.6130576 -0.141828E-02  0.521E-03    1.12       1.6  T
   5   -212.6130677 -0.101212E-04  0.597E-04    1.12      14.1  T
   6   -212.6130678 -0.416026E-07  0.332E-04    1.12      25.4  T
   7   -212.6130678 -0.101778E-07  0.164E-04    1.12      51.4  T
     SCC iter.                  ...        0 min,  0.524 sec
     gradient                   ...        0 min,  0.064 sec
 * total energy  :  -209.4854797 Eh     change       -0.2838520E-03 Eh
   gradient norm :     0.0011521 Eh/α   predicted    -0.1095852E-03 ( -61.39%)
   displ. norm   :     0.5054985 α      lambda       -0.2013680E-03
   maximum displ.:     0.3724577 α      in ANC's #3, #1, #8, ...

........................................................................
.............................. CYCLE   50 ..............................
........................................................................

 iter      E             dE          RMSdq      gap      omega  full diag
   1   -212.6134796 -0.212613E+03  0.276E-02    1.12       0.0  T
   2   -212.6134797 -0.122343E-06  0.162E-02    1.12       1.0  T
   3   -212.6132559  0.223770E-03  0.224E-02    1.12       1.0  T
   4   -212.6134210 -0.165127E-03  0.116E-02    1.12       1.0  T
   5   -212.6134805 -0.594051E-04  0.613E-04    1.12      13.7  T
   6   -212.6134805 -0.531472E-07  0.318E-04    1.12      26.5  T
   7   -212.6134805 -0.785860E-08  0.163E-04    1.12      51.6  T
     SCC iter.                  ...        0 min,  0.437 sec
     gradient                   ...        0 min,  0.064 sec
 * total energy  :  -209.4857711 Eh     change       -0.2914343E-03 Eh
   gradient norm :     0.0011047 Eh/α   predicted    -0.1121188E-03 ( -61.53%)
   displ. norm   :     0.5448870 α      lambda       -0.2181105E-03
   maximum displ.:     0.3985548 α      in ANC's #3, #1, #8, ...

........................................................................
.............................. CYCLE   51 ..............................
........................................................................

 iter      E             dE          RMSdq      gap      omega  full diag
   1   -212.6138830 -0.212614E+03  0.283E-02    1.12       0.0  T
   2   -212.6138749  0.806700E-05  0.172E-02    1.12       1.0  T
   3   -212.6109052  0.296971E-02  0.812E-02    1.10       1.0  T
   4   -212.6138774 -0.297219E-02  0.446E-03    1.12       1.9  T
   5   -212.6138840 -0.666728E-05  0.688E-04    1.12      12.2  T
   6   -212.6138841 -0.794141E-07  0.325E-04    1.12      26.0  T
   7   -212.6138841 -0.566058E-08  0.176E-04    1.12      47.7  T
     SCC iter.                  ...        0 min,  0.480 sec
     gradient                   ...        0 min,  0.059 sec
 * total energy  :  -209.4860890 Eh     change       -0.3178477E-03 Eh
   gradient norm :     0.0011136 Eh/α   predicted    -0.1234461E-03 ( -61.16%)
   displ. norm   :     0.6192481 α      lambda       -0.2499618E-03
   maximum displ.:     0.4494715 α      in ANC's #3, #1, #8, ...

........................................................................
.............................. CYCLE   52 ..............................
........................................................................

 iter      E             dE          RMSdq      gap      omega  full diag
   1   -212.6143733 -0.212614E+03  0.305E-02    1.12       0.0  T
   2   -212.6143504  0.228694E-04  0.194E-02    1.12       1.0  T
   3   -212.6089931  0.535726E-02  0.109E-01    1.09       1.0  T
   4   -212.6143704 -0.537731E-02  0.390E-03    1.12       2.2  T
   5   -212.6143746 -0.419756E-05  0.815E-04    1.12      10.3  T
   6   -212.6143748 -0.144037E-06  0.337E-04    1.12      25.0  T
   7   -212.6143748 -0.501811E-08  0.186E-04    1.12      45.4  T
     SCC iter.                  ...        0 min,  0.411 sec
     gradient                   ...        0 min,  0.060 sec
 * total energy  :  -209.4864542 Eh     change       -0.3652230E-03 Eh
   gradient norm :     0.0011569 Eh/α   predicted    -0.1462817E-03 ( -59.95%)
   displ. norm   :     0.7219249 α      lambda       -0.2928302E-03
   maximum displ.:     0.5208819 α      in ANC's #3, #1, #2, ...

........................................................................
.............................. CYCLE   53 ..............................
........................................................................

 iter      E             dE          RMSdq      gap      omega  full diag
   1   -212.6150801 -0.212615E+03  0.343E-02    1.12       0.0  T
   2   -212.6150792  0.953530E-06  0.204E-02    1.12       1.0  T
   3   -212.6142084  0.870797E-03  0.441E-02    1.11       1.0  T
   4   -212.6150101 -0.801661E-03  0.128E-02    1.12       1.0  T
   5   -212.6150818 -0.717718E-04  0.869E-04    1.12       9.7  T
   6   -212.6150820 -0.131057E-06  0.372E-04    1.12      22.6  T
   7   -212.6150820 -0.276543E-08  0.204E-04    1.12      41.2  T
     SCC iter.                  ...        0 min,  0.401 sec
     gradient                   ...        0 min,  0.061 sec
 * total energy  :  -209.4868808 Eh     change       -0.4266239E-03 Eh
   gradient norm :     0.0013634 Eh/α   predicted    -0.1803301E-03 ( -57.73%)
   displ. norm   :     0.8334828 α      lambda       -0.3369386E-03
   maximum displ.:     0.5991129 α      in ANC's #3, #1, #2, ...

........................................................................
.............................. CYCLE   54 ..............................
........................................................................

 iter      E             dE          RMSdq      gap      omega  full diag
   1   -212.6153980 -0.212615E+03  0.386E-02    1.12       0.0  T
   2   -212.6153160  0.820072E-04  0.266E-02    1.12       1.0  T
   3   -212.6058735  0.944249E-02  0.146E-01    1.07       1.0  T
   4   -212.6153950 -0.952152E-02  0.447E-03    1.12       1.9  T
   5   -212.6154001 -0.505498E-05  0.147E-03    1.12       5.7  T
   6   -212.6154008 -0.722901E-06  0.409E-04    1.12      20.6  T
   7   -212.6154008 -0.408028E-08  0.221E-04    1.12      38.2  T
     SCC iter.                  ...        0 min,  0.505 sec
     gradient                   ...        0 min,  0.064 sec
 * total energy  :  -209.4873697 Eh     change       -0.4888478E-03 Eh
   gradient norm :     0.0015964 Eh/α   predicted    -0.2204850E-03 ( -54.90%)
   displ. norm   :     0.9346429 α      lambda       -0.3730035E-03
   maximum displ.:     0.6707517 α      in ANC's #3, #1, #2, ...

........................................................................
.............................. CYCLE   55 ..............................
........................................................................

 iter      E             dE          RMSdq      gap      omega  full diag
   1   -212.6159640 -0.212616E+03  0.423E-02    1.12       0.0  T
   2   -212.6159597  0.424031E-05  0.253E-02    1.12       1.0  T
   3   -212.6135849  0.237482E-02  0.727E-02    1.11       1.0  T
   4   -212.6159020 -0.231713E-02  0.123E-02    1.12       1.0  T
   5   -212.6159664 -0.643492E-04  0.106E-03    1.12       7.9  T
   6   -212.6159666 -0.215045E-06  0.434E-04    1.12      19.4  T
   7   -212.6159666 -0.174916E-08  0.221E-04    1.12      38.1  T
     SCC iter.                  ...        0 min,  0.509 sec
     gradient                   ...        0 min,  0.067 sec
 * total energy  :  -209.4879103 Eh     change       -0.5405729E-03 Eh
   gradient norm :     0.0015234 Eh/α   predicted    -0.2589105E-03 ( -52.10%)
   displ. norm   :     1.0147135 α      lambda       -0.3959579E-03
   maximum displ.:     0.7286020 α      in ANC's #3, #1, #2, ...

........................................................................
.............................. CYCLE   56 ..............................
........................................................................

 iter      E             dE          RMSdq      gap      omega  full diag
   1   -212.6164923 -0.212616E+03  0.458E-02    1.12       0.0  T
   2   -212.6164712  0.210624E-04  0.280E-02    1.12       1.0  T
[...]
    34   6 C    3.976 --    35 C    1.263    31 C    1.228    41 C    1.223
    35   6 C    3.959 --    44 C    1.381    34 C    1.263    36 C    1.079
    36   6 C    3.927 --    48 O    1.637    35 C    1.079    37 C    1.077
    37   6 C    3.965 --    38 C    1.408    32 C    1.242    36 C    1.077
    38   6 C    3.985 --    37 C    1.408    39 C    1.397   140 H    0.959
    39   6 C    3.956 --    40 C    1.407    38 C    1.397    72 C    0.979
    40   6 C    3.985 --    39 C    1.407    33 C    1.401   141 H    0.961
    41   6 C    3.909 --    42 C    1.379    34 C    1.223    45 O    1.124
    42   6 C    3.960 --    43 C    1.390    41 C    1.379   136 H    0.962
    43   6 C    3.944 --    44 C    1.410    42 C    1.390    68 C    0.980
    44   6 C    3.965 --    43 C    1.410    35 C    1.381   137 H    0.959
    45   8 O    2.124 --    41 C    1.124    24 B    0.760
    46   8 O    2.136 --    26 C    1.094    24 B    0.813
    47   6 C    3.927 --    49 O    1.628    28 C    1.092    33 C    1.074
    48   8 O    1.910 --    36 C    1.637
    49   8 O    1.903 --    47 C    1.628
    50   8 O    1.910 --    10 C    1.637
    51   8 O    1.903 --    13 C    1.628
    52   6 C    3.989 --    53 C    0.999    54 C    0.993    55 C    0.983
                             6 C    0.980
    53   6 C    3.996 --    52 C    0.999   121 H    0.986   122 H    0.984
                           123 H    0.980
    54   6 C    3.995 --    52 C    0.993   127 H    0.986   129 H    0.982
                           128 H    0.982
    55   6 C    3.993 --   126 H    0.987   125 H    0.986   124 H    0.985
                            52 C    0.983
    56   6 C    3.990 --    57 C    0.999    59 C    0.990    58 C    0.987
                            20 C    0.980
    57   6 C    3.997 --    56 C    0.999    97 H    0.986    99 H    0.985
                            98 H    0.985
    58   6 C    3.995 --    56 C    0.987    96 H    0.987    94 H    0.985
                            95 H    0.980
    59   6 C    3.995 --    56 C    0.990   101 H    0.987   100 H    0.986
                           102 H    0.976
    60   6 C    3.989 --    62 C    0.999    61 C    0.989    63 C    0.989
                            16 C    0.979
    61   6 C    3.995 --    60 C    0.989   111 H    0.987   109 H    0.986
                           110 H    0.984
    62   6 C    3.997 --    60 C    0.999   106 H    0.986   107 H    0.985
                           108 H    0.985
    63   6 C    3.995 --    60 C    0.989   104 H    0.987   103 H    0.986
                           105 H    0.983
    64   6 C    3.990 --    67 C    0.999    65 C    0.991    66 C    0.986
                            30 C    0.980
    65   6 C    3.995 --    64 C    0.991   113 H    0.987   112 H    0.985
                           114 H    0.977
    66   6 C    3.994 --   117 H    0.987    64 C    0.986   115 H    0.985
                           116 H    0.980
    67   6 C    3.997 --    64 C    0.999   118 H    0.986   120 H    0.986
                           119 H    0.985
    68   6 C    3.989 --    71 C    1.000    70 C    0.993    69 C    0.984
                            43 C    0.980
    69   6 C    3.994 --    93 H    0.987    92 H    0.986    91 H    0.985
                            68 C    0.984
    70   6 C    3.995 --    68 C    0.993    85 H    0.986    87 H    0.982
                            86 H    0.982
    71   6 C    3.996 --    68 C    1.000    88 H    0.986    89 H    0.984
                            90 H    0.979
    72   6 C    3.989 --    74 C    0.999    75 C    0.990    73 C    0.989
                            39 C    0.979
    73   6 C    3.995 --    72 C    0.989    80 H    0.987    79 H    0.986
                            81 H    0.984
    74   6 C    3.997 --    72 C    0.999    76 H    0.986    77 H    0.986
                            78 H    0.985
    75   6 C    3.995 --    72 C    0.990    84 H    0.987    82 H    0.986
                            83 H    0.983
    76   1 H    0.999 --    74 C    0.986
    77   1 H    0.999 --    74 C    0.986
    78   1 H    0.999 --    74 C    0.985
    79   1 H    0.999 --    73 C    0.986
    80   1 H    0.999 --    73 C    0.987
    81   1 H    0.999 --    73 C    0.984
    82   1 H    0.999 --    75 C    0.986
    83   1 H    0.998 --    75 C    0.983
    84   1 H    0.999 --    75 C    0.987
    85   1 H    0.999 --    70 C    0.986
    86   1 H    0.999 --    70 C    0.982
    87   1 H    0.999 --    70 C    0.982
    88   1 H    0.999 --    71 C    0.986
    89   1 H    0.999 --    71 C    0.984
    90   1 H    0.998 --    71 C    0.979
    91   1 H    0.998 --    69 C    0.985
    92   1 H    0.999 --    69 C    0.986
    93   1 H    0.999 --    69 C    0.987
    94   1 H    0.999 --    58 C    0.985
    95   1 H    0.998 --    58 C    0.980
    96   1 H    0.999 --    58 C    0.987
    97   1 H    0.999 --    57 C    0.986
    98   1 H    0.999 --    57 C    0.985
    99   1 H    0.999 --    57 C    0.985
   100   1 H    0.999 --    59 C    0.986
   101   1 H    0.999 --    59 C    0.987
   102   1 H    0.998 --    59 C    0.976
   103   1 H    0.999 --    63 C    0.986
   104   1 H    0.999 --    63 C    0.987
   105   1 H    0.999 --    63 C    0.983
   106   1 H    0.999 --    62 C    0.986
   107   1 H    0.999 --    62 C    0.985
   108   1 H    0.999 --    62 C    0.985
   109   1 H    0.999 --    61 C    0.986
   110   1 H    0.998 --    61 C    0.984
   111   1 H    0.999 --    61 C    0.987
   112   1 H    0.999 --    65 C    0.985
   113   1 H    0.999 --    65 C    0.987
   114   1 H    0.998 --    65 C    0.977
   115   1 H    0.999 --    66 C    0.985
   116   1 H    0.998 --    66 C    0.980
   117   1 H    0.999 --    66 C    0.987
   118   1 H    0.999 --    67 C    0.986
   119   1 H    0.999 --    67 C    0.985
   120   1 H    0.999 --    67 C    0.986
   121   1 H    0.999 --    53 C    0.986
   122   1 H    0.999 --    53 C    0.984
   123   1 H    0.998 --    53 C    0.980
   124   1 H    0.998 --    55 C    0.985
   125   1 H    0.999 --    55 C    0.986
   126   1 H    0.999 --    55 C    0.987
   127   1 H    0.999 --    54 C    0.986
   128   1 H    0.998 --    54 C    0.982
   129   1 H    0.999 --    54 C    0.982
   130   1 H    0.998 --     5 C    0.959
   131   1 H    0.998 --     1 C    0.961
   132   1 H    0.998 --    17 C    0.959
   133   1 H    0.997 --    15 C    0.961
   134   1 H    0.997 --    21 C    0.959
   135   1 H    0.998 --    19 C    0.957
   136   1 H    0.998 --    42 C    0.962
   137   1 H    0.998 --    44 C    0.959
   138   1 H    0.998 --    25 C    0.957
   139   1 H    0.997 --    29 C    0.959
   140   1 H    0.998 --    38 C    0.959
   141   1 H    0.997 --    40 C    0.961
 ---------------------------------------------------------------------------

Topologies differ in bond orders
Writing corrected topology to xtbtopo.mol

molecular dipole:
                 x           y           z       tot (Debye)
 q only:       -0.082      -0.545       1.459
   full:       -0.106      -0.554       1.640       4.408
molecular quadrupole (traceless):
                xx          xy          yy          xz          yz          zz
 q only:     -106.638       4.668      21.953     -14.388      -8.817      84.685
  q+dip:     -111.704       8.176      23.208     -14.676      -8.571      88.497
   full:     -110.495       9.051      18.073     -14.698     -10.027      92.423

           -------------------------------------------------
          |                Geometry Summary                 |
           -------------------------------------------------

      molecular mass/u    :      998.0389263
   center of mass at/Å    :       -0.0299411       0.0843087       0.0705504
  moments of inertia/u·Å² :        0.1565519E+05   0.2481487E+05   0.2958044E+05
rotational constants/cm⁻¹ :        0.1076808E-02   0.6793360E-03   0.5698912E-03

 * 134 selected distances

     #   Z          #   Z                                           value/Å
     1   6 C        2   6 C                                       1.3968918
     2   6 C        3   6 C                                       1.4342774
     3   6 C        4   6 C                                       1.4233180
     4   6 C        5   6 C                                       1.3911930
     1   6 C        6   6 C                                       1.3911973
     5   6 C        6   6 C                                       1.3831028
     7   6 C        8   6 C                                       1.4217902
     8   6 C        9   6 C                                       1.4163379
    11   6 C       12   6 C                                       1.4173056
     8   6 C       14   6 C                                       1.4160885
    14   6 C       15   6 C                                       1.3894027
    15   6 C       16   6 C                                       1.3870733
     9   6 C       17   6 C                                       1.3871543
    16   6 C       17   6 C                                       1.3896211
    11   6 C       18   6 C                                       1.4202876
    18   6 C       19   6 C                                       1.3891430
    19   6 C       20   6 C                                       1.3940549
    12   6 C       21   6 C                                       1.3965532
    20   6 C       21   6 C                                       1.3775904
     2   6 C       22   8 O                                       1.3360565
    18   6 C       23   8 O                                       1.3393990
    22   8 O       24   5 B                                       1.4870622
    23   8 O       24   5 B                                       1.4439794
    25   6 C       26   6 C                                       1.3891455
    26   6 C       27   6 C                                       1.4204144
    27   6 C       28   6 C                                       1.4173750
    28   6 C       29   6 C                                       1.3960621
    25   6 C       30   6 C                                       1.3935323
    29   6 C       30   6 C                                       1.3776511
    31   6 C       32   6 C                                       1.4227668
    32   6 C       33   6 C                                       1.4160996
    34   6 C       35   6 C                                       1.4229555
    32   6 C       37   6 C                                       1.4161355
    37   6 C       38   6 C                                       1.3870299
    38   6 C       39   6 C                                       1.3893272
    33   6 C       40   6 C                                       1.3895582
    39   6 C       40   6 C                                       1.3866766
    34   6 C       41   6 C                                       1.4336096
    41   6 C       42   6 C                                       1.3966786
    42   6 C       43   6 C                                       1.3900096
    35   6 C       44   6 C                                       1.3909295
    43   6 C       44   6 C                                       1.3822778
    24   5 B       45   8 O                                       1.4922172
    41   6 C       45   8 O                                       1.3378365
    24   5 B       46   8 O                                       1.4474266
    26   6 C       46   8 O                                       1.3409328
    36   6 C       48   8 O                                       1.2366408
    47   6 C       49   8 O                                       1.2383333
    10   6 C       50   8 O                                       1.2365168
    13   6 C       51   8 O                                       1.2382554
    52   6 C       53   6 C                                       1.5300566
    52   6 C       54   6 C                                       1.5339088
    52   6 C       55   6 C                                       1.5379361 (max)
    56   6 C       57   6 C                                       1.5316770
    56   6 C       58   6 C                                       1.5350868
    56   6 C       59   6 C                                       1.5329224
    60   6 C       61   6 C                                       1.5351746
    60   6 C       62   6 C                                       1.5311370
    60   6 C       63   6 C                                       1.5351153
    64   6 C       65   6 C                                       1.5327089
    64   6 C       66   6 C                                       1.5348345
    64   6 C       67   6 C                                       1.5318355
    68   6 C       69   6 C                                       1.5375726
    68   6 C       70   6 C                                       1.5343503
    68   6 C       71   6 C                                       1.5298965
    72   6 C       73   6 C                                       1.5352692
    72   6 C       74   6 C                                       1.5311198
    72   6 C       75   6 C                                       1.5350240
    74   6 C       76   1 H                                       1.0903137
    74   6 C       77   1 H                                       1.0873641
    74   6 C       78   1 H                                       1.0873052
    73   6 C       79   1 H                                       1.0901738
    73   6 C       80   1 H                                       1.0883321
    73   6 C       81   1 H                                       1.0864266
    75   6 C       82   1 H                                       1.0902302
    75   6 C       83   1 H                                       1.0862239
    75   6 C       84   1 H                                       1.0881295
    70   6 C       85   1 H                                       1.0902777
    70   6 C       86   1 H                                       1.0864479
    70   6 C       87   1 H                                       1.0859288
    71   6 C       88   1 H                                       1.0904575
    71   6 C       89   1 H                                       1.0870635
    71   6 C       90   1 H                                       1.0854964
    69   6 C       91   1 H                                       1.0904011
    69   6 C       92   1 H                                       1.0872092
    69   6 C       93   1 H                                       1.0881680
    58   6 C       94   1 H                                       1.0904281
    58   6 C       95   1 H                                       1.0859107
    58   6 C       96   1 H                                       1.0885014
    57   6 C       97   1 H                                       1.0903423
    57   6 C       98   1 H                                       1.0872424
    57   6 C       99   1 H                                       1.0873590
    59   6 C      100   1 H                                       1.0904313
    59   6 C      101   1 H                                       1.0883143
    59   6 C      102   1 H                                       1.0852317
    63   6 C      103   1 H                                       1.0902298
    63   6 C      104   1 H                                       1.0883920
    63   6 C      105   1 H                                       1.0863275
    62   6 C      106   1 H                                       1.0903101
    62   6 C      107   1 H                                       1.0873006
    62   6 C      108   1 H                                       1.0873763
    61   6 C      109   1 H                                       1.0901676
    61   6 C      110   1 H                                       1.0863099
    61   6 C      111   1 H                                       1.0881527
    65   6 C      112   1 H                                       1.0906582
    65   6 C      113   1 H                                       1.0881656
    65   6 C      114   1 H                                       1.0854264
    66   6 C      115   1 H                                       1.0905479
    66   6 C      116   1 H                                       1.0861578
    66   6 C      117   1 H                                       1.0885750
    67   6 C      118   1 H                                       1.0903488
    67   6 C      119   1 H                                       1.0871566
    67   6 C      120   1 H                                       1.0874562
    53   6 C      121   1 H                                       1.0904811
    53   6 C      122   1 H                                       1.0868897
    53   6 C      123   1 H                                       1.0855023
    55   6 C      124   1 H                                       1.0904331
    55   6 C      125   1 H                                       1.0873403
    55   6 C      126   1 H                                       1.0880996
    54   6 C      127   1 H                                       1.0903766
    54   6 C      128   1 H                                       1.0860661
    54   6 C      129   1 H                                       1.0858667
     5   6 C      130   1 H                                       1.0793943
     1   6 C      131   1 H                                       1.0795774
    17   6 C      132   1 H                                       1.0814010
    15   6 C      133   1 H                                       1.0795517
    21   6 C      134   1 H                                       1.0787835 (min)
    19   6 C      135   1 H                                       1.0795696
Note: The following floating-point exceptions are signalling: IEEE_UNDERFLOW_FLAG
normal termination of xtb
    42   6 C      136   1 H                                       1.0796767
    44   6 C      137   1 H                                       1.0796348
    25   6 C      138   1 H                                       1.0793110
    29   6 C      139   1 H                                       1.0787957
    38   6 C      140   1 H                                       1.0814286
    40   6 C      141   1 H                                       1.0795666

 * 4 distinct bonds (by element types)

   Z      Z             #   av. dist./Å        max./Å        min./Å
   1 H    6 C          66     1.0866139     1.0906582     1.0787835
   6 C    6 C          56     1.4436829     1.5379361     1.3775904
   5 B    8 O           4     1.4676714     1.4922172     1.4439794
   6 C    8 O           8     1.2879964     1.3409328     1.2365168


optimized geometry written to: xtbopt.mol


           -------------------------------------------------
          | TOTAL ENERGY             -209.495368139955 Eh   |
          | GRADIENT NORM               0.000291417311 Eh/α |
          | HOMO-LUMO GAP               1.140863007253 eV   |
           -------------------------------------------------
########################################################################
[WARNING] Runtime exception occurred
-1- restart_readRestart: Number of electron missmatch in restart file.
########################################################################

------------------------------------------------------------------------
 * finished run on 2024/11/12 at 09:32:31.319     
------------------------------------------------------------------------
 total:
 * wall-time:     0 d,  0 h,  0 min, 55.827 sec
 *  cpu-time:     0 d,  0 h,  3 min,  8.428 sec
 * ratio c/w:     3.375 speedup
 SCF:
 * wall-time:     0 d,  0 h,  0 min,  1.576 sec
 *  cpu-time:     0 d,  0 h,  0 min,  6.170 sec
 * ratio c/w:     3.916 speedup
 ANC optimizer:
 * wall-time:     0 d,  0 h,  0 min, 54.228 sec
 *  cpu-time:     0 d,  0 h,  3 min,  2.217 sec
 * ratio c/w:     3.360 speedup

