      -----------------------------------------------------------      
     |                   =====================                   |     
     |                           x T B                           |     
     |                   =====================                   |     
     |                         S. Grimme                         |     
     |          Mulliken Center for Theoretical Chemistry        |     
     |                    University of Bonn                     |     
      -----------------------------------------------------------      

   * xtb version 6.6.1 (8d0f1dd) compiled by 'runner@Mac-1690902418499.local' on 2023-08-01

   xtb is free software: you can redistribute it and/or modify it under
   the terms of the GNU Lesser General Public License as published by
   the Free Software Foundation, either version 3 of the License, or
   (at your option) any later version.
   
   xtb is distributed in the hope that it will be useful,
   but WITHOUT ANY WARRANTY; without even the implied warranty of
   MERCHANTABILITY or FITNESS FOR A PARTICULAR PURPOSE.  See the
   GNU Lesser General Public License for more details.
   
   Cite this work as:
   * C. Bannwarth, E. Caldeweyher, S. Ehlert, A. Hansen, P. Pracht,
     J. Seibert, S. Spicher, S. Grimme, WIREs Comput. Mol. Sci., 2020, 11,
     e01493. DOI: 10.1002/wcms.1493
   
   for GFN2-xTB:
   * C. Bannwarth, S. Ehlert and S. Grimme., J. Chem. Theory Comput., 2019,
     15, 1652-1671. DOI: 10.1021/acs.jctc.8b01176
   for GFN1-xTB:
   * S. Grimme, C. Bannwarth, P. Shushkov, J. Chem. Theory Comput., 2017,
     13, 1989-2009. DOI: 10.1021/acs.jctc.7b00118
   for GFN0-xTB:
   * P. Pracht, E. Caldeweyher, S. Ehlert, S. Grimme, ChemRxiv, 2019, preprint.
     DOI: 10.26434/chemrxiv.8326202.v1
   for GFN-FF:
   * S. Spicher and S. Grimme, Angew. Chem. Int. Ed., 2020, 59, 15665-15673.
     DOI: 10.1002/anie.202004239
   
   for ALPB and GBSA implicit solvation:
   * S. Ehlert, M. Stahn, S. Spicher, S. Grimme, J. Chem. Theory Comput.,
     2021, 17, 4250-4261. DOI: 10.1021/acs.jctc.1c00471
   
   for DFT-D4:
   * E. Caldeweyher, C. Bannwarth and S. Grimme, J. Chem. Phys., 2017,
     147, 034112. DOI: 10.1063/1.4993215
   * E. Caldeweyher, S. Ehlert, A. Hansen, H. Neugebauer, S. Spicher,
     C. Bannwarth and S. Grimme, J. Chem. Phys., 2019, 150, 154122.
     DOI: 10.1063/1.5090222
   * E. Caldeweyher, J.-M. Mewes, S. Ehlert and S. Grimme, Phys. Chem. Chem. Phys.
     2020, 22, 8499-8512. DOI: 10.1039/D0CP00502A
   
   for sTDA-xTB:
   * S. Grimme and C. Bannwarth, J. Chem. Phys., 2016, 145, 054103.
     DOI: 10.1063/1.4959605
   
   in the mass-spec context:
   * V. Asgeirsson, C. Bauer and S. Grimme, Chem. Sci., 2017, 8, 4879.
     DOI: 10.1039/c7sc00601b
   * J. Koopman and S. Grimme, ACS Omega 2019, 4, 12, 15120-15133.
     DOI: 10.1021/acsomega.9b02011
   
   for metadynamics refer to:
   * S. Grimme, J. Chem. Theory Comput., 2019, 155, 2847-2862
     DOI: 10.1021/acs.jctc.9b00143
   
   for SPH calculations refer to:
   * S. Spicher and S. Grimme, J. Chem. Theory Comput., 2021, 17, 1701-1714
     DOI: 10.1021/acs.jctc.0c01306
   
   with help from (in alphabetical order)
   P. Atkinson, C. Bannwarth, F. Bohle, G. Brandenburg, E. Caldeweyher
   M. Checinski, S. Dohm, S. Ehlert, S. Ehrlich, I. Gerasimov, C. Hölzer
   A. Katbashev, J. Koopman, C. Lavigne, S. Lehtola, F. März, M. Müller,
   F. Musil, H. Neugebauer, J. Pisarek, C. Plett, P. Pracht, F. Pultar,
   J. Seibert, P. Shushkov, S. Spicher, M. Stahn, M. Steiner, T. Strunk,
   J. Stückrath, T. Rose, and J. Unsleber
   
 * started run on 2024/11/12 at 09:34:24.192     

           -------------------------------------------------
          |                Calculation Setup                |
           -------------------------------------------------

          program call               : xtb opt_radical_Katherine1.mol --gfn2 --sp --chrg 0 --uhf 2
          coordinate file            : opt_radical_Katherine1.mol
          omp threads                :                     8

   ID    Z sym.   atoms
    1    6 C      1-21, 25-44, 47, 52-75
    2    8 O      22, 23, 45, 46, 48-51
    3    5 B      24
    4    1 H      76-141
########################################################################
[WARNING] Please study the warnings concerning your input carefully
-1- prog_main: Charge in sdf/mol input was overwritten
########################################################################

           -------------------------------------------------
          |                 G F N 2 - x T B                 |
           -------------------------------------------------

        Reference                      10.1021/acs.jctc.8b01176
      * Hamiltonian:
        H0-scaling (s, p, d)           1.850000    2.230000    2.230000
        zeta-weighting                 0.500000
      * Dispersion:
        s8                             2.700000
        a1                             0.520000
        a2                             5.000000
        s9                             5.000000
      * Repulsion:
        kExp                           1.500000    1.000000
        rExp                           1.000000
      * Coulomb:
        alpha                          2.000000
        third order                    shell-resolved
        anisotropic                    true
        a3                             3.000000
        a5                             4.000000
        cn-shift                       1.200000
        cn-exp                         4.000000
        max-rad                        5.000000

q/qsh data taken from xtbrestart
CAMM data taken from xtbrestart

          ...................................................
          :                      SETUP                      :
          :.................................................:
          :  # basis functions                 366          :
          :  # atomic orbitals                 366          :
          :  # shells                          216          :
          :  # electrons                       381          :
          :  max. iterations                   250          :
          :  Hamiltonian                  GFN2-xTB          :
          :  restarted?                       true          :
          :  GBSA solvation                  false          :
          :  PC potential                    false          :
          :  electronic temp.          300.0000000     K    :
          :  accuracy                    1.0000000          :
          :  -> integral cutoff          0.2500000E+02      :
          :  -> integral neglect         0.1000000E-07      :
          :  -> SCF convergence          0.1000000E-05 Eh   :
          :  -> wf. convergence          0.1000000E-03 e    :
          :  Broyden damping             0.4000000          :
          ...................................................

 iter      E             dE          RMSdq      gap      omega  full diag
   1   -212.1187645 -0.212119E+03  0.302E-01    0.07       0.0  T
   2   -212.1261513 -0.738685E-02  0.264E-01    0.08       1.0  T
   3   -212.1161157  0.100356E-01  0.251E-01    0.14       1.0  T
   4   -212.0989218  0.171939E-01  0.315E-01    0.28       1.0  T
   5   -212.1296374 -0.307155E-01  0.122E-01    0.09       1.0  T
   6   -212.1323449 -0.270751E-02  0.589E-02    0.08       1.0  T
   7   -212.1331897 -0.844878E-03  0.187E-02    0.08       1.0  T
   8   -212.1332466 -0.568510E-04  0.610E-03    0.08       1.4  T
   9   -212.1332472 -0.565787E-06  0.375E-03    0.08       2.2  T
  10   -212.1332449  0.227836E-05  0.361E-03    0.08       2.3  T
  11   -212.1332498 -0.490818E-05  0.596E-04    0.08      14.1  T
  12   -212.1332498 -0.289211E-07  0.346E-04    0.08      24.4  T
  13   -212.1332498 -0.255354E-07  0.132E-04    0.08      63.6  T

   *** convergence criteria satisfied after 13 iterations ***

         #    Occupation            Energy/Eh            Energy/eV
      -------------------------------------------------------------
         1        2.0000           -0.7056709             -19.2023
       ...           ...                  ...                  ...
       185        2.0000           -0.3977620             -10.8237
       186        2.0000           -0.3918918             -10.6639
       187        2.0000           -0.3885973             -10.5743
       188        2.0000           -0.3878571             -10.5541
       189        2.0000           -0.3859334             -10.5018
       190        2.0000           -0.3851911             -10.4816
       191        0.8114           -0.3508217              -9.5463 (HOMO)
       192        0.1886           -0.3480494              -9.4709 (LUMO)
       193                         -0.2988394              -8.1318
       194                         -0.2987633              -8.1298
       195                         -0.2646612              -7.2018
       196                         -0.2635305              -7.1710
       ...                                ...                  ...
       366                          0.7205624              19.6075
      -------------------------------------------------------------
                  HL-Gap            0.0027723 Eh            0.0754 eV
             Fermi-level           -0.3586299 Eh           -9.7588 eV

 transition dipole moment (au) for excitation:         190         191
     X       Y       Z   
   0.0203   0.0280  -0.2042  total (au/Debye):    0.207   0.526
 dE (eV)             :    0.935
 oscillator strength :  0.13899E-02

 SCC (total)                   0 d,  0 h,  0 min,  1.070 sec
 SCC setup                      ...        0 min,  0.000 sec (  0.042%)
 Dispersion                     ...        0 min,  0.002 sec (  0.164%)
 classical contributions        ...        0 min,  0.000 sec (  0.040%)
 integral evaluation            ...        0 min,  0.007 sec (  0.696%)
 iterations                     ...        0 min,  0.962 sec ( 89.870%)
 molecular gradient             ...        0 min,  0.064 sec (  6.025%)
 printout                       ...        0 min,  0.034 sec (  3.161%)

         :::::::::::::::::::::::::::::::::::::::::::::::::::::
         ::                     SUMMARY                     ::
         :::::::::::::::::::::::::::::::::::::::::::::::::::::
         :: total energy            -208.991431007118 Eh    ::
         :: gradient norm              0.044366688127 Eh/a0 ::
         :: HOMO-LUMO gap              0.075437906529 eV    ::
         ::.................................................::
         :: SCC energy              -212.133249843231 Eh    ::
         :: -> isotropic ES            0.264299835598 Eh    ::
         :: -> anisotropic ES          0.001404291323 Eh    ::
         :: -> anisotropic XC          0.080330339289 Eh    ::
         :: -> dispersion             -0.200063703360 Eh    ::
         :: repulsion energy           3.138208774485 Eh    ::
         :: add. restraining           0.000000000000 Eh    ::
         :: total charge              -0.000000031775 e     ::
         :::::::::::::::::::::::::::::::::::::::::::::::::::::

           -------------------------------------------------
          |                Property Printout                |
           -------------------------------------------------

    * Orbital Energies and Occupations

         #    Occupation            Energy/Eh            Energy/eV
      -------------------------------------------------------------
         1        2.0000           -0.7056709             -19.2023
       ...           ...                  ...                  ...
       179        2.0000           -0.4119096             -11.2086
       180        2.0000           -0.4118926             -11.2082
       181        2.0000           -0.4088749             -11.1261
       182        2.0000           -0.4088432             -11.1252
       183        2.0000           -0.4028116             -10.9611
       184        2.0000           -0.4003915             -10.8952
       185        2.0000           -0.3977620             -10.8237
       186        2.0000           -0.3918918             -10.6639
       187        2.0000           -0.3885973             -10.5743
       188        2.0000           -0.3878571             -10.5541
       189        2.0000           -0.3859334             -10.5018
       190        2.0000           -0.3851911             -10.4816
       191        0.8114           -0.3508217              -9.5463 (HOMO)
       192        0.1886           -0.3480494              -9.4709 (LUMO)
       193                         -0.2988394              -8.1318
       194                         -0.2987633              -8.1298
       195                         -0.2646612              -7.2018
       196                         -0.2635305              -7.1710
       197                         -0.2461369              -6.6977
       198                         -0.2458720              -6.6905
       199                         -0.2444475              -6.6518
       200                         -0.2441520              -6.6437
       201                         -0.2348361              -6.3902
       202                         -0.2304431              -6.2707
       ...                                ...                  ...
       366                          0.7205624              19.6075
      -------------------------------------------------------------
                  HL-Gap            0.0027723 Eh            0.0754 eV
             Fermi-level           -0.3586299 Eh           -9.7588 eV

     #   Z          covCN         q      C6AA      α(0)
     1   6 C        2.929    -0.062    29.548     8.915
     2   6 C        2.855     0.184    24.069     8.041
     3   6 C        2.969    -0.011    28.279     8.723
     4   6 C        2.986    -0.016    28.414     8.744
     5   6 C        2.939    -0.032    28.795     8.801
     6   6 C        2.970     0.022    27.514     8.604
     7   6 C        2.966     0.039    27.115     8.541
     8   6 C        2.990     0.005    27.909     8.666
     9   6 C        2.983    -0.015    28.381     8.739
    10   6 C        2.842     0.223    23.308     7.912
    11   6 C        2.974    -0.011    28.278     8.723
    12   6 C        2.984    -0.021    28.521     8.760
    13   6 C        2.840     0.221    23.359     7.921
    14   6 C        2.982    -0.014    28.361     8.736
    15   6 C        2.931    -0.023    28.580     8.767
    16   6 C        2.970     0.020    27.552     8.610
    17   6 C        2.934    -0.019    28.479     8.752
    18   6 C        2.862     0.178    24.178     8.060
    19   6 C        2.928    -0.056    29.400     8.892
    20   6 C        2.971     0.022    27.505     8.603
    21   6 C        2.935    -0.035    28.859     8.810
    22   8 O        1.632    -0.386    20.591     6.125
    23   8 O        1.639    -0.396    20.778     6.153
    24   5 B        3.184     0.625    13.259     6.073
    25   6 C        2.928    -0.056    29.400     8.892
    26   6 C        2.862     0.178    24.175     8.059
    27   6 C        2.974    -0.010    28.273     8.722
    28   6 C        2.984    -0.021    28.521     8.760
    29   6 C        2.935    -0.034    28.857     8.810
    30   6 C        2.971     0.022    27.504     8.602
    31   6 C        2.966     0.040    27.111     8.541
    32   6 C        2.990     0.005    27.909     8.666
    33   6 C        2.982    -0.014    28.361     8.736
    34   6 C        2.968    -0.010    28.275     8.722
    35   6 C        2.986    -0.017    28.416     8.744
    36   6 C        2.843     0.223    23.310     7.912
    37   6 C        2.983    -0.015    28.379     8.739
    38   6 C        2.934    -0.019    28.479     8.752
    39   6 C        2.970     0.020    27.551     8.610
    40   6 C        2.931    -0.023    28.580     8.767
    41   6 C        2.855     0.184    24.069     8.041
    42   6 C        2.929    -0.062    29.540     8.913
    43   6 C        2.970     0.022    27.513     8.604
    44   6 C        2.939    -0.032    28.787     8.800
    45   8 O        1.632    -0.387    20.608     6.128
    46   8 O        1.639    -0.396    20.785     6.154
    47   6 C        2.840     0.221    23.358     7.920
    48   8 O        0.857    -0.386    21.401     6.202
    49   8 O        0.858    -0.388    21.434     6.207
    50   8 O        0.857    -0.386    21.396     6.202
    51   8 O        0.858    -0.388    21.434     6.207
    52   6 C        3.902     0.029    20.034     6.362
    53   6 C        3.760    -0.114    22.738     6.798
    54   6 C        3.760    -0.113    22.706     6.793
    55   6 C        3.765    -0.107    22.587     6.774
    56   6 C        3.903     0.028    20.053     6.365
    57   6 C        3.761    -0.114    22.721     6.795
    58   6 C        3.763    -0.107    22.585     6.774
    59   6 C        3.761    -0.107    22.595     6.776
    60   6 C        3.903     0.027    20.061     6.367
    61   6 C        3.762    -0.109    22.632     6.781
    62   6 C        3.761    -0.113    22.699     6.792
    63   6 C        3.761    -0.109    22.624     6.781
    64   6 C        3.903     0.028    20.053     6.365
    65   6 C        3.761    -0.107    22.595     6.776
    66   6 C        3.763    -0.107    22.583     6.774
    67   6 C        3.761    -0.114    22.721     6.795
    68   6 C        3.902     0.029    20.035     6.362
    69   6 C        3.765    -0.107    22.590     6.774
    70   6 C        3.760    -0.113    22.702     6.792
    71   6 C        3.760    -0.114    22.734     6.797
    72   6 C        3.903     0.027    20.061     6.367
    73   6 C        3.761    -0.109    22.623     6.780
    74   6 C        3.761    -0.113    22.699     6.792
    75   6 C        3.762    -0.109    22.633     6.782
    76   1 H        0.925     0.042     2.419     2.432
    77   1 H        0.925     0.040     2.442     2.444
    78   1 H        0.925     0.042     2.421     2.433
    79   1 H        0.925     0.045     2.388     2.417
    80   1 H        0.925     0.037     2.489     2.467
    81   1 H        0.925     0.042     2.419     2.432
    82   1 H        0.925     0.044     2.398     2.421
    83   1 H        0.925     0.043     2.405     2.425
    84   1 H        0.925     0.037     2.485     2.465
    85   1 H        0.925     0.043     2.405     2.425
    86   1 H        0.925     0.043     2.415     2.430
    87   1 H        0.925     0.044     2.394     2.420
    88   1 H        0.925     0.042     2.424     2.435
    89   1 H        0.925     0.039     2.463     2.454
    90   1 H        0.925     0.046     2.370     2.407
    91   1 H        0.925     0.048     2.346     2.395
    92   1 H        0.925     0.040     2.450     2.448
    93   1 H        0.925     0.037     2.489     2.467
    94   1 H        0.925     0.044     2.402     2.424
    95   1 H        0.925     0.039     2.457     2.451
    96   1 H        0.925     0.039     2.462     2.454
    97   1 H        0.925     0.043     2.412     2.429
    98   1 H        0.925     0.043     2.411     2.428
    99   1 H        0.925     0.043     2.415     2.430
   100   1 H        0.925     0.043     2.408     2.427
   101   1 H        0.925     0.039     2.465     2.455
   102   1 H        0.925     0.039     2.459     2.452
   103   1 H        0.925     0.045     2.390     2.417
   104   1 H        0.925     0.037     2.489     2.467
   105   1 H        0.925     0.042     2.417     2.431
   106   1 H        0.925     0.042     2.419     2.432
   107   1 H        0.925     0.041     2.442     2.444
   108   1 H        0.925     0.042     2.421     2.433
   109   1 H        0.925     0.044     2.396     2.421
   110   1 H        0.925     0.043     2.406     2.426
   111   1 H        0.925     0.037     2.485     2.465
   112   1 H        0.925     0.043     2.410     2.428
   113   1 H        0.925     0.039     2.464     2.455
   114   1 H        0.925     0.039     2.458     2.452
   115   1 H        0.925     0.044     2.402     2.424
   116   1 H        0.925     0.040     2.455     2.450
   117   1 H        0.925     0.039     2.461     2.453
   118   1 H        0.925     0.043     2.413     2.429
   119   1 H        0.925     0.043     2.410     2.428
   120   1 H        0.925     0.043     2.415     2.430
   121   1 H        0.925     0.042     2.425     2.435
   122   1 H        0.925     0.039     2.463     2.454
   123   1 H        0.925     0.046     2.365     2.405
   124   1 H        0.925     0.048     2.345     2.395
   125   1 H        0.925     0.040     2.454     2.450
   126   1 H        0.925     0.037     2.488     2.467
   127   1 H        0.925     0.043     2.406     2.426
   128   1 H        0.925     0.043     2.410     2.428
   129   1 H        0.925     0.044     2.397     2.421
   130   1 H        0.926     0.073     2.053     2.241
   131   1 H        0.926     0.066     2.129     2.282
   132   1 H        0.926     0.071     2.072     2.251
   133   1 H        0.926     0.077     2.008     2.216
   134   1 H        0.926     0.081     1.967     2.193
   135   1 H        0.926     0.057     2.239     2.340
   136   1 H        0.926     0.066     2.130     2.282
   137   1 H        0.926     0.073     2.054     2.241
   138   1 H        0.926     0.056     2.241     2.341
   139   1 H        0.926     0.081     1.966     2.193
   140   1 H        0.926     0.071     2.071     2.251
   141   1 H        0.926     0.077     2.008     2.216

 Mol. C6AA /au·bohr⁶  :     223962.324769
 Mol. C8AA /au·bohr⁸  :    5400058.508592
 Mol. α(0) /au        :        734.976743


Wiberg/Mayer (AO) data.
largest (>0.10) Wiberg bond orders for each atom

 ---------------------------------------------------------------------------
     #   Z sym  total        # sym  WBO       # sym  WBO       # sym  WBO
 ---------------------------------------------------------------------------
     1   6 C    3.971 --     6 C    1.440     2 C    1.333   131 H    0.957
     2   6 C    3.891 --     1 C    1.333     3 C    1.202    22 O    1.166
     3   6 C    3.973 --     7 C    1.275     4 C    1.234     2 C    1.202
     4   6 C    3.961 --     5 C    1.457     3 C    1.234    10 C    1.040
     5   6 C    3.951 --     4 C    1.457     6 C    1.329   130 H    0.956
     6   6 C    3.934 --     1 C    1.440     5 C    1.329    52 C    0.988
     7   6 C    3.872 --     3 C    1.275    11 C    1.188     8 C    1.175
     8   6 C    3.981 --    14 C    1.292     9 C    1.278     7 C    1.175
     9   6 C    3.963 --    17 C    1.406     8 C    1.278    10 C    1.050
    10   6 C    3.930 --    50 O    1.731     9 C    1.050     4 C    1.040
    11   6 C    3.978 --    12 C    1.267    18 C    1.253     7 C    1.188
    12   6 C    3.964 --    21 C    1.408    11 C    1.267    13 C    1.057
    13   6 C    3.930 --    51 O    1.723    12 C    1.057    14 C    1.044
    14   6 C    3.958 --    15 C    1.398     8 C    1.292    13 C    1.044
    15   6 C    3.979 --    16 C    1.400    14 C    1.398   133 H    0.957
    16   6 C    3.947 --    15 C    1.400    17 C    1.389    60 C    0.986
    17   6 C    3.979 --     9 C    1.406    16 C    1.389   132 H    0.956
    18   6 C    3.908 --    19 C    1.365    11 C    1.253    23 O    1.100
    19   6 C    3.976 --    20 C    1.412    18 C    1.365   135 H    0.955
    20   6 C    3.947 --    19 C    1.412    21 C    1.378    56 C    0.986
    21   6 C    3.957 --    12 C    1.408    20 C    1.378   134 H    0.955
    22   8 O    2.172 --     2 C    1.166    24 B    0.748
    23   8 O    2.164 --    18 C    1.100    24 B    0.830
    24   5 B    3.297 --    23 O    0.830    46 O    0.829    22 O    0.748
                            45 O    0.747
    25   6 C    3.976 --    30 C    1.412    26 C    1.365   138 H    0.955
    26   6 C    3.908 --    25 C    1.365    27 C    1.252    46 O    1.100
    27   6 C    3.978 --    28 C    1.267    26 C    1.252    31 C    1.188
    28   6 C    3.965 --    29 C    1.409    27 C    1.267    47 C    1.057
    29   6 C    3.957 --    28 C    1.409    30 C    1.377   139 H    0.955
    30   6 C    3.947 --    25 C    1.412    29 C    1.377    64 C    0.986
    31   6 C    3.872 --    34 C    1.274    27 C    1.188    32 C    1.175
    32   6 C    3.981 --    33 C    1.292    37 C    1.279    31 C    1.175
    33   6 C    3.958 --    40 C    1.398    32 C    1.292    47 C    1.044
    34   6 C    3.973 --    31 C    1.274    35 C    1.235    41 C    1.203
    35   6 C    3.962 --    44 C    1.456    34 C    1.235    36 C    1.041
    36   6 C    3.930 --    48 O    1.730    37 C    1.050    35 C    1.041
    37   6 C    3.963 --    38 C    1.406    32 C    1.279    36 C    1.050
    38   6 C    3.979 --    37 C    1.406    39 C    1.389   140 H    0.956
    39   6 C    3.947 --    40 C    1.400    38 C    1.389    72 C    0.986
    40   6 C    3.979 --    39 C    1.400    33 C    1.398   141 H    0.957
    41   6 C    3.891 --    42 C    1.333    34 C    1.203    45 O    1.164
    42   6 C    3.972 --    43 C    1.440    41 C    1.333   136 H    0.957
    43   6 C    3.934 --    42 C    1.440    44 C    1.329    68 C    0.988
    44   6 C    3.951 --    35 C    1.456    43 C    1.329   137 H    0.956
    45   8 O    2.169 --    41 C    1.164    24 B    0.747
    46   8 O    2.162 --    26 C    1.100    24 B    0.829
    47   6 C    3.931 --    49 O    1.723    28 C    1.057    33 C    1.044
    48   8 O    1.995 --    36 C    1.730
    49   8 O    1.991 --    47 C    1.723
    50   8 O    1.995 --    10 C    1.731
    51   8 O    1.991 --    13 C    1.723
    52   6 C    3.987 --    53 C    0.999    54 C    0.990     6 C    0.988
                            55 C    0.973
    53   6 C    3.994 --    52 C    0.999   121 H    0.984   122 H    0.983
                           123 H    0.979
    54   6 C    3.992 --    52 C    0.990   127 H    0.984   128 H    0.982
                           129 H    0.982
    55   6 C    3.987 --   126 H    0.986   125 H    0.985   124 H    0.981
                            52 C    0.973
    56   6 C    3.989 --    57 C    1.000    59 C    0.986    20 C    0.986
                            58 C    0.981
    57   6 C    3.994 --    56 C    1.000    99 H    0.984    97 H    0.984
                            98 H    0.984
    58   6 C    3.991 --    96 H    0.986    94 H    0.983    56 C    0.981
                            95 H    0.980
    59   6 C    3.992 --    56 C    0.986   101 H    0.986   100 H    0.984
                           102 H    0.976
    60   6 C    3.989 --    62 C    1.000    16 C    0.986    61 C    0.984
                            63 C    0.983
    61   6 C    3.991 --   111 H    0.987    60 C    0.984   109 H    0.983
                           110 H    0.983
    62   6 C    3.995 --    60 C    1.000   107 H    0.985   106 H    0.984
                           108 H    0.984
    63   6 C    3.991 --   104 H    0.987   103 H    0.983   105 H    0.983
                            60 C    0.983
    64   6 C    3.989 --    67 C    1.000    65 C    0.987    30 C    0.986
                            66 C    0.981
    65   6 C    3.992 --    64 C    0.987   113 H    0.986   112 H    0.984
                           114 H    0.976
    66   6 C    3.991 --   117 H    0.986   115 H    0.983    64 C    0.981
                           116 H    0.980
    67   6 C    3.994 --    64 C    1.000   120 H    0.985   118 H    0.984
                           119 H    0.984
    68   6 C    3.987 --    71 C    0.999    70 C    0.990    43 C    0.988
                            69 C    0.974
    69   6 C    3.987 --    93 H    0.986    92 H    0.985    91 H    0.982
                            68 C    0.974
    70   6 C    3.992 --    68 C    0.990    85 H    0.984    86 H    0.982
                            87 H    0.981
    71   6 C    3.994 --    68 C    0.999    88 H    0.984    89 H    0.983
                            90 H    0.979
    72   6 C    3.989 --    74 C    1.000    39 C    0.986    75 C    0.984
                            73 C    0.983
    73   6 C    3.991 --    80 H    0.987    79 H    0.983    81 H    0.983
                            72 C    0.983
    74   6 C    3.995 --    72 C    1.000    77 H    0.985    76 H    0.984
                            78 H    0.984
    75   6 C    3.991 --    84 H    0.987    72 C    0.984    82 H    0.983
                            83 H    0.983
    76   1 H    0.998 --    74 C    0.984
    77   1 H    0.998 --    74 C    0.985
    78   1 H    0.998 --    74 C    0.984
    79   1 H    0.997 --    73 C    0.983
    80   1 H    0.999 --    73 C    0.987
    81   1 H    0.998 --    73 C    0.983
    82   1 H    0.997 --    75 C    0.983
    83   1 H    0.998 --    75 C    0.983
    84   1 H    0.999 --    75 C    0.987
    85   1 H    0.997 --    70 C    0.984
    86   1 H    0.998 --    70 C    0.982
    87   1 H    0.998 --    70 C    0.981
    88   1 H    0.998 --    71 C    0.984
    89   1 H    0.998 --    71 C    0.983
    90   1 H    0.998 --    71 C    0.979
    91   1 H    0.996 --    69 C    0.982
    92   1 H    0.998 --    69 C    0.985
    93   1 H    0.999 --    69 C    0.986
    94   1 H    0.997 --    58 C    0.983
    95   1 H    0.998 --    58 C    0.980
    96   1 H    0.998 --    58 C    0.986
    97   1 H    0.998 --    57 C    0.984
    98   1 H    0.998 --    57 C    0.984
    99   1 H    0.998 --    57 C    0.984
   100   1 H    0.997 --    59 C    0.984
   101   1 H    0.998 --    59 C    0.986
   102   1 H    0.998 --    59 C    0.976
   103   1 H    0.997 --    63 C    0.983
   104   1 H    0.999 --    63 C    0.987
   105   1 H    0.998 --    63 C    0.983
   106   1 H    0.998 --    62 C    0.984
   107   1 H    0.998 --    62 C    0.985
   108   1 H    0.998 --    62 C    0.984
   109   1 H    0.997 --    61 C    0.983
   110   1 H    0.998 --    61 C    0.983
   111   1 H    0.999 --    61 C    0.987
   112   1 H    0.997 --    65 C    0.984
   113   1 H    0.998 --    65 C    0.986
   114   1 H    0.998 --    65 C    0.976
   115   1 H    0.997 --    66 C    0.983
   116   1 H    0.998 --    66 C    0.980
   117   1 H    0.998 --    66 C    0.986
   118   1 H    0.998 --    67 C    0.984
   119   1 H    0.998 --    67 C    0.984
   120   1 H    0.998 --    67 C    0.985
   121   1 H    0.998 --    53 C    0.984
   122   1 H    0.998 --    53 C    0.983
   123   1 H    0.998 --    53 C    0.979
   124   1 H    0.995 --    55 C    0.981
   125   1 H    0.998 --    55 C    0.985
   126   1 H    0.999 --    55 C    0.986
   127   1 H    0.997 --    54 C    0.984
   128   1 H    0.998 --    54 C    0.982
   129   1 H    0.998 --    54 C    0.982
   130   1 H    0.994 --     5 C    0.956
   131   1 H    0.995 --     1 C    0.957
   132   1 H    0.994 --    17 C    0.956
   133   1 H    0.993 --    15 C    0.957
   134   1 H    0.993 --    21 C    0.955
   135   1 H    0.996 --    19 C    0.955
   136   1 H    0.995 --    42 C    0.957
   137   1 H    0.994 --    44 C    0.956
   138   1 H    0.996 --    25 C    0.955
   139   1 H    0.993 --    29 C    0.955
   140   1 H    0.994 --    38 C    0.956
   141   1 H    0.993 --    40 C    0.957
 ---------------------------------------------------------------------------

Topologies differ in bond orders
Writing corrected topology to xtbtopo.mol

molecular dipole:
                 x           y           z       tot (Debye)
 q only:       -0.123      -0.181       1.201
   full:       -0.142      -0.206       1.374       3.551
molecular quadrupole (traceless):
                xx          xy          yy          xz          yz          zz
 q only:       -9.685      18.681       6.090       1.380       2.627       3.595
  q+dip:      -14.884      21.541       6.675       0.867       2.351       8.209
   full:      -13.064      22.892       0.843       0.886       0.929      12.221


           -------------------------------------------------
          | TOTAL ENERGY             -208.991431007118 Eh   |
          | GRADIENT NORM               0.044366688127 Eh/α |
          | HOMO-LUMO GAP               0.075437906529 eV   |
           -------------------------------------------------
########################################################################
[WARNING] Runtime exception occurred
-1- restart_readRestart: Number of electron missmatch in restart file.
########################################################################

------------------------------------------------------------------------
 * finished run on 2024/11/12 at 09:34:25.280     
------------------------------------------------------------------------
 total:
 * wall-time:     0 d,  0 h,  0 min,  1.088 sec
 *  cpu-time:     0 d,  0 h,  0 min,  3.662 sec
 * ratio c/w:     3.366 speedup
Note: The following floating-point exceptions are signalling: IEEE_UNDERFLOW_FLAG
normal termination of xtb
 SCF:
 * wall-time:     0 d,  0 h,  0 min,  1.070 sec
 *  cpu-time:     0 d,  0 h,  0 min,  3.622 sec
 * ratio c/w:     3.384 speedup

