      -----------------------------------------------------------      
     |                   =====================                   |     
     |                           x T B                           |     
     |                   =====================                   |     
     |                         S. Grimme                         |     
     |          Mulliken Center for Theoretical Chemistry        |     
     |                    University of Bonn                     |     
      -----------------------------------------------------------      

   * xtb version 6.6.1 (8d0f1dd) compiled by 'runner@Mac-1690902418499.local' on 2023-08-01

   xtb is free software: you can redistribute it and/or modify it under
   the terms of the GNU Lesser General Public License as published by
   the Free Software Foundation, either version 3 of the License, or
   (at your option) any later version.
   
   xtb is distributed in the hope that it will be useful,
   but WITHOUT ANY WARRANTY; without even the implied warranty of
   MERCHANTABILITY or FITNESS FOR A PARTICULAR PURPOSE.  See the
   GNU Lesser General Public License for more details.
   
   Cite this work as:
   * C. Bannwarth, E. Caldeweyher, S. Ehlert, A. Hansen, P. Pracht,
     J. Seibert, S. Spicher, S. Grimme, WIREs Comput. Mol. Sci., 2020, 11,
     e01493. DOI: 10.1002/wcms.1493
   
   for GFN2-xTB:
   * C. Bannwarth, S. Ehlert and S. Grimme., J. Chem. Theory Comput., 2019,
     15, 1652-1671. DOI: 10.1021/acs.jctc.8b01176
   for GFN1-xTB:
   * S. Grimme, C. Bannwarth, P. Shushkov, J. Chem. Theory Comput., 2017,
     13, 1989-2009. DOI: 10.1021/acs.jctc.7b00118
   for GFN0-xTB:
   * P. Pracht, E. Caldeweyher, S. Ehlert, S. Grimme, ChemRxiv, 2019, preprint.
     DOI: 10.26434/chemrxiv.8326202.v1
   for GFN-FF:
   * S. Spicher and S. Grimme, Angew. Chem. Int. Ed., 2020, 59, 15665-15673.
     DOI: 10.1002/anie.202004239
   
   for ALPB and GBSA implicit solvation:
   * S. Ehlert, M. Stahn, S. Spicher, S. Grimme, J. Chem. Theory Comput.,
     2021, 17, 4250-4261. DOI: 10.1021/acs.jctc.1c00471
   
   for DFT-D4:
   * E. Caldeweyher, C. Bannwarth and S. Grimme, J. Chem. Phys., 2017,
     147, 034112. DOI: 10.1063/1.4993215
   * E. Caldeweyher, S. Ehlert, A. Hansen, H. Neugebauer, S. Spicher,
     C. Bannwarth and S. Grimme, J. Chem. Phys., 2019, 150, 154122.
     DOI: 10.1063/1.5090222
   * E. Caldeweyher, J.-M. Mewes, S. Ehlert and S. Grimme, Phys. Chem. Chem. Phys.
     2020, 22, 8499-8512. DOI: 10.1039/D0CP00502A
   
   for sTDA-xTB:
   * S. Grimme and C. Bannwarth, J. Chem. Phys., 2016, 145, 054103.
     DOI: 10.1063/1.4959605
   
   in the mass-spec context:
   * V. Asgeirsson, C. Bauer and S. Grimme, Chem. Sci., 2017, 8, 4879.
     DOI: 10.1039/c7sc00601b
   * J. Koopman and S. Grimme, ACS Omega 2019, 4, 12, 15120-15133.
     DOI: 10.1021/acsomega.9b02011
   
   for metadynamics refer to:
   * S. Grimme, J. Chem. Theory Comput., 2019, 155, 2847-2862
     DOI: 10.1021/acs.jctc.9b00143
   
   for SPH calculations refer to:
   * S. Spicher and S. Grimme, J. Chem. Theory Comput., 2021, 17, 1701-1714
     DOI: 10.1021/acs.jctc.0c01306
   
   with help from (in alphabetical order)
   P. Atkinson, C. Bannwarth, F. Bohle, G. Brandenburg, E. Caldeweyher
   M. Checinski, S. Dohm, S. Ehlert, S. Ehrlich, I. Gerasimov, C. Hölzer
   A. Katbashev, J. Koopman, C. Lavigne, S. Lehtola, F. März, M. Müller,
   F. Musil, H. Neugebauer, J. Pisarek, C. Plett, P. Pracht, F. Pultar,
   J. Seibert, P. Shushkov, S. Spicher, M. Stahn, M. Steiner, T. Strunk,
   J. Stückrath, T. Rose, and J. Unsleber
   
 * started run on 2024/11/12 at 09:34:21.773     

           -------------------------------------------------
          |                Calculation Setup                |
           -------------------------------------------------

          program call               : xtb opt_cation_Katherine1.mol --gfn2 --sp --chrg 0 --uhf 2
          coordinate file            : opt_cation_Katherine1.mol
          omp threads                :                     8

   ID    Z sym.   atoms
    1    6 C      1-21, 25-44, 47, 52-75
    2    8 O      22, 23, 45, 46, 48-51
    3    5 B      24
    4    1 H      76-141

           -------------------------------------------------
          |                 G F N 2 - x T B                 |
           -------------------------------------------------

        Reference                      10.1021/acs.jctc.8b01176
      * Hamiltonian:
        H0-scaling (s, p, d)           1.850000    2.230000    2.230000
        zeta-weighting                 0.500000
      * Dispersion:
        s8                             2.700000
        a1                             0.520000
        a2                             5.000000
        s9                             5.000000
      * Repulsion:
        kExp                           1.500000    1.000000
        rExp                           1.000000
      * Coulomb:
        alpha                          2.000000
        third order                    shell-resolved
        anisotropic                    true
        a3                             3.000000
        a5                             4.000000
        cn-shift                       1.200000
        cn-exp                         4.000000
        max-rad                        5.000000

q/qsh data taken from xtbrestart
CAMM data taken from xtbrestart

          ...................................................
          :                      SETUP                      :
          :.................................................:
          :  # basis functions                 366          :
          :  # atomic orbitals                 366          :
          :  # shells                          216          :
          :  # electrons                       381          :
          :  max. iterations                   250          :
          :  Hamiltonian                  GFN2-xTB          :
          :  restarted?                       true          :
          :  GBSA solvation                  false          :
          :  PC potential                    false          :
          :  electronic temp.          300.0000000     K    :
          :  accuracy                    1.0000000          :
          :  -> integral cutoff          0.2500000E+02      :
          :  -> integral neglect         0.1000000E-07      :
          :  -> SCF convergence          0.1000000E-05 Eh   :
          :  -> wf. convergence          0.1000000E-03 e    :
          :  Broyden damping             0.4000000          :
          ...................................................

 iter      E             dE          RMSdq      gap      omega  full diag
   1   -212.0902901 -0.212090E+03  0.518E-01    0.09       0.0  T
   2   -212.1181911 -0.279010E-01  0.481E-01    0.11       1.0  T
   3   -212.1332581 -0.150670E-01  0.309E-01    0.12       1.0  T
   4   -212.0948300  0.384281E-01  0.418E-01    0.54       1.0  T
   5   -212.1388953 -0.440653E-01  0.185E-01    0.11       1.0  T
   6   -212.1294552  0.944010E-02  0.199E-01    0.15       1.0  T
   7   -212.1403191 -0.108640E-01  0.964E-02    0.11       1.0  T
   8   -212.1427948 -0.247561E-02  0.487E-02    0.10       1.0  T
   9   -212.1433957 -0.600983E-03  0.309E-02    0.10       1.0  T
  10   -212.1437789 -0.383152E-03  0.473E-03    0.10       1.8  T
  11   -212.1437825 -0.361059E-05  0.224E-03    0.10       3.8  T
  12   -212.1437839 -0.137711E-05  0.786E-04    0.10      10.7  T
  13   -212.1437829  0.997477E-06  0.166E-03    0.10       5.1  T
  14   -212.1437840 -0.110015E-05  0.429E-04    0.10      19.6  T
  15   -212.1437841 -0.763190E-07  0.730E-05    0.10     115.4  T
  16   -212.1437841  0.704802E-09  0.726E-05    0.10     116.1  T

   *** convergence criteria satisfied after 16 iterations ***

         #    Occupation            Energy/Eh            Energy/eV
      -------------------------------------------------------------
         1        2.0000           -0.7077146             -19.2579
       ...           ...                  ...                  ...
       185        2.0000           -0.3962546             -10.7826
       186        2.0000           -0.3904405             -10.6244
       187        2.0000           -0.3874308             -10.5425
       188        2.0000           -0.3864595             -10.5161
       189        2.0000           -0.3849520             -10.4751
       190        2.0000           -0.3840668             -10.4510
       191        0.8659           -0.3482897              -9.4774 (HOMO)
       192        0.1341           -0.3447453              -9.3810 (LUMO)
       193                         -0.2963031              -8.0628
       194                         -0.2962031              -8.0601
       195                         -0.2639701              -7.1830
       196                         -0.2626646              -7.1475
       ...                                ...                  ...
       366                          0.7314695              19.9043
      -------------------------------------------------------------
                  HL-Gap            0.0035444 Eh            0.0964 eV
             Fermi-level           -0.3562565 Eh           -9.6942 eV

 transition dipole moment (au) for excitation:         190         191
     X       Y       Z   
   0.0338   0.0538  -0.3055  total (au/Debye):    0.312   0.793
 dE (eV)             :    0.974
 oscillator strength :  0.32851E-02

 SCC (total)                   0 d,  0 h,  0 min,  1.320 sec
 SCC setup                      ...        0 min,  0.000 sec (  0.030%)
 Dispersion                     ...        0 min,  0.002 sec (  0.139%)
 classical contributions        ...        0 min,  0.000 sec (  0.026%)
 integral evaluation            ...        0 min,  0.008 sec (  0.598%)
 iterations                     ...        0 min,  1.221 sec ( 92.488%)
 molecular gradient             ...        0 min,  0.063 sec (  4.755%)
 printout                       ...        0 min,  0.026 sec (  1.964%)

         :::::::::::::::::::::::::::::::::::::::::::::::::::::
         ::                     SUMMARY                     ::
         :::::::::::::::::::::::::::::::::::::::::::::::::::::
         :: total energy            -208.993016184424 Eh    ::
         :: gradient norm              0.000615549432 Eh/a0 ::
         :: HOMO-LUMO gap              0.096448048144 eV    ::
         ::.................................................::
         :: SCC energy              -212.143784058387 Eh    ::
         :: -> isotropic ES            0.259619572930 Eh    ::
         :: -> anisotropic ES          0.002176156043 Eh    ::
         :: -> anisotropic XC          0.080095435672 Eh    ::
         :: -> dispersion             -0.199570274286 Eh    ::
         :: repulsion energy           3.146995733891 Eh    ::
         :: add. restraining           0.000000000000 Eh    ::
         :: total charge              -0.000000763505 e     ::
         :::::::::::::::::::::::::::::::::::::::::::::::::::::

           -------------------------------------------------
          |                Property Printout                |
           -------------------------------------------------

    * Orbital Energies and Occupations

         #    Occupation            Energy/Eh            Energy/eV
      -------------------------------------------------------------
         1        2.0000           -0.7077146             -19.2579
       ...           ...                  ...                  ...
       179        2.0000           -0.4109633             -11.1829
       180        2.0000           -0.4106264             -11.1737
       181        2.0000           -0.4080655             -11.1040
       182        2.0000           -0.4080161             -11.1027
       183        2.0000           -0.4033844             -10.9766
       184        2.0000           -0.3986406             -10.8476
       185        2.0000           -0.3962546             -10.7826
       186        2.0000           -0.3904405             -10.6244
       187        2.0000           -0.3874308             -10.5425
       188        2.0000           -0.3864595             -10.5161
       189        2.0000           -0.3849520             -10.4751
       190        2.0000           -0.3840668             -10.4510
       191        0.8659           -0.3482897              -9.4774 (HOMO)
       192        0.1341           -0.3447453              -9.3810 (LUMO)
       193                         -0.2963031              -8.0628
       194                         -0.2962031              -8.0601
       195                         -0.2639701              -7.1830
       196                         -0.2626646              -7.1475
       197                         -0.2445387              -6.6542
       198                         -0.2440716              -6.6415
       199                         -0.2429548              -6.6111
       200                         -0.2425406              -6.5999
       201                         -0.2332930              -6.3482
       202                         -0.2290260              -6.2321
       ...                                ...                  ...
       366                          0.7314695              19.9043
      -------------------------------------------------------------
                  HL-Gap            0.0035444 Eh            0.0964 eV
             Fermi-level           -0.3562565 Eh           -9.6942 eV

     #   Z          covCN         q      C6AA      α(0)
     1   6 C        2.926    -0.064    29.588     8.920
     2   6 C        2.856     0.185    24.038     8.036
     3   6 C        2.969    -0.012    28.315     8.728
     4   6 C        2.985    -0.017    28.428     8.746
     5   6 C        2.936    -0.034    28.839     8.807
     6   6 C        2.972     0.022    27.517     8.604
     7   6 C        2.966     0.037    27.172     8.550
     8   6 C        2.989     0.005    27.905     8.665
     9   6 C        2.983    -0.016    28.414     8.744
    10   6 C        2.840     0.225    23.270     7.905
    11   6 C        2.971    -0.013    28.323     8.730
    12   6 C        2.982    -0.022    28.548     8.764
    13   6 C        2.839     0.222    23.330     7.916
    14   6 C        2.981    -0.015    28.390     8.740
    15   6 C        2.930    -0.024    28.603     8.771
    16   6 C        2.971     0.019    27.575     8.614
    17   6 C        2.933    -0.020    28.496     8.755
    18   6 C        2.859     0.177    24.193     8.062
    19   6 C        2.928    -0.056    29.386     8.890
    20   6 C        2.971     0.022    27.520     8.605
    21   6 C        2.936    -0.035    28.878     8.813
    22   8 O        1.633    -0.379    20.464     6.106
    23   8 O        1.640    -0.392    20.704     6.142
    24   5 B        3.184     0.625    13.261     6.073
    25   6 C        2.928    -0.056    29.389     8.890
    26   6 C        2.860     0.178    24.188     8.061
    27   6 C        2.971    -0.012    28.310     8.728
    28   6 C        2.982    -0.022    28.547     8.764
    29   6 C        2.936    -0.035    28.873     8.812
    30   6 C        2.971     0.022    27.517     8.604
    31   6 C        2.966     0.037    27.161     8.548
    32   6 C        2.989     0.005    27.905     8.665
    33   6 C        2.982    -0.015    28.390     8.740
    34   6 C        2.969    -0.012    28.306     8.727
    35   6 C        2.984    -0.017    28.431     8.747
    36   6 C        2.840     0.225    23.272     7.906
    37   6 C        2.983    -0.016    28.411     8.743
    38   6 C        2.933    -0.020    28.497     8.755
    39   6 C        2.971     0.019    27.574     8.613
    40   6 C        2.930    -0.024    28.602     8.771
    41   6 C        2.856     0.186    24.034     8.035
    42   6 C        2.926    -0.063    29.570     8.918
    43   6 C        2.971     0.022    27.512     8.604
    44   6 C        2.936    -0.033    28.819     8.804
    45   8 O        1.633    -0.381    20.500     6.112
    46   8 O        1.640    -0.393    20.728     6.146
    47   6 C        2.839     0.222    23.327     7.915
    48   8 O        0.857    -0.380    21.281     6.185
    49   8 O        0.858    -0.383    21.339     6.193
    50   8 O        0.857    -0.380    21.277     6.184
    51   8 O        0.858    -0.383    21.345     6.194
    52   6 C        3.902     0.029    20.030     6.362
    53   6 C        3.760    -0.114    22.722     6.795
    54   6 C        3.760    -0.113    22.706     6.793
    55   6 C        3.766    -0.107    22.581     6.773
    56   6 C        3.903     0.028    20.049     6.365
    57   6 C        3.761    -0.113    22.718     6.795
    58   6 C        3.763    -0.107    22.580     6.773
    59   6 C        3.761    -0.107    22.596     6.776
    60   6 C        3.903     0.027    20.058     6.366
    61   6 C        3.762    -0.109    22.631     6.781
    62   6 C        3.761    -0.112    22.696     6.791
    63   6 C        3.762    -0.109    22.622     6.780
    64   6 C        3.903     0.028    20.049     6.365
    65   6 C        3.761    -0.107    22.599     6.777
    66   6 C        3.764    -0.106    22.576     6.773
    67   6 C        3.761    -0.113    22.718     6.795
    68   6 C        3.903     0.029    20.032     6.362
    69   6 C        3.766    -0.107    22.585     6.774
    70   6 C        3.760    -0.112    22.696     6.792
    71   6 C        3.760    -0.113    22.716     6.794
    72   6 C        3.903     0.027    20.058     6.366
    73   6 C        3.762    -0.109    22.621     6.780
    74   6 C        3.761    -0.112    22.696     6.791
    75   6 C        3.762    -0.109    22.633     6.782
    76   1 H        0.925     0.042     2.423     2.434
    77   1 H        0.925     0.040     2.443     2.444
    78   1 H        0.925     0.042     2.422     2.434
    79   1 H        0.925     0.044     2.392     2.418
    80   1 H        0.925     0.037     2.491     2.468
    81   1 H        0.925     0.042     2.423     2.434
    82   1 H        0.925     0.044     2.402     2.424
    83   1 H        0.925     0.043     2.406     2.426
    84   1 H        0.925     0.037     2.485     2.465
    85   1 H        0.925     0.043     2.407     2.426
    86   1 H        0.925     0.042     2.416     2.431
    87   1 H        0.925     0.044     2.398     2.422
    88   1 H        0.925     0.042     2.422     2.434
    89   1 H        0.925     0.039     2.458     2.452
    90   1 H        0.925     0.045     2.387     2.416
    91   1 H        0.925     0.048     2.346     2.395
    92   1 H        0.925     0.039     2.456     2.451
    93   1 H        0.925     0.038     2.482     2.464
    94   1 H        0.925     0.044     2.399     2.422
    95   1 H        0.925     0.039     2.467     2.456
    96   1 H        0.925     0.039     2.462     2.453
    97   1 H        0.925     0.043     2.416     2.431
    98   1 H        0.925     0.043     2.407     2.426
    99   1 H        0.925     0.042     2.416     2.431
   100   1 H        0.925     0.043     2.411     2.428
   101   1 H        0.925     0.039     2.463     2.454
   102   1 H        0.925     0.039     2.463     2.454
   103   1 H        0.925     0.044     2.392     2.419
   104   1 H        0.925     0.037     2.492     2.469
   105   1 H        0.925     0.042     2.423     2.434
   106   1 H        0.925     0.042     2.423     2.434
   107   1 H        0.925     0.041     2.442     2.444
   108   1 H        0.925     0.042     2.422     2.434
   109   1 H        0.925     0.044     2.402     2.424
   110   1 H        0.925     0.043     2.407     2.426
   111   1 H        0.925     0.037     2.485     2.465
   112   1 H        0.925     0.043     2.416     2.431
   113   1 H        0.925     0.039     2.459     2.452
   114   1 H        0.925     0.039     2.461     2.453
   115   1 H        0.925     0.044     2.398     2.422
   116   1 H        0.925     0.039     2.466     2.456
   117   1 H        0.925     0.039     2.458     2.452
   118   1 H        0.925     0.043     2.416     2.431
   119   1 H        0.925     0.043     2.404     2.425
   120   1 H        0.925     0.042     2.417     2.431
   121   1 H        0.925     0.042     2.422     2.434
   122   1 H        0.925     0.039     2.458     2.452
   123   1 H        0.925     0.045     2.377     2.411
   124   1 H        0.925     0.048     2.343     2.394
   125   1 H        0.925     0.039     2.463     2.454
   126   1 H        0.925     0.038     2.480     2.463
   127   1 H        0.925     0.043     2.409     2.427
   128   1 H        0.925     0.043     2.405     2.425
   129   1 H        0.925     0.043     2.403     2.424
   130   1 H        0.926     0.071     2.069     2.250
   131   1 H        0.926     0.066     2.134     2.284
   132   1 H        0.926     0.069     2.093     2.263
   133   1 H        0.926     0.076     2.024     2.225
   134   1 H        0.926     0.080     1.979     2.200
   135   1 H        0.926     0.055     2.252     2.347
   136   1 H        0.926     0.066     2.134     2.284
   137   1 H        0.926     0.071     2.071     2.250
   138   1 H        0.926     0.055     2.255     2.348
   139   1 H        0.926     0.080     1.980     2.201
   140   1 H        0.926     0.069     2.093     2.262
   141   1 H        0.926     0.076     2.025     2.225

 Mol. C6AA /au·bohr⁶  :     224006.454248
 Mol. C8AA /au·bohr⁸  :    5400795.699439
 Mol. α(0) /au        :        735.070740


Wiberg/Mayer (AO) data.
largest (>0.10) Wiberg bond orders for each atom

 ---------------------------------------------------------------------------
     #   Z sym  total        # sym  WBO       # sym  WBO       # sym  WBO
 ---------------------------------------------------------------------------
     1   6 C    3.971 --     6 C    1.455     2 C    1.321   131 H    0.957
     2   6 C    3.890 --     1 C    1.321     3 C    1.197    22 O    1.179
     3   6 C    3.973 --     7 C    1.290     4 C    1.224     2 C    1.197
     4   6 C    3.961 --     5 C    1.477     3 C    1.224    10 C    1.030
     5   6 C    3.951 --     4 C    1.477     6 C    1.310   130 H    0.957
     6   6 C    3.933 --     1 C    1.455     5 C    1.310    52 C    0.990
     7   6 C    3.873 --     3 C    1.290    11 C    1.189     8 C    1.157
     8   6 C    3.980 --    14 C    1.302     9 C    1.285     7 C    1.157
     9   6 C    3.965 --    17 C    1.407     8 C    1.285    10 C    1.043
    10   6 C    3.929 --    50 O    1.747     9 C    1.043     4 C    1.030
    11   6 C    3.978 --    12 C    1.262    18 C    1.257     7 C    1.189
    12   6 C    3.965 --    21 C    1.424    11 C    1.262    13 C    1.047
    13   6 C    3.929 --    51 O    1.737    12 C    1.047    14 C    1.037
    14   6 C    3.960 --    15 C    1.396     8 C    1.302    13 C    1.037
    15   6 C    3.979 --    16 C    1.403    14 C    1.396   133 H    0.957
    16   6 C    3.950 --    15 C    1.403    17 C    1.388    60 C    0.987
    17   6 C    3.980 --     9 C    1.407    16 C    1.388   132 H    0.957
    18   6 C    3.908 --    19 C    1.354    11 C    1.257    23 O    1.104
    19   6 C    3.976 --    20 C    1.426    18 C    1.354   135 H    0.957
    20   6 C    3.948 --    19 C    1.426    21 C    1.362    56 C    0.987
    21   6 C    3.958 --    12 C    1.424    20 C    1.362   134 H    0.955
    22   8 O    2.188 --     2 C    1.179    24 B    0.745
    23   8 O    2.177 --    18 C    1.104    24 B    0.836
    24   5 B    3.300 --    23 O    0.836    46 O    0.834    22 O    0.745
                            45 O    0.743
    25   6 C    3.977 --    30 C    1.427    26 C    1.354   138 H    0.956
    26   6 C    3.908 --    25 C    1.354    27 C    1.257    46 O    1.103
    27   6 C    3.978 --    28 C    1.261    26 C    1.257    31 C    1.190
    28   6 C    3.965 --    29 C    1.425    27 C    1.261    47 C    1.047
    29   6 C    3.958 --    28 C    1.425    30 C    1.362   139 H    0.955
    30   6 C    3.948 --    25 C    1.427    29 C    1.362    64 C    0.987
    31   6 C    3.873 --    34 C    1.288    27 C    1.190    32 C    1.157
    32   6 C    3.980 --    33 C    1.302    37 C    1.285    31 C    1.157
    33   6 C    3.960 --    40 C    1.396    32 C    1.302    47 C    1.037
    34   6 C    3.973 --    31 C    1.288    35 C    1.225    41 C    1.199
    35   6 C    3.962 --    44 C    1.477    34 C    1.225    36 C    1.030
    36   6 C    3.929 --    48 O    1.746    37 C    1.043    35 C    1.030
    37   6 C    3.965 --    38 C    1.407    32 C    1.285    36 C    1.043
    38   6 C    3.980 --    37 C    1.407    39 C    1.388   140 H    0.957
    39   6 C    3.950 --    40 C    1.403    38 C    1.388    72 C    0.987
    40   6 C    3.979 --    39 C    1.403    33 C    1.396   141 H    0.957
    41   6 C    3.890 --    42 C    1.321    34 C    1.199    45 O    1.176
    42   6 C    3.972 --    43 C    1.456    41 C    1.321   136 H    0.958
    43   6 C    3.934 --    42 C    1.456    44 C    1.310    68 C    0.990
    44   6 C    3.952 --    35 C    1.477    43 C    1.310   137 H    0.957
    45   8 O    2.182 --    41 C    1.176    24 B    0.743
    46   8 O    2.173 --    26 C    1.103    24 B    0.834
    47   6 C    3.929 --    49 O    1.738    28 C    1.047    33 C    1.037
    48   8 O    2.009 --    36 C    1.746
    49   8 O    2.003 --    47 C    1.738
    50   8 O    2.009 --    10 C    1.747
    51   8 O    2.003 --    13 C    1.737
    52   6 C    3.988 --    53 C    0.998    54 C    0.992     6 C    0.990
                            55 C    0.971
    53   6 C    3.994 --    52 C    0.998   121 H    0.984   122 H    0.983
                           123 H    0.980
    54   6 C    3.992 --    52 C    0.992   127 H    0.984   128 H    0.982
                           129 H    0.982
    55   6 C    3.986 --   126 H    0.986   125 H    0.986   124 H    0.981
                            52 C    0.971
    56   6 C    3.989 --    57 C    1.000    20 C    0.987    59 C    0.987
                            58 C    0.980
    57   6 C    3.994 --    56 C    1.000    99 H    0.985    97 H    0.984
                            98 H    0.984
    58   6 C    3.991 --    96 H    0.986    94 H    0.983    95 H    0.981
                            56 C    0.980
    59   6 C    3.992 --    56 C    0.987   101 H    0.986   100 H    0.984
                           102 H    0.977
    60   6 C    3.989 --    62 C    1.000    16 C    0.987    61 C    0.984
                            63 C    0.982
    61   6 C    3.992 --   111 H    0.987    60 C    0.984   109 H    0.984
                           110 H    0.983
    62   6 C    3.995 --    60 C    1.000   107 H    0.985   106 H    0.984
                           108 H    0.984
    63   6 C    3.991 --   104 H    0.987   103 H    0.983   105 H    0.983
                            60 C    0.982
    64   6 C    3.989 --    67 C    0.999    65 C    0.988    30 C    0.987
                            66 C    0.979
    65   6 C    3.993 --    64 C    0.988   113 H    0.986   112 H    0.984
                           114 H    0.977
    66   6 C    3.991 --   117 H    0.986   115 H    0.983   116 H    0.981
                            64 C    0.979
    67   6 C    3.994 --    64 C    0.999   120 H    0.985   118 H    0.984
                           119 H    0.983
    68   6 C    3.988 --    71 C    0.999    70 C    0.991    43 C    0.990
                            69 C    0.972
    69   6 C    3.986 --    93 H    0.986    92 H    0.985    91 H    0.981
                            68 C    0.972
    70   6 C    3.992 --    68 C    0.991    85 H    0.984    86 H    0.982
                            87 H    0.982
    71   6 C    3.994 --    68 C    0.999    88 H    0.984    89 H    0.983
                            90 H    0.979
    72   6 C    3.989 --    74 C    1.000    39 C    0.987    75 C    0.985
                            73 C    0.982
    73   6 C    3.991 --    80 H    0.987    81 H    0.983    79 H    0.983
                            72 C    0.982
    74   6 C    3.995 --    72 C    1.000    77 H    0.985    76 H    0.984
                            78 H    0.984
    75   6 C    3.992 --    84 H    0.987    72 C    0.985    82 H    0.984
                            83 H    0.983
    76   1 H    0.998 --    74 C    0.984
    77   1 H    0.998 --    74 C    0.985
    78   1 H    0.998 --    74 C    0.984
    79   1 H    0.997 --    73 C    0.983
    80   1 H    0.999 --    73 C    0.987
    81   1 H    0.998 --    73 C    0.983
    82   1 H    0.997 --    75 C    0.984
    83   1 H    0.998 --    75 C    0.983
    84   1 H    0.999 --    75 C    0.987
    85   1 H    0.997 --    70 C    0.984
    86   1 H    0.998 --    70 C    0.982
    87   1 H    0.998 --    70 C    0.982
    88   1 H    0.998 --    71 C    0.984
    89   1 H    0.998 --    71 C    0.983
    90   1 H    0.998 --    71 C    0.979
    91   1 H    0.995 --    69 C    0.981
    92   1 H    0.998 --    69 C    0.985
    93   1 H    0.999 --    69 C    0.986
    94   1 H    0.997 --    58 C    0.983
    95   1 H    0.998 --    58 C    0.981
    96   1 H    0.998 --    58 C    0.986
    97   1 H    0.998 --    57 C    0.984
    98   1 H    0.998 --    57 C    0.984
    99   1 H    0.998 --    57 C    0.985
   100   1 H    0.997 --    59 C    0.984
   101   1 H    0.998 --    59 C    0.986
   102   1 H    0.998 --    59 C    0.977
   103   1 H    0.997 --    63 C    0.983
   104   1 H    0.999 --    63 C    0.987
   105   1 H    0.998 --    63 C    0.983
   106   1 H    0.998 --    62 C    0.984
   107   1 H    0.998 --    62 C    0.985
   108   1 H    0.998 --    62 C    0.984
   109   1 H    0.997 --    61 C    0.984
   110   1 H    0.998 --    61 C    0.983
   111   1 H    0.999 --    61 C    0.987
   112   1 H    0.997 --    65 C    0.984
   113   1 H    0.998 --    65 C    0.986
   114   1 H    0.998 --    65 C    0.977
   115   1 H    0.997 --    66 C    0.983
   116   1 H    0.998 --    66 C    0.981
   117   1 H    0.998 --    66 C    0.986
   118   1 H    0.998 --    67 C    0.984
   119   1 H    0.998 --    67 C    0.983
   120   1 H    0.998 --    67 C    0.985
   121   1 H    0.998 --    53 C    0.984
   122   1 H    0.998 --    53 C    0.983
   123   1 H    0.998 --    53 C    0.980
   124   1 H    0.995 --    55 C    0.981
   125   1 H    0.998 --    55 C    0.986
   126   1 H    0.999 --    55 C    0.986
   127   1 H    0.997 --    54 C    0.984
   128   1 H    0.998 --    54 C    0.982
   129   1 H    0.998 --    54 C    0.982
   130   1 H    0.994 --     5 C    0.957
   131   1 H    0.995 --     1 C    0.957
   132   1 H    0.994 --    17 C    0.957
   133   1 H    0.994 --    15 C    0.957
   134   1 H    0.993 --    21 C    0.955
   135   1 H    0.996 --    19 C    0.957
   136   1 H    0.995 --    42 C    0.958
   137   1 H    0.994 --    44 C    0.957
   138   1 H    0.996 --    25 C    0.956
   139   1 H    0.993 --    29 C    0.955
   140   1 H    0.994 --    38 C    0.957
   141   1 H    0.994 --    40 C    0.957
 ---------------------------------------------------------------------------

Topologies differ in bond orders
Writing corrected topology to xtbtopo.mol

molecular dipole:
                 x           y           z       tot (Debye)
 q only:       -0.136      -0.186       1.175
   full:       -0.158      -0.210       1.358       3.516
molecular quadrupole (traceless):
                xx          xy          yy          xz          yz          zz
 q only:       -9.451      19.990       7.351       1.416       3.509       2.100
  q+dip:      -14.511      23.186       7.931       0.979       3.338       6.580
   full:      -12.603      24.558       2.074       1.031       1.870      10.529


           -------------------------------------------------
          | TOTAL ENERGY             -208.993016184424 Eh   |
          | GRADIENT NORM               0.000615549432 Eh/α |
          | HOMO-LUMO GAP               0.096448048144 eV   |
           -------------------------------------------------
########################################################################
[WARNING] Runtime exception occurred
-1- restart_readRestart: Number of electron missmatch in restart file.
########################################################################

------------------------------------------------------------------------
 * finished run on 2024/11/12 at 09:34:23.112     
------------------------------------------------------------------------
 total:
 * wall-time:     0 d,  0 h,  0 min,  1.338 sec
 *  cpu-time:     0 d,  0 h,  0 min,  4.570 sec
 * ratio c/w:     3.415 speedup
 SCF:
 * wall-time:     0 d,  0 h,  0 min,  1.321 sec
 *  cpu-time:     0 d,  0 h,  0 min,  4.530 sec
 * ratio c/w:     3.429 speedup
Note: The following floating-point exceptions are signalling: IEEE_UNDERFLOW_FLAG
normal termination of xtb

