      -----------------------------------------------------------      
     |                   =====================                   |     
     |                           x T B                           |     
     |                   =====================                   |     
     |                         S. Grimme                         |     
     |          Mulliken Center for Theoretical Chemistry        |     
     |                    University of Bonn                     |     
      -----------------------------------------------------------      

   * xtb version 6.6.1 (8d0f1dd) compiled by 'runner@Mac-1690902418499.local' on 2023-08-01

   xtb is free software: you can redistribute it and/or modify it under
   the terms of the GNU Lesser General Public License as published by
   the Free Software Foundation, either version 3 of the License, or
   (at your option) any later version.
   
   xtb is distributed in the hope that it will be useful,
   but WITHOUT ANY WARRANTY; without even the implied warranty of
   MERCHANTABILITY or FITNESS FOR A PARTICULAR PURPOSE.  See the
   GNU Lesser General Public License for more details.
   
   Cite this work as:
   * C. Bannwarth, E. Caldeweyher, S. Ehlert, A. Hansen, P. Pracht,
     J. Seibert, S. Spicher, S. Grimme, WIREs Comput. Mol. Sci., 2020, 11,
     e01493. DOI: 10.1002/wcms.1493
   
   for GFN2-xTB:
   * C. Bannwarth, S. Ehlert and S. Grimme., J. Chem. Theory Comput., 2019,
     15, 1652-1671. DOI: 10.1021/acs.jctc.8b01176
   for GFN1-xTB:
   * S. Grimme, C. Bannwarth, P. Shushkov, J. Chem. Theory Comput., 2017,
     13, 1989-2009. DOI: 10.1021/acs.jctc.7b00118
   for GFN0-xTB:
   * P. Pracht, E. Caldeweyher, S. Ehlert, S. Grimme, ChemRxiv, 2019, preprint.
     DOI: 10.26434/chemrxiv.8326202.v1
   for GFN-FF:
   * S. Spicher and S. Grimme, Angew. Chem. Int. Ed., 2020, 59, 15665-15673.
     DOI: 10.1002/anie.202004239
   
   for ALPB and GBSA implicit solvation:
   * S. Ehlert, M. Stahn, S. Spicher, S. Grimme, J. Chem. Theory Comput.,
     2021, 17, 4250-4261. DOI: 10.1021/acs.jctc.1c00471
   
   for DFT-D4:
   * E. Caldeweyher, C. Bannwarth and S. Grimme, J. Chem. Phys., 2017,
     147, 034112. DOI: 10.1063/1.4993215
   * E. Caldeweyher, S. Ehlert, A. Hansen, H. Neugebauer, S. Spicher,
     C. Bannwarth and S. Grimme, J. Chem. Phys., 2019, 150, 154122.
     DOI: 10.1063/1.5090222
   * E. Caldeweyher, J.-M. Mewes, S. Ehlert and S. Grimme, Phys. Chem. Chem. Phys.
     2020, 22, 8499-8512. DOI: 10.1039/D0CP00502A
   
   for sTDA-xTB:
   * S. Grimme and C. Bannwarth, J. Chem. Phys., 2016, 145, 054103.
     DOI: 10.1063/1.4959605
   
   in the mass-spec context:
   * V. Asgeirsson, C. Bauer and S. Grimme, Chem. Sci., 2017, 8, 4879.
     DOI: 10.1039/c7sc00601b
   * J. Koopman and S. Grimme, ACS Omega 2019, 4, 12, 15120-15133.
     DOI: 10.1021/acsomega.9b02011
   
   for metadynamics refer to:
   * S. Grimme, J. Chem. Theory Comput., 2019, 155, 2847-2862
     DOI: 10.1021/acs.jctc.9b00143
   
   for SPH calculations refer to:
   * S. Spicher and S. Grimme, J. Chem. Theory Comput., 2021, 17, 1701-1714
     DOI: 10.1021/acs.jctc.0c01306
   
   with help from (in alphabetical order)
   P. Atkinson, C. Bannwarth, F. Bohle, G. Brandenburg, E. Caldeweyher
   M. Checinski, S. Dohm, S. Ehlert, S. Ehrlich, I. Gerasimov, C. Hölzer
   A. Katbashev, J. Koopman, C. Lavigne, S. Lehtola, F. März, M. Müller,
   F. Musil, H. Neugebauer, J. Pisarek, C. Plett, P. Pracht, F. Pultar,
   J. Seibert, P. Shushkov, S. Spicher, M. Stahn, M. Steiner, T. Strunk,
   J. Stückrath, T. Rose, and J. Unsleber
   
 * started run on 2024/11/12 at 09:32:31.356     

           -------------------------------------------------
          |                Calculation Setup                |
           -------------------------------------------------

          program call               : xtb Katherine1.mol --opt --gfn2 --chrg 0 --uhf 2 --tight
          coordinate file            : Katherine1.mol
          omp threads                :                     8

   ID    Z sym.   atoms
    1    6 C      1-21, 25-44, 47, 52-75
    2    8 O      22, 23, 45, 46, 48-51
    3    5 B      24
    4    1 H      76-141
########################################################################
[WARNING] Please study the warnings concerning your input carefully
-2- prog_main: Charge in sdf/mol input was overwritten
-1- prog_main_parseArguments: Unknown option '--tight' provided
########################################################################

           -------------------------------------------------
          |                 G F N 2 - x T B                 |
           -------------------------------------------------

        Reference                      10.1021/acs.jctc.8b01176
      * Hamiltonian:
        H0-scaling (s, p, d)           1.850000    2.230000    2.230000
        zeta-weighting                 0.500000
      * Dispersion:
        s8                             2.700000
        a1                             0.520000
        a2                             5.000000
        s9                             5.000000
      * Repulsion:
        kExp                           1.500000    1.000000
        rExp                           1.000000
      * Coulomb:
        alpha                          2.000000
        third order                    shell-resolved
        anisotropic                    true
        a3                             3.000000
        a5                             4.000000
        cn-shift                       1.200000
        cn-exp                         4.000000
        max-rad                        5.000000

q/qsh data taken from xtbrestart
CAMM data taken from xtbrestart

          ...................................................
          :                      SETUP                      :
          :.................................................:
          :  # basis functions                 366          :
          :  # atomic orbitals                 366          :
          :  # shells                          216          :
          :  # electrons                       381          :
          :  max. iterations                   250          :
          :  Hamiltonian                  GFN2-xTB          :
          :  restarted?                       true          :
          :  GBSA solvation                  false          :
          :  PC potential                    false          :
          :  electronic temp.          300.0000000     K    :
          :  accuracy                    1.0000000          :
          :  -> integral cutoff          0.2500000E+02      :
          :  -> integral neglect         0.1000000E-07      :
          :  -> SCF convergence          0.1000000E-05 Eh   :
          :  -> wf. convergence          0.1000000E-03 e    :
          :  Broyden damping             0.4000000          :
          ...................................................

 iter      E             dE          RMSdq      gap      omega  full diag
   1   -211.5965689 -0.211597E+03  0.213E+00    0.09       0.0  T
   2   -211.6201044 -0.235355E-01  0.129E+00    0.10       1.0  T
   3   -211.4275074  0.192597E+00  0.916E-01    0.37       1.0  T
   4   -211.5323875 -0.104880E+00  0.634E-01    0.65       1.0  T
   5   -211.5971072 -0.647197E-01  0.385E-01    0.19       1.0  T
   6   -211.6005770 -0.346982E-02  0.347E-01    0.22       1.0  T
   7   -211.6320656 -0.314886E-01  0.122E-01    0.10       1.0  T
   8   -211.6327470 -0.681359E-03  0.112E-01    0.10       1.0  T
   9   -211.6369539 -0.420696E-02  0.121E-02    0.09       1.0  T
  10   -211.6369598 -0.585746E-05  0.589E-03    0.09       1.4  T
  11   -211.6369464  0.134267E-04  0.735E-03    0.09       1.1  T
  12   -211.6369636 -0.172329E-04  0.142E-03    0.09       5.9  T
  13   -211.6369641 -0.467547E-06  0.520E-04    0.09      16.2  T
  14   -211.6369641  0.372160E-08  0.394E-04    0.09      21.4  T

   *** convergence criteria satisfied after 14 iterations ***

         #    Occupation            Energy/Eh            Energy/eV
      -------------------------------------------------------------
         1        2.0000           -0.7050510             -19.1854
       ...           ...                  ...                  ...
       185        2.0000           -0.3952343             -10.7549
       186        2.0000           -0.3936871             -10.7128
       187        2.0000           -0.3921570             -10.6711
       188        2.0000           -0.3897918             -10.6068
       189        2.0000           -0.3863660             -10.5136
       190        2.0000           -0.3857704             -10.4973
       191        0.8405           -0.3564120              -9.6985 (HOMO)
       192        0.1595           -0.3532540              -9.6125 (LUMO)
       193                         -0.3020635              -8.2196
       194                         -0.3019289              -8.2159
       195                         -0.2772148              -7.5434
       196                         -0.2760549              -7.5118
       ...                                ...                  ...
       366                          0.6847351              18.6326
      -------------------------------------------------------------
                  HL-Gap            0.0031580 Eh            0.0859 eV
             Fermi-level           -0.3628664 Eh           -9.8741 eV

 transition dipole moment (au) for excitation:         190         191
     X       Y       Z   
   0.2782  -0.4217  -0.0329  total (au/Debye):    0.506   1.287
 dE (eV)             :    0.799
 oscillator strength :  0.70930E-02

 SCC (total)                   0 d,  0 h,  0 min,  1.487 sec
 SCC setup                      ...        0 min,  0.000 sec (  0.030%)
 Dispersion                     ...        0 min,  0.002 sec (  0.115%)
 classical contributions        ...        0 min,  0.000 sec (  0.024%)
 integral evaluation            ...        0 min,  0.008 sec (  0.519%)
 iterations                     ...        0 min,  1.387 sec ( 93.288%)
 molecular gradient             ...        0 min,  0.063 sec (  4.259%)
 printout                       ...        0 min,  0.026 sec (  1.763%)

         :::::::::::::::::::::::::::::::::::::::::::::::::::::
         ::                     SUMMARY                     ::
         :::::::::::::::::::::::::::::::::::::::::::::::::::::
         :: total energy            -208.824720615567 Eh    ::
         :: gradient norm              0.243722523034 Eh/a0 ::
         :: HOMO-LUMO gap              0.085933746656 eV    ::
         ::.................................................::
         :: SCC energy              -211.636964058115 Eh    ::
         :: -> isotropic ES            0.266279387875 Eh    ::
         :: -> anisotropic ES          0.005657033077 Eh    ::
         :: -> anisotropic XC          0.088696753645 Eh    ::
         :: -> dispersion             -0.197841108736 Eh    ::
         :: repulsion energy           2.809545101069 Eh    ::
         :: add. restraining           0.000000000000 Eh    ::
         :: total charge               0.000012277439 e     ::
         :::::::::::::::::::::::::::::::::::::::::::::::::::::

      ----------------------------------------------------------- 
     |                   =====================                   |
     |                        A N C O P T                        |
     |                   =====================                   |
     |               Approximate Normal Coordinate               |
     |                Rational Function Optimizer                |
      ----------------------------------------------------------- 

          ...................................................
          :                      SETUP                      :
          :.................................................:
          :   optimization level            normal          :
          :   max. optcycles                   423          :
          :   ANC micro-cycles                  20          :
          :   degrees of freedom               417          :
          :.................................................:
          :   RF solver                   davidson          :
          :   write xtbopt.log                true          :
          :   linear?                        false          :
          :   energy convergence         0.5000000E-05 Eh   :
          :   grad. convergence          0.1000000E-02 Eh/α :
          :   maxmium RF displ.          1.0000000          :
          :   Hlow (freq-cutoff)         0.1000000E-01      :
          :   Hmax (freq-cutoff)         5.0000000          :
          :   S6 in model hess.         20.0000000          :
          ...................................................

generating ANC from model Hessian ...
Using Lindh-Hessian (1995)
 Shifting diagonal of input Hessian by    9.9764937549160059E-003
 Lowest  eigenvalues of input Hessian
    0.000000    0.000000    0.000000    0.000000    0.000000    0.000000
    0.010000    0.010007    0.010017    0.010101    0.010130    0.010327
    0.010334    0.010393    0.010520    0.010634    0.010735    0.010762
 Highest eigenvalues
    1.991352    1.993532    2.194924    2.196996    2.223459    2.224925


........................................................................
.............................. CYCLE    1 ..............................
........................................................................

 iter      E             dE          RMSdq      gap      omega  full diag
   1   -211.6369641 -0.211637E+03  0.265E-04    0.09       0.0  T
   2   -211.6369609  0.316947E-05  0.313E-03    0.09       2.7  T
   3   -211.6369641 -0.319056E-05  0.764E-05    0.09     110.2  T
   4   -211.6369641 -0.103316E-08  0.508E-05    0.09     165.6  T
   5   -211.6369641 -0.604814E-09  0.155E-05    0.09     542.6  T
     SCC iter.                  ...        0 min,  0.345 sec
     gradient                   ...        0 min,  0.066 sec
 * total energy  :  -208.8247207 Eh     change       -0.4083225E-07 Eh
   gradient norm :     0.2437191 Eh/α   predicted     0.0000000E+00 (-100.00%)
   displ. norm   :     0.5703272 α      lambda       -0.1117673E+00
   maximum displ.:     0.2135383 α      in ANC's #162, #241, #224, ...

........................................................................
.............................. CYCLE    2 ..............................
........................................................................

 iter      E             dE          RMSdq      gap      omega  full diag
   1   -211.8360095 -0.211836E+03  0.278E-01    0.09       0.0  T
   2   -211.8348719  0.113761E-02  0.188E-01    0.10       1.0  T
   3   -211.7917786  0.430933E-01  0.387E-01    0.32       1.0  T
   4   -211.8187076 -0.269291E-01  0.236E-01    0.14       1.0  T
   5   -211.8287382 -0.100306E-01  0.154E-01    0.12       1.0  T
   6   -211.8372031 -0.846483E-02  0.193E-02    0.09       1.0  T
   7   -211.8372500 -0.469383E-04  0.125E-02    0.09       1.0  T
   8   -211.8372711 -0.210785E-04  0.827E-03    0.09       1.0  T
   9   -211.8372911 -0.200743E-04  0.262E-03    0.09       3.2  T
  10   -211.8372932 -0.202852E-05  0.596E-04    0.09      14.1  T
  11   -211.8372932 -0.716255E-07  0.202E-04    0.09      41.8  T
  12   -211.8372932 -0.149444E-08  0.130E-04    0.09      65.0  T
     SCC iter.                  ...        0 min,  1.202 sec
     gradient                   ...        0 min,  0.075 sec
 * total energy  :  -208.9063312 Eh     change       -0.8161056E-01 Eh
   gradient norm :     0.1296482 Eh/α   predicted    -0.7407763E-01 (  -9.23%)
   displ. norm   :     0.5638650 α      lambda       -0.5251240E-01
   maximum displ.:     0.2127462 α      in ANC's #154, #90, #162, ...

........................................................................
.............................. CYCLE    3 ..............................
........................................................................

 iter      E             dE          RMSdq      gap      omega  full diag
   1   -211.9823011 -0.211982E+03  0.202E-01    0.11       0.0  T
   2   -211.9822867  0.143779E-04  0.139E-01    0.11       1.0  T
   3   -211.9648366  0.174501E-01  0.231E-01    0.17       1.0  T
   4   -211.9609409  0.389574E-02  0.248E-01    0.20       1.0  T
   5   -211.9837834 -0.228425E-01  0.162E-02    0.11       1.0  T
   6   -211.9838148 -0.313763E-04  0.599E-03    0.11       1.4  T
   7   -211.9838178 -0.294085E-05  0.275E-03    0.11       3.1  T
   8   -211.9838177  0.761139E-07  0.157E-03    0.11       5.4  T
   9   -211.9838178 -0.130576E-06  0.774E-04    0.11      10.9  T
  10   -211.9838179 -0.115566E-06  0.246E-04    0.11      34.2  T
     SCC iter.                  ...        0 min,  0.761 sec
     gradient                   ...        0 min,  0.060 sec
 * total energy  :  -208.9397073 Eh     change       -0.3337606E-01 Eh
   gradient norm :     0.0400770 Eh/α   predicted    -0.3460426E-01 (   3.68%)
   displ. norm   :     0.5639741 α      lambda       -0.1497841E-01
   maximum displ.:     0.1673269 α      in ANC's #90, #30, #36, ...

........................................................................
.............................. CYCLE    4 ..............................
........................................................................

 iter      E             dE          RMSdq      gap      omega  full diag
   1   -212.0295704 -0.212030E+03  0.155E-01    0.11       0.0  T
   2   -212.0295265  0.439188E-04  0.928E-02    0.11       1.0  T
   3   -212.0171732  0.123533E-01  0.181E-01    0.15       1.0  T
   4   -212.0186503 -0.147710E-02  0.168E-01    0.15       1.0  T
   5   -212.0297435 -0.110932E-01  0.100E-02    0.11       1.0  T
   6   -212.0297665 -0.230438E-04  0.306E-03    0.11       2.7  T
   7   -212.0297679 -0.142833E-05  0.128E-03    0.11       6.6  T
   8   -212.0297679  0.975348E-09  0.603E-04    0.11      14.0  T
   9   -212.0297680 -0.260231E-07  0.295E-04    0.11      28.6  T
     SCC iter.                  ...        0 min,  0.628 sec
     gradient                   ...        0 min,  0.064 sec
 * total energy  :  -208.9508253 Eh     change       -0.1111802E-01 Eh
   gradient norm :     0.0243410 Eh/α   predicted    -0.9871271E-02 ( -11.21%)
   displ. norm   :     0.6210030 α      lambda       -0.8470842E-02
   maximum displ.:     0.2355304 α      in ANC's #30, #21, #36, ...

........................................................................
.............................. CYCLE    5 ..............................
........................................................................

 iter      E             dE          RMSdq      gap      omega  full diag
   1   -212.0660170 -0.212066E+03  0.136E-01    0.11       0.0  T
   2   -212.0660048  0.121155E-04  0.807E-02    0.11       1.0  T
   3   -212.0587776  0.722721E-02  0.135E-01    0.13       1.0  T
   4   -212.0588568 -0.791781E-04  0.134E-01    0.13       1.0  T
   5   -212.0660863 -0.722948E-02  0.562E-03    0.11       1.5  T
   6   -212.0660920 -0.566374E-05  0.209E-03    0.11       4.0  T
   7   -212.0660924 -0.435144E-06  0.103E-03    0.11       8.2  T
   8   -212.0660924 -0.225987E-07  0.407E-04    0.11      20.7  T
   9   -212.0660924 -0.108473E-07  0.189E-04    0.11      44.7  T
     SCC iter.                  ...        0 min,  0.477 sec
     gradient                   ...        0 min,  0.060 sec
 * total energy  :  -208.9572522 Eh     change       -0.6426851E-02 Eh
   gradient norm :     0.0179693 Eh/α   predicted    -0.5868796E-02 (  -8.68%)
   displ. norm   :     0.6153614 α      lambda       -0.4828766E-02
   maximum displ.:     0.2530610 α      in ANC's #21, #30, #33, ...

........................................................................
.............................. CYCLE    6 ..............................
........................................................................

 iter      E             dE          RMSdq      gap      omega  full diag
   1   -212.0879974 -0.212088E+03  0.113E-01    0.11       0.0  T
   2   -212.0879916  0.578787E-05  0.671E-02    0.11       1.0  T
   3   -212.0813549  0.663675E-02  0.128E-01    0.13       1.0  T
   4   -212.0848338 -0.347886E-02  0.893E-02    0.12       1.0  T
   5   -212.0880348 -0.320101E-02  0.479E-03    0.11       1.8  T
   6   -212.0880397 -0.493717E-05  0.196E-03    0.11       4.3  T
   7   -212.0880403 -0.552600E-06  0.855E-04    0.11       9.8  T
   8   -212.0880403 -0.313932E-07  0.364E-04    0.11      23.1  T
     SCC iter.                  ...        0 min,  0.429 sec
     gradient                   ...        0 min,  0.064 sec
 * total energy  :  -208.9609305 Eh     change       -0.3678395E-02 Eh
   gradient norm :     0.0100218 Eh/α   predicted    -0.3328643E-02 (  -9.51%)
   displ. norm   :     0.6226552 α      lambda       -0.3044002E-02
   maximum displ.:     0.3201316 α      in ANC's #21, #30, #33, ...

........................................................................
.............................. CYCLE    7 ..............................
........................................................................

 iter      E             dE          RMSdq      gap      omega  full diag
   1   -212.1020355 -0.212102E+03  0.928E-02    0.10       0.0  T
   2   -212.1020416 -0.609765E-05  0.547E-02    0.10       1.0  T
   3   -212.1015457  0.495976E-03  0.361E-02    0.10       1.0  T
   4   -212.0997588  0.178691E-02  0.740E-02    0.11       1.0  T
   5   -212.1020482 -0.228948E-02  0.260E-03    0.10       3.2  T
   6   -212.1020492 -0.100820E-05  0.127E-03    0.10       6.6  T
   7   -212.1020494 -0.135555E-06  0.611E-04    0.10      13.8  T
   8   -212.1020494 -0.104647E-07  0.259E-04    0.10      32.5  T
     SCC iter.                  ...        0 min,  0.579 sec
     gradient                   ...        0 min,  0.062 sec
 * total energy  :  -208.9633170 Eh     change       -0.2386424E-02 Eh
   gradient norm :     0.0123141 Eh/α   predicted    -0.2112086E-02 ( -11.50%)
   displ. norm   :     0.6508285 α      lambda       -0.2386264E-02
   maximum displ.:     0.3647252 α      in ANC's #21, #30, #3, ...

........................................................................
.............................. CYCLE    8 ..............................
........................................................................

 iter      E             dE          RMSdq      gap      omega  full diag
   1   -212.1120296 -0.212112E+03  0.803E-02    0.10       0.0  T
   2   -212.1120502 -0.205867E-04  0.477E-02    0.10       1.0  T
   3   -212.1119422  0.107923E-03  0.197E-02    0.10       1.0  T
   4   -212.1103087  0.163355E-02  0.645E-02    0.10       1.0  T
   5   -212.1120414 -0.173276E-02  0.615E-03    0.10       1.4  T
   6   -212.1120545 -0.130868E-04  0.118E-03    0.10       7.1  T
   7   -212.1120547 -0.162400E-06  0.632E-04    0.10      13.3  T
   8   -212.1120547 -0.193449E-07  0.293E-04    0.10      28.8  T
     SCC iter.                  ...        0 min,  0.687 sec
     gradient                   ...        0 min,  0.081 sec
 * total energy  :  -208.9652490 Eh     change       -0.1932040E-02 Eh
   gradient norm :     0.0099189 Eh/α   predicted    -0.1698517E-02 ( -12.09%)
   displ. norm   :     0.6778962 α      lambda       -0.2077770E-02
   maximum displ.:     0.3698959 α      in ANC's #21, #6, #3, ...

........................................................................
.............................. CYCLE    9 ..............................
........................................................................

 iter      E             dE          RMSdq      gap      omega  full diag
   1   -212.1133334 -0.212113E+03  0.824E-02    0.10       0.0  T
   2   -212.1133343 -0.890429E-06  0.490E-02    0.10       1.0  T
   3   -212.1120418  0.129250E-02  0.565E-02    0.10       1.0  T
   4   -212.1117618  0.280039E-03  0.620E-02    0.10       1.0  T
   5   -212.1133430 -0.158120E-02  0.240E-03    0.10       3.5  T
   6   -212.1133439 -0.969024E-06  0.104E-03    0.10       8.1  T
   7   -212.1133440 -0.468045E-07  0.600E-04    0.10      14.0  T
   8   -212.1133440 -0.123770E-07  0.292E-04    0.10      28.9  T
     SCC iter.                  ...        0 min,  0.642 sec
     gradient                   ...        0 min,  0.063 sec
 * total energy  :  -208.9669972 Eh     change       -0.1748216E-02 Eh
   gradient norm :     0.0113122 Eh/α   predicted    -0.1516303E-02 ( -13.27%)
   displ. norm   :     0.7241515 α      lambda       -0.2006173E-02
   maximum displ.:     0.3752265 α      in ANC's #21, #6, #3, ...

........................................................................
.............................. CYCLE   10 ..............................
........................................................................

 iter      E             dE          RMSdq      gap      omega  full diag
   1   -212.1168852 -0.212117E+03  0.808E-02    0.09       0.0  T
   2   -212.1168644  0.208477E-04  0.487E-02    0.09       1.0  T
   3   -212.1076416  0.922281E-02  0.150E-01    0.12       1.0  T
   4   -212.1161425 -0.850090E-02  0.450E-02    0.09       1.0  T
   5   -212.1169070 -0.764494E-03  0.478E-03    0.09       1.8  T
   6   -212.1169134 -0.640858E-05  0.124E-03    0.09       6.8  T
   7   -212.1169135 -0.145503E-06  0.709E-04    0.09      11.9  T
   8   -212.1169135 -0.214281E-07  0.325E-04    0.09      25.9  T
     SCC iter.                  ...        0 min,  0.475 sec
     gradient                   ...        0 min,  0.063 sec
 * total energy  :  -208.9686867 Eh     change       -0.1689493E-02 Eh
   gradient norm :     0.0084505 Eh/α   predicted    -0.1529110E-02 (  -9.49%)
   displ. norm   :     0.7454554 α      lambda       -0.1753539E-02
   maximum displ.:     0.3446422 α      in ANC's #21, #6, #3, ...

........................................................................
.............................. CYCLE   11 ..............................
........................................................................

 iter      E             dE          RMSdq      gap      omega  full diag
   1   -212.1143314 -0.212114E+03  0.829E-02    0.09       0.0  T
   2   -212.1143058  0.255831E-04  0.498E-02    0.09       1.0  T
   3   -212.1055263  0.877953E-02  0.147E-01    0.12       1.0  T
   4   -212.1136578 -0.813147E-02  0.415E-02    0.09       1.0  T
   5   -212.1143394 -0.681691E-03  0.367E-03    0.09       2.3  T
   6   -212.1143438 -0.440636E-05  0.110E-03    0.09       7.6  T
   7   -212.1143439 -0.493870E-07  0.634E-04    0.09      13.3  T
   8   -212.1143439 -0.138041E-07  0.306E-04    0.09      27.5  T
     SCC iter.                  ...        0 min,  0.525 sec
     gradient                   ...        0 min,  0.063 sec
 * total energy  :  -208.9701640 Eh     change       -0.1477295E-02 Eh
   gradient norm :     0.0077983 Eh/α   predicted    -0.1364010E-02 (  -7.67%)
   displ. norm   :     0.7274161 α      lambda       -0.1475531E-02
   maximum displ.:     0.3228154 α      in ANC's #3, #6, #21, ...

........................................................................
.............................. CYCLE   12 ..............................
........................................................................

 iter      E             dE          RMSdq      gap      omega  full diag
   1   -212.1177582 -0.212118E+03  0.737E-02    0.09       0.0  T
   2   -212.1175612  0.196951E-03  0.487E-02    0.10       1.0  T
   3   -212.0982957  0.192655E-01  0.218E-01    0.17       1.0  T
   4   -212.1177362 -0.194404E-01  0.125E-02    0.09       1.0  T
   5   -212.1177666 -0.304851E-04  0.491E-03    0.09       1.7  T
   6   -212.1177741 -0.741956E-05  0.150E-03    0.09       5.6  T
   7   -212.1177746 -0.541981E-06  0.733E-04    0.09      11.5  T
   8   -212.1177747 -0.513816E-07  0.367E-04    0.09      22.9  T
     SCC iter.                  ...        0 min,  0.520 sec
     gradient                   ...        0 min,  0.067 sec
 * total energy  :  -208.9714127 Eh     change       -0.1248661E-02 Eh
   gradient norm :     0.0082407 Eh/α   predicted    -0.1128147E-02 (  -9.65%)
   displ. norm   :     0.7183540 α      lambda       -0.1261021E-02
   maximum displ.:     0.3446435 α      in ANC's #3, #6, #21, ...

........................................................................
.............................. CYCLE   13 ..............................
........................................................................

 iter      E             dE          RMSdq      gap      omega  full diag
   1   -212.1195728 -0.212120E+03  0.683E-02    0.10       0.0  T
   2   -212.1184282  0.114461E-02  0.671E-02    0.10       1.0  T
   3   -212.1062464  0.121818E-01  0.181E-01    0.14       1.0  T
   4   -212.1195408 -0.132943E-01  0.132E-02    0.10       1.0  T
   5   -212.1195921 -0.513589E-04  0.438E-03    0.10       1.9  T
   6   -212.1195986 -0.650664E-05  0.124E-03    0.10       6.8  T
   7   -212.1195989 -0.300138E-06  0.686E-04    0.10      12.3  T
   8   -212.1195990 -0.427682E-07  0.349E-04    0.10      24.1  T
     SCC iter.                  ...        0 min,  0.559 sec
     gradient                   ...        0 min,  0.064 sec
 * total energy  :  -208.9724789 Eh     change       -0.1066244E-02 Eh
   gradient norm :     0.0084292 Eh/α   predicted    -0.9558791E-03 ( -10.35%)
   displ. norm   :     0.7114426 α      lambda       -0.1143420E-02
   maximum displ.:     0.3661364 α      in ANC's #3, #6, #12, ...

........................................................................
.............................. CYCLE   14 ..............................
........................................................................

 iter      E             dE          RMSdq      gap      omega  full diag
   1   -212.1226671 -0.212123E+03  0.671E-02    0.10       0.0  T
   2   -212.1188273  0.383974E-02  0.105E-01    0.11       1.0  T
   3   -212.1168395  0.198780E-02  0.123E-01    0.12       1.0  T
   4   -212.1227199 -0.588034E-02  0.107E-02    0.10       1.0  T
   5   -212.1227433 -0.233808E-04  0.371E-03    0.10       2.3  T
   6   -212.1227470 -0.373194E-05  0.106E-03    0.10       8.0  T
   7   -212.1227471 -0.110220E-06  0.602E-04    0.10      14.0  T
   8   -212.1227471 -0.130985E-07  0.294E-04    0.10      28.6  T
     SCC iter.                  ...        0 min,  0.592 sec
     gradient                   ...        0 min,  0.066 sec
 * total energy  :  -208.9733572 Eh     change       -0.8782828E-03 Eh
   gradient norm :     0.0127251 Eh/α   predicted    -0.8610826E-03 (  -1.96%)
   displ. norm   :     0.6653489 α      lambda       -0.1010502E-02
   maximum displ.:     0.3618691 α      in ANC's #3, #6, #12, ...

........................................................................
.............................. CYCLE   15 ..............................
........................................................................

 iter      E             dE          RMSdq      gap      omega  full diag
   1   -212.1271784 -0.212127E+03  0.611E-02    0.10       0.0  T
   2   -212.1231854  0.399297E-02  0.106E-01    0.11       1.0  T
   3   -212.1236440 -0.458541E-03  0.975E-02    0.11       1.0  T
   4   -212.1272273 -0.358329E-02  0.115E-02    0.10       1.0  T
   5   -212.1272579 -0.306516E-04  0.315E-03    0.10       2.7  T
   6   -212.1272600 -0.208720E-05  0.988E-04    0.10       8.5  T
   7   -212.1272601 -0.104425E-06  0.548E-04    0.10      15.4  T
   8   -212.1272601 -0.118154E-07  0.292E-04    0.10      28.8  T
     SCC iter.                  ...        0 min,  0.467 sec
     gradient                   ...        0 min,  0.067 sec
 * total energy  :  -208.9741359 Eh     change       -0.7787218E-03 Eh
   gradient norm :     0.0087755 Eh/α   predicted    -0.7289245E-03 (  -6.39%)
   displ. norm   :     0.6202466 α      lambda       -0.7382117E-03
   maximum displ.:     0.3545133 α      in ANC's #3, #6, #12, ...

........................................................................
.............................. CYCLE   16 ..............................
........................................................................

 iter      E             dE          RMSdq      gap      omega  full diag
   1   -212.1273939 -0.212127E+03  0.543E-02    0.10       0.0  T
   2   -212.1273431  0.508304E-04  0.344E-02    0.10       1.0  T
   3   -212.1165938  0.107493E-01  0.160E-01    0.14       1.0  T
   4   -212.1273837 -0.107899E-01  0.778E-03    0.10       1.1  T
   5   -212.1273983 -0.145599E-04  0.142E-03    0.10       5.9  T
   6   -212.1273986 -0.371930E-06  0.623E-04    0.10      13.5  T
   7   -212.1273987 -0.346042E-07  0.337E-04    0.10      25.0  T
     SCC iter.                  ...        0 min,  0.421 sec
     gradient                   ...        0 min,  0.063 sec
 * total energy  :  -208.9747605 Eh     change       -0.6246003E-03 Eh
   gradient norm :     0.0072863 Eh/α   predicted    -0.5111090E-03 ( -18.17%)
   displ. norm   :     0.5929998 α      lambda       -0.6830072E-03
   maximum displ.:     0.3609978 α      in ANC's #3, #6, #1, ...

........................................................................
.............................. CYCLE   17 ..............................
........................................................................

 iter      E             dE          RMSdq      gap      omega  full diag
   1   -212.1295453 -0.212130E+03  0.502E-02    0.10       0.0  T
   2   -212.1293260  0.219350E-03  0.377E-02    0.10       1.0  T
   3   -212.1175978  0.117282E-01  0.169E-01    0.14       1.0  T
   4   -212.1295380 -0.119402E-01  0.707E-03    0.10       1.2  T
   5   -212.1295509 -0.128738E-04  0.166E-03    0.10       5.1  T
   6   -212.1295516 -0.684466E-06  0.613E-04    0.10      13.7  T
   7   -212.1295516 -0.437891E-07  0.314E-04    0.10      26.8  T
     SCC iter.                  ...        0 min,  0.489 sec
     gradient                   ...        0 min,  0.063 sec
 * total energy  :  -208.9753303 Eh     change       -0.5697612E-03 Eh
   gradient norm :     0.0055547 Eh/α   predicted    -0.4615951E-03 ( -18.98%)
   displ. norm   :     0.5643197 α      lambda       -0.5828299E-03
   maximum displ.:     0.3640664 α      in ANC's #3, #6, #1, ...

........................................................................
.............................. CYCLE   18 ..............................
........................................................................

 iter      E             dE          RMSdq      gap      omega  full diag
   1   -212.1317555 -0.212132E+03  0.445E-02    0.10       0.0  T
   2   -212.1317560 -0.521543E-06  0.264E-02    0.10       1.0  T
   3   -212.1313489  0.407122E-03  0.318E-02    0.10       1.0  T
   4   -212.1313537 -0.487210E-05  0.309E-02    0.10       1.0  T
   5   -212.1317580 -0.404296E-03  0.148E-03    0.10       5.7  T
   6   -212.1317586 -0.605384E-06  0.564E-04    0.10      14.9  T
   7   -212.1317587 -0.214823E-07  0.306E-04    0.10      27.6  T
     SCC iter.                  ...        0 min,  0.484 sec
     gradient                   ...        0 min,  0.065 sec
 * total energy  :  -208.9758167 Eh     change       -0.4864187E-03 Eh
   gradient norm :     0.0047433 Eh/α   predicted    -0.3842216E-03 ( -21.01%)
   displ. norm   :     0.5077605 α      lambda       -0.4560268E-03
   maximum displ.:     0.3427294 α      in ANC's #3, #6, #1, ...

........................................................................
.............................. CYCLE   19 ..............................
........................................................................

 iter      E             dE          RMSdq      gap      omega  full diag
   1   -212.1312478 -0.212131E+03  0.360E-02    0.10       0.0  T
   2   -212.1312477  0.305786E-07  0.214E-02    0.10       1.0  T
   3   -212.1307476  0.500139E-03  0.343E-02    0.10       1.0  T
   4   -212.1310992 -0.351569E-03  0.193E-02    0.10       1.0  T
   5   -212.1312495 -0.150369E-03  0.111E-03    0.10       7.6  T
   6   -212.1312498 -0.272441E-06  0.507E-04    0.10      16.6  T
   7   -212.1312498 -0.268274E-07  0.236E-04    0.10      35.7  T
     SCC iter.                  ...        0 min,  0.494 sec
     gradient                   ...        0 min,  0.064 sec
 * total energy  :  -208.9762143 Eh     change       -0.3976053E-03 Eh
   gradient norm :     0.0042811 Eh/α   predicted    -0.2868027E-03 ( -27.87%)
   displ. norm   :     0.4557978 α      lambda       -0.4004758E-03
   maximum displ.:     0.3188207 α      in ANC's #3, #1, #6, ...

........................................................................
.............................. CYCLE   20 ..............................
........................................................................

 iter      E             dE          RMSdq      gap      omega  full diag
   1   -212.1321925 -0.212132E+03  0.289E-02    0.10       0.0  T
   2   -212.1321933 -0.771162E-06  0.171E-02    0.10       1.0  T
   3   -212.1321872  0.607669E-05  0.561E-03    0.10       1.5  T
   4   -212.1321880 -0.782176E-06  0.384E-03    0.10       2.2  T
   5   -212.1321885 -0.477655E-06  0.362E-03    0.10       2.3  T
   6   -212.1321940 -0.553849E-05  0.425E-04    0.10      19.8  T
   7   -212.1321940 -0.218647E-07  0.183E-04    0.10      46.0  T
   8   -212.1321940 -0.815049E-09  0.872E-05    0.10      96.6  T
     SCC iter.                  ...        0 min,  0.491 sec
     gradient                   ...        0 min,  0.063 sec
 * total energy  :  -208.9765764 Eh     change       -0.3620402E-03 Eh
   gradient norm :     0.0042333 Eh/α   predicted    -0.2418401E-03 ( -33.20%)
   displ. norm   :     0.4592644 α      lambda       -0.4183788E-03
   maximum displ.:     0.3257885 α      in ANC's #3, #1, #6, ...
 * RMSD in coord.:     0.8038722 α      energy gain  -0.1518557E+00 Eh

generating ANC from model Hessian ...
Using Lindh-Hessian (1995)
 Shifting diagonal of input Hessian by    9.9637641174880037E-003
 Lowest  eigenvalues of input Hessian
    0.000000    0.000000    0.000000    0.000000    0.000000    0.000000
    0.010000    0.010024    0.010029    0.010106    0.010148    0.010383
    0.010407    0.010461    0.010607    0.010705    0.010798    0.010836
 Highest eigenvalues
    2.085343    2.087369    2.245699    2.246989    2.265315    2.266326


........................................................................
.............................. CYCLE   21 ..............................
........................................................................

 iter      E             dE          RMSdq      gap      omega  full diag
   1   -212.1322685 -0.212132E+03  0.272E-02    0.10       0.0  T
   2   -212.1321935  0.750089E-04  0.210E-02    0.10       1.0  T
   3   -212.1277714  0.442206E-02  0.103E-01    0.11       1.0  T
   4   -212.1322685 -0.449712E-02  0.328E-03    0.10       2.6  T
   5   -212.1322707 -0.214122E-05  0.687E-04    0.10      12.3  T
   6   -212.1322707 -0.492333E-07  0.384E-04    0.10      21.9  T
   7   -212.1322707 -0.228461E-07  0.189E-04    0.10      44.6  T
     SCC iter.                  ...        0 min,  0.380 sec
     gradient                   ...        0 min,  0.060 sec
 * total energy  :  -208.9769585 Eh     change       -0.3821526E-03 Eh
   gradient norm :     0.0048156 Eh/α   predicted     0.0000000E+00 (-100.00%)
   displ. norm   :     0.1049596 α      lambda       -0.1464996E-03
   maximum displ.:     0.0884131 α      in ANC's #3, #24, #13, ...

........................................................................
.............................. CYCLE   22 ..............................
........................................................................

 iter      E             dE          RMSdq      gap      omega  full diag
   1   -212.1320276 -0.212132E+03  0.114E-02    0.10       0.0  T
   2   -212.1320218  0.579397E-05  0.775E-03    0.10       1.1  T
   3   -212.1311636  0.858206E-03  0.450E-02    0.10       1.0  T
   4   -212.1320266 -0.863051E-03  0.213E-03    0.10       4.0  T
   5   -212.1320280 -0.134897E-05  0.378E-04    0.10      22.3  T
   6   -212.1320280 -0.248773E-07  0.181E-04    0.10      46.5  T
   7   -212.1320280 -0.317107E-08  0.967E-05    0.10      87.1  T
     SCC iter.                  ...        0 min,  0.464 sec
     gradient                   ...        0 min,  0.063 sec
 * total energy  :  -208.9770986 Eh     change       -0.1401433E-03 Eh
   gradient norm :     0.0031843 Eh/α   predicted    -0.7609861E-04 ( -45.70%)
   displ. norm   :     0.2465457 α      lambda       -0.3063257E-03
   maximum displ.:     0.1863143 α      in ANC's #3, #24, #13, ...

........................................................................
.............................. CYCLE   23 ..............................
........................................................................

 iter      E             dE          RMSdq      gap      omega  full diag
   1   -212.1317054 -0.212132E+03  0.280E-02    0.10       0.0  T
   2   -212.1317058 -0.378656E-06  0.165E-02    0.10       1.0  T
   3   -212.1315281  0.177697E-03  0.206E-02    0.10       1.0  T
   4   -212.1315870 -0.588891E-04  0.169E-02    0.10       1.0  T
   5   -212.1317066 -0.119627E-03  0.726E-04    0.10      11.6  T
   6   -212.1317067 -0.840369E-07  0.390E-04    0.10      21.6  T
   7   -212.1317067 -0.120327E-07  0.202E-04    0.10      41.7  T
     SCC iter.                  ...        0 min,  0.460 sec
     gradient                   ...        0 min,  0.062 sec
 * total energy  :  -208.9773672 Eh     change       -0.2685298E-03 Eh
   gradient norm :     0.0024838 Eh/α   predicted    -0.1624783E-03 ( -39.49%)
   displ. norm   :     0.3515752 α      lambda       -0.3435936E-03
   maximum displ.:     0.2623921 α      in ANC's #3, #24, #13, ...

........................................................................
.............................. CYCLE   24 ..............................
........................................................................

 iter      E             dE          RMSdq      gap      omega  full diag
   1   -212.1312429 -0.212131E+03  0.380E-02    0.10       0.0  T
   2   -212.1312200  0.228929E-04  0.236E-02    0.10       1.0  T
   3   -212.1254475  0.577243E-02  0.117E-01    0.12       1.0  T
   4   -212.1312370 -0.578946E-02  0.573E-03    0.10       1.5  T
   5   -212.1312450 -0.794297E-05  0.939E-04    0.10       9.0  T
   6   -212.1312451 -0.157738E-06  0.522E-04    0.10      16.1  T
   7   -212.1312451 -0.230892E-07  0.258E-04    0.10      32.7  T
     SCC iter.                  ...        0 min,  0.650 sec
     gradient                   ...        0 min,  0.059 sec
 * total energy  :  -208.9776622 Eh     change       -0.2950637E-03 Eh
   gradient norm :     0.0040177 Eh/α   predicted    -0.1930328E-03 ( -34.58%)
   displ. norm   :     0.3411222 α      lambda       -0.2760486E-03
   maximum displ.:     0.2571996 α      in ANC's #3, #13, #24, ...

........................................................................
.............................. CYCLE   25 ..............................
........................................................................

 iter      E             dE          RMSdq      gap      omega  full diag
   1   -212.1310170 -0.212131E+03  0.341E-02    0.10       0.0  T
   2   -212.1309892  0.277855E-04  0.217E-02    0.10       1.0  T
   3   -212.1254393  0.554990E-02  0.115E-01    0.12       1.0  T
   4   -212.1310121 -0.557282E-02  0.545E-03    0.10       1.5  T
   5   -212.1310189 -0.679284E-05  0.856E-04    0.10       9.8  T
   6   -212.1310191 -0.139482E-06  0.451E-04    0.10      18.7  T
   7   -212.1310191 -0.167096E-07  0.221E-04    0.10      38.1  T
     SCC iter.                  ...        0 min,  0.391 sec
     gradient                   ...        0 min,  0.065 sec
 * total energy  :  -208.9779106 Eh     change       -0.2483670E-03 Eh
   gradient norm :     0.0048223 Eh/α   predicted    -0.1540858E-03 ( -37.96%)
   displ. norm   :     0.3001212 α      lambda       -0.2401211E-03
   maximum displ.:     0.2278978 α      in ANC's #3, #13, #1, ...

........................................................................
.............................. CYCLE   26 ..............................
........................................................................

 iter      E             dE          RMSdq      gap      omega  full diag
   1   -212.1313426 -0.212131E+03  0.272E-02    0.10       0.0  T
   2   -212.1313091  0.335441E-04  0.184E-02    0.10       1.0  T
   3   -212.1270347  0.427441E-02  0.101E-01    0.11       1.0  T
   4   -212.1313388 -0.430411E-02  0.498E-03    0.10       1.7  T
   5   -212.1313444 -0.562829E-05  0.730E-04    0.10      11.5  T
   6   -212.1313445 -0.954884E-07  0.361E-04    0.10      23.3  T
   7   -212.1313445 -0.120015E-07  0.181E-04    0.10      46.4  T
     SCC iter.                  ...        0 min,  0.538 sec
     gradient                   ...        0 min,  0.065 sec
 * total energy  :  -208.9781361 Eh     change       -0.2254872E-03 Eh
   gradient norm :     0.0045339 Eh/α   predicted    -0.1308755E-03 ( -41.96%)
   displ. norm   :     0.2988911 α      lambda       -0.2533831E-03
   maximum displ.:     0.2272116 α      in ANC's #3, #13, #1, ...

........................................................................
.............................. CYCLE   27 ..............................
........................................................................

 iter      E             dE          RMSdq      gap      omega  full diag
   1   -212.1319177 -0.212132E+03  0.248E-02    0.10       0.0  T
   2   -212.1318875  0.301657E-04  0.170E-02    0.10       1.0  T
   3   -212.1282883  0.359926E-02  0.928E-02    0.11       1.0  T
   4   -212.1319136 -0.362534E-02  0.495E-03    0.10       1.7  T
   5   -212.1319195 -0.589911E-05  0.710E-04    0.10      11.9  T
   6   -212.1319196 -0.858315E-07  0.334E-04    0.10      25.2  T
   7   -212.1319196 -0.108326E-07  0.170E-04    0.10      49.4  T
     SCC iter.                  ...        0 min,  0.395 sec
     gradient                   ...        0 min,  0.062 sec
 * total energy  :  -208.9783751 Eh     change       -0.2390479E-03 Eh
   gradient norm :     0.0037321 Eh/α   predicted    -0.1380099E-03 ( -42.27%)
   displ. norm   :     0.3300144 α      lambda       -0.2795233E-03
   maximum displ.:     0.2506784 α      in ANC's #3, #1, #13, ...

........................................................................
.............................. CYCLE   28 ..............................
........................................................................

 iter      E             dE          RMSdq      gap      omega  full diag
   1   -212.1323961 -0.212132E+03  0.256E-02    0.10       0.0  T
   2   -212.1323709  0.251948E-04  0.171E-02    0.10       1.0  T
   3   -212.1286253  0.374562E-02  0.946E-02    0.11       1.0  T
   4   -212.1323930 -0.376771E-02  0.451E-03    0.10       1.9  T
   5   -212.1323979 -0.490197E-05  0.751E-04    0.10      11.2  T
   6   -212.1323980 -0.978833E-07  0.339E-04    0.10      24.8  T
   7   -212.1323980 -0.105280E-07  0.184E-04    0.10      45.9  T
     SCC iter.                  ...        0 min,  0.410 sec
     gradient                   ...        0 min,  0.064 sec
 * total energy  :  -208.9786368 Eh     change       -0.2616231E-03 Eh
   gradient norm :     0.0030473 Eh/α   predicted    -0.1549833E-03 ( -40.76%)
   displ. norm   :     0.3540741 α      lambda       -0.2841310E-03
   maximum displ.:     0.2692834 α      in ANC's #3, #1, #13, ...

........................................................................
.............................. CYCLE   29 ..............................
........................................................................

 iter      E             dE          RMSdq      gap      omega  full diag
   1   -212.1326919 -0.212133E+03  0.258E-02    0.10       0.0  T
   2   -212.1326822  0.961527E-05  0.160E-02    0.10       1.0  T
   3   -212.1299416  0.274060E-02  0.807E-02    0.11       1.0  T
   4   -212.1326882 -0.274657E-02  0.427E-03    0.10       2.0  T
   5   -212.1326933 -0.504942E-05  0.744E-04    0.10      11.3  T
   6   -212.1326934 -0.936564E-07  0.333E-04    0.10      25.3  T
   7   -212.1326934 -0.890114E-08  0.198E-04    0.10      42.5  T
     SCC iter.                  ...        0 min,  0.450 sec
     gradient                   ...        0 min,  0.059 sec
 * total energy  :  -208.9789030 Eh     change       -0.2661884E-03 Eh
   gradient norm :     0.0028839 Eh/α   predicted    -0.1598798E-03 ( -39.94%)
   displ. norm   :     0.3537704 α      lambda       -0.2686971E-03
   maximum displ.:     0.2694217 α      in ANC's #3, #1, #13, ...

........................................................................
.............................. CYCLE   30 ..............................
........................................................................

 iter      E             dE          RMSdq      gap      omega  full diag
   1   -212.1329275 -0.212133E+03  0.241E-02    0.10       0.0  T
   2   -212.1329259  0.158181E-05  0.144E-02    0.10       1.0  T
   3   -212.1320534  0.872546E-03  0.455E-02    0.10       1.0  T
   4   -212.1329147 -0.861279E-03  0.621E-03    0.10       1.4  T
   5   -212.1329285 -0.138708E-04  0.729E-04    0.10      11.6  T
   6   -212.1329286 -0.840023E-07  0.350E-04    0.10      24.1  T
   7   -212.1329286 -0.120697E-07  0.198E-04    0.10      42.5  T
     SCC iter.                  ...        0 min,  0.366 sec
     gradient                   ...        0 min,  0.063 sec
 * total energy  :  -208.9791576 Eh     change       -0.2546875E-03 Eh
   gradient norm :     0.0029572 Eh/α   predicted    -0.1511691E-03 ( -40.65%)
   displ. norm   :     0.3422987 α      lambda       -0.2541414E-03
   maximum displ.:     0.2605049 α      in ANC's #3, #1, #8, ...

........................................................................
.............................. CYCLE   31 ..............................
........................................................................

 iter      E             dE          RMSdq      gap      omega  full diag
   1   -212.1331158 -0.212133E+03  0.216E-02    0.10       0.0  T
   2   -212.1331162 -0.438899E-06  0.127E-02    0.10       1.0  T
   3   -212.1331027  0.135635E-04  0.653E-03    0.10       1.3  T
   4   -212.1330171  0.856250E-04  0.153E-02    0.10       1.0  T
   5   -212.1331164 -0.993375E-04  0.971E-04    0.10       8.7  T
   6   -212.1331167 -0.283438E-06  0.321E-04    0.10      26.2  T
   7   -212.1331167 -0.957590E-08  0.173E-04    0.10      48.6  T
     SCC iter.                  ...        0 min,  0.358 sec
     gradient                   ...        0 min,  0.064 sec
 * total energy  :  -208.9794016 Eh     change       -0.2439554E-03 Eh
   gradient norm :     0.0029193 Eh/α   predicted    -0.1419593E-03 ( -41.81%)
   displ. norm   :     0.3398193 α      lambda       -0.2529590E-03
   maximum displ.:     0.2574115 α      in ANC's #3, #1, #8, ...

........................................................................
.............................. CYCLE   32 ..............................
........................................................................

 iter      E             dE          RMSdq      gap      omega  full diag
   1   -212.1332496 -0.212133E+03  0.198E-02    0.10       0.0  T
   2   -212.1332491  0.413185E-06  0.117E-02    0.10       1.0  T
   3   -212.1329629  0.286208E-03  0.263E-02    0.10       1.0  T
   4   -212.1332075 -0.244548E-03  0.103E-02    0.10       1.0  T
   5   -212.1332503 -0.428208E-04  0.590E-04    0.10      14.3  T
   6   -212.1332504 -0.544119E-07  0.285E-04    0.10      29.5  T
   7   -212.1332504 -0.635498E-08  0.154E-04    0.10      54.5  T
     SCC iter.                  ...        0 min,  0.367 sec
     gradient                   ...        0 min,  0.063 sec
 * total energy  :  -208.9796466 Eh     change       -0.2449768E-03 Eh
   gradient norm :     0.0027721 Eh/α   predicted    -0.1410902E-03 ( -42.41%)
   displ. norm   :     0.3555170 α      lambda       -0.2670899E-03
   maximum displ.:     0.2672187 α      in ANC's #3, #1, #8, ...

........................................................................
.............................. CYCLE   33 ..............................
........................................................................

 iter      E             dE          RMSdq      gap      omega  full diag
   1   -212.1332709 -0.212133E+03  0.194E-02    0.10       0.0  T
   2   -212.1332697  0.118343E-05  0.116E-02    0.10       1.0  T
   3   -212.1327477  0.521925E-03  0.353E-02    0.10       1.0  T
   4   -212.1332460 -0.498224E-03  0.816E-03    0.10       1.0  T
   5   -212.1332716 -0.256025E-04  0.583E-04    0.10      14.4  T
   6   -212.1332716 -0.559757E-07  0.262E-04    0.10      32.1  T
   7   -212.1332716 -0.406510E-08  0.144E-04    0.10      58.5  T
     SCC iter.                  ...        0 min,  0.377 sec
     gradient                   ...        0 min,  0.061 sec
 * total energy  :  -208.9799060 Eh     change       -0.2594670E-03 Eh
   gradient norm :     0.0026209 Eh/α   predicted    -0.1504258E-03 ( -42.03%)
   displ. norm   :     0.3869733 α      lambda       -0.2911752E-03
   maximum displ.:     0.2883166 α      in ANC's #3, #1, #8, ...

........................................................................
.............................. CYCLE   34 ..............................
........................................................................

 iter      E             dE          RMSdq      gap      omega  full diag
   1   -212.1332146 -0.212133E+03  0.201E-02    0.10       0.0  T
   2   -212.1332142  0.432041E-06  0.119E-02    0.10       1.0  T
   3   -212.1329298  0.284423E-03  0.261E-02    0.10       1.0  T
   4   -212.1331784 -0.248658E-03  0.955E-03    0.10       1.0  T
   5   -212.1332153 -0.368298E-04  0.616E-04    0.10      13.7  T
   6   -212.1332153 -0.733858E-07  0.253E-04    0.10      33.3  T
   7   -212.1332153 -0.220624E-08  0.141E-04    0.10      59.9  T
     SCC iter.                  ...        0 min,  0.426 sec
     gradient                   ...        0 min,  0.060 sec
 * total energy  :  -208.9801890 Eh     change       -0.2829122E-03 Eh
   gradient norm :     0.0025927 Eh/α   predicted    -0.1673904E-03 ( -40.83%)
   displ. norm   :     0.4257896 α      lambda       -0.3175965E-03
   maximum displ.:     0.3147767 α      in ANC's #3, #1, #8, ...

........................................................................
.............................. CYCLE   35 ..............................
........................................................................

 iter      E             dE          RMSdq      gap      omega  full diag
   1   -212.1331194 -0.212133E+03  0.214E-02    0.10       0.0  T
   2   -212.1331197 -0.244184E-06  0.126E-02    0.10       1.0  T
   3   -212.1330865  0.331689E-04  0.927E-03    0.10       1.0  T
   4   -212.1330237  0.627649E-04  0.151E-02    0.10       1.0  T
   5   -212.1331199 -0.961689E-04  0.726E-04    0.10      11.6  T
   6   -212.1331201 -0.143533E-06  0.255E-04    0.10      33.0  T
   7   -212.1331201 -0.185821E-08  0.136E-04    0.10      62.1  T
     SCC iter.                  ...        0 min,  0.471 sec
     gradient                   ...        0 min,  0.071 sec
 * total energy  :  -208.9804971 Eh     change       -0.3081770E-03 Eh
   gradient norm :     0.0026231 Eh/α   predicted    -0.1875890E-03 ( -39.13%)
   displ. norm   :     0.4638770 α      lambda       -0.3395957E-03
   maximum displ.:     0.3409859 α      in ANC's #3, #1, #8, ...

........................................................................
.............................. CYCLE   36 ..............................
........................................................................

 iter      E             dE          RMSdq      gap      omega  full diag
   1   -212.1330894 -0.212133E+03  0.228E-02    0.10       0.0  T
   2   -212.1330894 -0.481206E-07  0.134E-02    0.10       1.0  T
   3   -212.1329501  0.139380E-03  0.181E-02    0.10       1.0  T
   4   -212.1330588 -0.108713E-03  0.878E-03    0.10       1.0  T
   5   -212.1330899 -0.311305E-04  0.586E-04    0.10      14.4  T
   6   -212.1330900 -0.690972E-07  0.276E-04    0.10      30.6  T
   7   -212.1330900 -0.850386E-08  0.122E-04    0.10      68.8  T
     SCC iter.                  ...        0 min,  0.432 sec
     gradient                   ...        0 min,  0.062 sec
 * total energy  :  -208.9808263 Eh     change       -0.3291216E-03 Eh
   gradient norm :     0.0026111 Eh/α   predicted    -0.2063367E-03 ( -37.31%)
   displ. norm   :     0.4947290 α      lambda       -0.3530249E-03
   maximum displ.:     0.3625680 α      in ANC's #3, #1, #8, ...

........................................................................
.............................. CYCLE   37 ..............................
........................................................................

 iter      E             dE          RMSdq      gap      omega  full diag
   1   -212.1331814 -0.212133E+03  0.237E-02    0.10       0.0  T
   2   -212.1331803  0.106777E-05  0.141E-02    0.10       1.0  T
   3   -212.1325775  0.602882E-03  0.376E-02    0.10       1.0  T
   4   -212.1331742 -0.596764E-03  0.471E-03    0.10       1.8  T
   5   -212.1331819 -0.767804E-05  0.683E-04    0.10      12.3  T
   6   -212.1331820 -0.107773E-06  0.311E-04    0.10      27.0  T
   7   -212.1331820 -0.132760E-07  0.142E-04    0.10      59.3  T
     SCC iter.                  ...        0 min,  0.477 sec
     gradient                   ...        0 min,  0.066 sec
 * total energy  :  -208.9811678 Eh     change       -0.3415915E-03 Eh
   gradient norm :     0.0024626 Eh/α   predicted    -0.2197163E-03 ( -35.68%)
   displ. norm   :     0.5148581 α      lambda       -0.3561872E-03
   maximum displ.:     0.3770244 α      in ANC's #3, #1, #8, ...

........................................................................
.............................. CYCLE   38 ..............................
........................................................................

 iter      E             dE          RMSdq      gap      omega  full diag
   1   -212.1334647 -0.212133E+03  0.241E-02    0.10       0.0  T
   2   -212.1334619  0.284314E-05  0.144E-02    0.10       1.0  T
   3   -212.1322575  0.120441E-02  0.532E-02    0.10       1.0  T
   4   -212.1334606 -0.120310E-02  0.399E-03    0.10       2.1  T
   5   -212.1334652 -0.469216E-05  0.716E-04    0.10      11.8  T
   6   -212.1334654 -0.114207E-06  0.314E-04    0.10      26.8  T
   7   -212.1334654 -0.116537E-07  0.146E-04    0.10      57.8  T
     SCC iter.                  ...        0 min,  0.525 sec
     gradient                   ...        0 min,  0.064 sec
 * total energy  :  -208.9815122 Eh     change       -0.3443582E-03 Eh
   gradient norm :     0.0021943 Eh/α   predicted    -0.2253029E-03 ( -34.57%)
   displ. norm   :     0.5251574 α      lambda       -0.3513937E-03
   maximum displ.:     0.3848876 α      in ANC's #3, #1, #2, ...

........................................................................
.............................. CYCLE   39 ..............................
........................................................................

 iter      E             dE          RMSdq      gap      omega  full diag
   1   -212.1339241 -0.212134E+03  0.238E-02    0.10       0.0  T
   2   -212.1339210  0.310562E-05  0.143E-02    0.10       1.0  T
   3   -212.1326479  0.127308E-02  0.547E-02    0.10       1.0  T
   4   -212.1339202 -0.127226E-02  0.391E-03    0.10       2.2  T
   5   -212.1339246 -0.444725E-05  0.671E-04    0.10      12.5  T
   6   -212.1339247 -0.934454E-07  0.304E-04    0.10      27.7  T
   7   -212.1339247 -0.104295E-07  0.141E-04    0.10      59.9  T
     SCC iter.                  ...        0 min,  0.447 sec
     gradient                   ...        0 min,  0.062 sec
 * total energy  :  -208.9818520 Eh     change       -0.3398464E-03 Eh
   gradient norm :     0.0019005 Eh/α   predicted    -0.2241522E-03 ( -34.04%)
   displ. norm   :     0.7930635 α      lambda       -0.3426569E-03
   maximum displ.:     0.5822464 α      in ANC's #3, #1, #2, ...

........................................................................
.............................. CYCLE   40 ..............................
........................................................................

 iter      E             dE          RMSdq      gap      omega  full diag
   1   -212.1345949 -0.212135E+03  0.349E-02    0.10       0.0  T
   2   -212.1345921  0.285559E-05  0.208E-02    0.10       1.0  T
   3   -212.1331392  0.145290E-02  0.584E-02    0.10       1.0  T
   4   -212.1345813 -0.144215E-02  0.667E-03    0.10       1.3  T
   5   -212.1345960 -0.146789E-04  0.891E-04    0.10       9.5  T
   6   -212.1345961 -0.140640E-06  0.436E-04    0.10      19.3  T
   7   -212.1345961 -0.206744E-07  0.205E-04    0.10      41.1  T
     SCC iter.                  ...        0 min,  0.405 sec
     gradient                   ...        0 min,  0.064 sec
 * total energy  :  -208.9823417 Eh     change       -0.4896136E-03 Eh
   gradient norm :     0.0017635 Eh/α   predicted    -0.2192208E-03 ( -55.23%)
   displ. norm   :     0.7640621 α      lambda       -0.3136603E-03
   maximum displ.:     0.5630421 α      in ANC's #3, #1, #2, ...

........................................................................
.............................. CYCLE   41 ..............................
........................................................................

 iter      E             dE          RMSdq      gap      omega  full diag
   1   -212.1353587 -0.212135E+03  0.330E-02    0.10       0.0  T
   2   -212.1353592 -0.500000E-06  0.194E-02    0.10       1.0  T
   3   -212.1353448  0.143581E-04  0.632E-03    0.10       1.3  T
   4   -212.1352582  0.866387E-04  0.155E-02    0.10       1.0  T
   5   -212.1353595 -0.101308E-03  0.682E-04    0.10      12.4  T
   6   -212.1353595 -0.404615E-07  0.396E-04    0.10      21.3  T
   7   -212.1353596 -0.172378E-07  0.184E-04    0.10      45.8  T
     SCC iter.                  ...        0 min,  0.402 sec
     gradient                   ...        0 min,  0.064 sec
 * total energy  :  -208.9827937 Eh     change       -0.4520804E-03 Eh
   gradient norm :     0.0019680 Eh/α   predicted    -0.1975228E-03 ( -56.31%)
   displ. norm   :     0.7484739 α      lambda       -0.2993202E-03
   maximum displ.:     0.5528200 α      in ANC's #3, #1, #2, ...

........................................................................
.............................. CYCLE   42 ..............................
........................................................................

 iter      E             dE          RMSdq      gap      omega  full diag
   1   -212.1361953 -0.212136E+03  0.326E-02    0.10       0.0  T
   2   -212.1361891  0.620221E-05  0.196E-02    0.10       1.0  T
   3   -212.1337093  0.247981E-02  0.766E-02    0.11       1.0  T
   4   -212.1361921 -0.248286E-02  0.355E-03    0.10       2.4  T
   5   -212.1361961 -0.399257E-05  0.712E-04    0.10      11.8  T
   6   -212.1361962 -0.898207E-07  0.359E-04    0.10      23.4  T
   7   -212.1361962 -0.121089E-07  0.180E-04    0.10      46.9  T
     SCC iter.                  ...        0 min,  0.528 sec
     gradient                   ...        0 min,  0.063 sec
 * total energy  :  -208.9832281 Eh     change       -0.4343838E-03 Eh
   gradient norm :     0.0020666 Eh/α   predicted    -0.1869242E-03 ( -56.97%)
   displ. norm   :     0.5054365 α      lambda       -0.3003259E-03
   maximum displ.:     0.3738972 α      in ANC's #3, #1, #2, ...
 * RMSD in coord.:     0.7446513 α      energy gain  -0.6651774E-02 Eh

generating ANC from model Hessian ...
Using Lindh-Hessian (1995)
 Shifting diagonal of input Hessian by    9.9628458634140847E-003
 Lowest  eigenvalues of input Hessian
    0.000000    0.000000    0.000000    0.000000    0.000000    0.000000
    0.010000    0.010022    0.010031    0.010115    0.010156    0.010394
    0.010405    0.010466    0.010586    0.010708    0.010784    0.010820
 Highest eigenvalues
    2.085045    2.087191    2.242961    2.243271    2.261989    2.262456


........................................................................
.............................. CYCLE   43 ..............................
........................................................................

 iter      E             dE          RMSdq      gap      omega  full diag
   1   -212.1368004 -0.212137E+03  0.228E-02    0.10       0.0  T
   2   -212.1367972  0.324818E-05  0.137E-02    0.10       1.0  T
   3   -212.1354917  0.130545E-02  0.555E-02    0.10       1.0  T
   4   -212.1367989 -0.130718E-02  0.253E-03    0.10       3.3  T
   5   -212.1368009 -0.198131E-05  0.451E-04    0.10      18.7  T
   6   -212.1368009 -0.240062E-07  0.247E-04    0.10      34.0  T
   7   -212.1368009 -0.332221E-08  0.134E-04    0.10      63.1  T
     SCC iter.                  ...        0 min,  0.495 sec
     gradient                   ...        0 min,  0.063 sec
 * total energy  :  -208.9835224 Eh     change       -0.2943165E-03 Eh
   gradient norm :     0.0020441 Eh/α   predicted     0.0000000E+00 (-100.00%)
   displ. norm   :     0.0732459 α      lambda       -0.6086932E-04
   maximum displ.:     0.0636851 α      in ANC's #3, #1, #8, ...

........................................................................
.............................. CYCLE   44 ..............................
........................................................................

 iter      E             dE          RMSdq      gap      omega  full diag
   1   -212.1376163 -0.212138E+03  0.609E-03    0.10       0.0  T
   2   -212.1376143  0.195713E-05  0.418E-03    0.10       2.0  T
   3   -212.1373705  0.243826E-03  0.241E-02    0.10       1.0  T
   4   -212.1376161 -0.245570E-03  0.113E-03    0.10       7.5  T
   5   -212.1376164 -0.321038E-06  0.235E-04    0.10      35.8  T
   6   -212.1376164 -0.117226E-07  0.972E-05    0.10      86.7  T
     SCC iter.                  ...        0 min,  0.344 sec
     gradient                   ...        0 min,  0.067 sec
 * total energy  :  -208.9835825 Eh     change       -0.6003195E-04 Eh
   gradient norm :     0.0015616 Eh/α   predicted    -0.3092406E-04 ( -48.49%)
   displ. norm   :     0.2417701 α      lambda       -0.1291065E-03
   maximum displ.:     0.1811357 α      in ANC's #3, #1, #8, ...

........................................................................
.............................. CYCLE   45 ..............................
........................................................................

 iter      E             dE          RMSdq      gap      omega  full diag
   1   -212.1384595 -0.212138E+03  0.224E-02    0.10       0.0  T
   2   -212.1384193  0.402018E-04  0.164E-02    0.10       1.0  T
   3   -212.1353710  0.304834E-02  0.856E-02    0.11       1.0  T
   4   -212.1384571 -0.308609E-02  0.429E-03    0.10       2.0  T
   5   -212.1384612 -0.409629E-05  0.743E-04    0.10      11.3  T
   6   -212.1384613 -0.900515E-07  0.355E-04    0.10      23.7  T
   7   -212.1384613 -0.166647E-07  0.185E-04    0.10      45.4  T
     SCC iter.                  ...        0 min,  0.422 sec
     gradient                   ...        0 min,  0.061 sec
 * total energy  :  -208.9837621 Eh     change       -0.1795879E-03 Eh
   gradient norm :     0.0011008 Eh/α   predicted    -0.6623153E-04 ( -63.12%)
   displ. norm   :     0.4134197 α      lambda       -0.1901115E-03
   maximum displ.:     0.2986066 α      in ANC's #3, #1, #8, ...

........................................................................
.............................. CYCLE   46 ..............................
........................................................................

 iter      E             dE          RMSdq      gap      omega  full diag
   1   -212.1372446 -0.212137E+03  0.369E-02    0.10       0.0  T
   2   -212.1371469  0.976299E-04  0.265E-02    0.10       1.0  T
   3   -212.1296711  0.747588E-02  0.134E-01    0.12       1.0  T
   4   -212.1372395 -0.756848E-02  0.640E-03    0.10       1.3  T
   5   -212.1372485 -0.893965E-05  0.137E-03    0.10       6.1  T
   6   -212.1372488 -0.372765E-06  0.570E-04    0.10      14.8  T
   7   -212.1372489 -0.388913E-07  0.298E-04    0.10      28.3  T
     SCC iter.                  ...        0 min,  0.352 sec
     gradient                   ...        0 min,  0.063 sec
 * total energy  :  -208.9840163 Eh     change       -0.2542716E-03 Eh
   gradient norm :     0.0018838 Eh/α   predicted    -0.1022769E-03 ( -59.78%)
   displ. norm   :     0.4837857 α      lambda       -0.1873061E-03
   maximum displ.:     0.3490265 α      in ANC's #3, #1, #8, ...

........................................................................
.............................. CYCLE   47 ..............................
........................................................................

 iter      E             dE          RMSdq      gap      omega  full diag
   1   -212.1365492 -0.212137E+03  0.403E-02    0.10       0.0  T
   2   -212.1364938  0.553837E-04  0.263E-02    0.10       1.0  T
   3   -212.1282441  0.824964E-02  0.140E-01    0.13       1.0  T
   4   -212.1365467 -0.830258E-02  0.518E-03    0.10       1.6  T
   5   -212.1365523 -0.555642E-05  0.128E-03    0.10       6.6  T
   6   -212.1365526 -0.300716E-06  0.584E-04    0.10      14.4  T
   7   -212.1365526 -0.478160E-07  0.288E-04    0.10      29.2  T
     SCC iter.                  ...        0 min,  0.407 sec
     gradient                   ...        0 min,  0.063 sec
 * total energy  :  -208.9842671 Eh     change       -0.2507672E-03 Eh
   gradient norm :     0.0029846 Eh/α   predicted    -0.1033955E-03 ( -58.77%)
   displ. norm   :     0.3105484 α      lambda       -0.1667100E-03
   maximum displ.:     0.2240009 α      in ANC's #3, #1, #8, ...

........................................................................
.............................. CYCLE   48 ..............................
........................................................................

 iter      E             dE          RMSdq      gap      omega  full diag
   1   -212.1364203 -0.212136E+03  0.241E-02    0.10       0.0  T
   2   -212.1363990  0.213364E-04  0.159E-02    0.10       1.0  T
   3   -212.1329405  0.345850E-02  0.907E-02    0.11       1.0  T
   4   -212.1364199 -0.347939E-02  0.258E-03    0.10       3.3  T
   5   -212.1364213 -0.143940E-05  0.556E-04    0.10      15.1  T
   6   -212.1364213 -0.368534E-07  0.319E-04    0.10      26.4  T
   7   -212.1364214 -0.141679E-07  0.165E-04    0.10      51.0  T
     SCC iter.                  ...        0 min,  0.481 sec
     gradient                   ...        0 min,  0.064 sec
 * total energy  :  -208.9844248 Eh     change       -0.1576867E-03 Eh
   gradient norm :     0.0031211 Eh/α   predicted    -0.9139430E-04 ( -42.04%)
   displ. norm   :     0.3271754 α      lambda       -0.1790888E-03
   maximum displ.:     0.2339719 α      in ANC's #3, #1, #8, ...

........................................................................
.............................. CYCLE   49 ..............................
........................................................................

 iter      E             dE          RMSdq      gap      omega  full diag
   1   -212.1367864 -0.212137E+03  0.238E-02    0.10       0.0  T
   2   -212.1367852  0.120653E-05  0.141E-02    0.10       1.0  T
   3   -212.1361403  0.644881E-03  0.391E-02    0.10       1.0  T
   4   -212.1367735 -0.633203E-03  0.597E-03    0.10       1.4  T
   5   -212.1367870 -0.135541E-04  0.517E-04    0.10      16.3  T
   6   -212.1367871 -0.347194E-07  0.277E-04    0.10      30.4  T
   7   -212.1367871 -0.598277E-08  0.138E-04    0.10      61.1  T
     SCC iter.                  ...        0 min,  0.529 sec
     gradient                   ...        0 min,  0.065 sec
 * total energy  :  -208.9845980 Eh     change       -0.1732366E-03 Eh
   gradient norm :     0.0029271 Eh/α   predicted    -0.9913017E-04 ( -42.78%)
   displ. norm   :     0.3811065 α      lambda       -0.2164502E-03
   maximum displ.:     0.2696002 α      in ANC's #3, #1, #8, ...

........................................................................
.............................. CYCLE   50 ..............................
........................................................................

 iter      E             dE          RMSdq      gap      omega  full diag
   1   -212.1370597 -0.212137E+03  0.263E-02    0.10       0.0  T
   2   -212.1370599 -0.153003E-06  0.155E-02    0.10       1.0  T
   3   -212.1369567  0.103236E-03  0.160E-02    0.10       1.0  T
   4   -212.1369473  0.935563E-05  0.164E-02    0.10       1.0  T
   5   -212.1370605 -0.113239E-03  0.601E-04    0.10      14.0  T
   6   -212.1370606 -0.470510E-07  0.308E-04    0.10      27.3  T
   7   -212.1370606 -0.562716E-08  0.154E-04    0.10      54.7  T
     SCC iter.                  ...        0 min,  0.494 sec
     gradient                   ...        0 min,  0.064 sec
 * total energy  :  -208.9848075 Eh     change       -0.2094753E-03 Eh
   gradient norm :     0.0024123 Eh/α   predicted    -0.1239449E-03 ( -40.83%)
   displ. norm   :     0.4625681 α      lambda       -0.2649926E-03
   maximum displ.:     0.3246141 α      in ANC's #3, #1, #8, ...

........................................................................
.............................. CYCLE   51 ..............................
........................................................................

 iter      E             dE          RMSdq      gap      omega  full diag
   1   -212.1370850 -0.212137E+03  0.302E-02    0.10       0.0  T
   2   -212.1370851 -0.184470E-06  0.178E-02    0.10       1.0  T
   3   -212.1369611  0.124084E-03  0.175E-02    0.10       1.0  T
   4   -212.1369306  0.304701E-04  0.193E-02    0.10       1.0  T
   5   -212.1370859 -0.155365E-03  0.772E-04    0.10      10.9  T
   6   -212.1370861 -0.105625E-06  0.359E-04    0.10      23.5  T
   7   -212.1370861 -0.643598E-08  0.178E-04    0.10      47.3  T
     SCC iter.                  ...        0 min,  0.371 sec
     gradient                   ...        0 min,  0.060 sec
 * total energy  :  -208.9850623 Eh     change       -0.2547956E-03 Eh
   gradient norm :     0.0016596 Eh/α   predicted    -0.1608474E-03 ( -36.87%)
   displ. norm   :     0.8084068 α      lambda       -0.3015721E-03
   maximum displ.:     0.5648230 α      in ANC's #3, #1, #8, ...

........................................................................
.............................. CYCLE   52 ..............................
........................................................................

 iter      E             dE          RMSdq      gap      omega  full diag
   1   -212.1365542 -0.212137E+03  0.496E-02    0.10       0.0  T
   2   -212.1365530  0.125315E-05  0.293E-02    0.10       1.0  T
   3   -212.1355081  0.104484E-02  0.500E-02    0.10       1.0  T
   4   -212.1363935 -0.885368E-03  0.203E-02    0.10       1.0  T
   5   -212.1365568 -0.163332E-03  0.126E-03    0.10       6.7  T
   6   -212.1365571 -0.265498E-06  0.604E-04    0.10      13.9  T
   7   -212.1365571 -0.206490E-07  0.297E-04    0.10      28.4  T
     SCC iter.                  ...        0 min,  0.363 sec
     gradient                   ...        0 min,  0.067 sec
 * total energy  :  -208.9854840 Eh     change       -0.4217553E-03 Eh
   gradient norm :     0.0016592 Eh/α   predicted    -0.1945829E-03 ( -53.86%)
   displ. norm   :     0.8372834 α      lambda       -0.2908151E-03
   maximum displ.:     0.5843536 α      in ANC's #3, #1, #8, ...

........................................................................
.............................. CYCLE   53 ..............................
........................................................................

 iter      E             dE          RMSdq      gap      omega  full diag
   1   -212.1364670 -0.212136E+03  0.477E-02    0.10       0.0  T
   2   -212.1364614  0.553226E-05  0.283E-02    0.10       1.0  T
   3   -212.1338930  0.256844E-02  0.781E-02    0.11       1.0  T
   4   -212.1364353 -0.254229E-02  0.991E-03    0.10       1.0  T
   5   -212.1364691 -0.337536E-04  0.116E-03    0.10       7.2  T
   6   -212.1364693 -0.226434E-06  0.574E-04    0.10      14.7  T
   7   -212.1364693 -0.205648E-07  0.277E-04    0.10      30.4  T
     SCC iter.                  ...        0 min,  0.514 sec
     gradient                   ...        0 min,  0.063 sec
 * total energy  :  -208.9858942 Eh     change       -0.4101367E-03 Eh
   gradient norm :     0.0028659 Eh/α   predicted    -0.1907156E-03 ( -53.50%)
   displ. norm   :     0.5782066 α      lambda       -0.2925364E-03
   maximum displ.:     0.4029713 α      in ANC's #3, #1, #8, ...

........................................................................
.............................. CYCLE   54 ..............................
........................................................................

 iter      E             dE          RMSdq      gap      omega  full diag
   1   -212.1369005 -0.212137E+03  0.312E-02    0.10       0.0  T
   2   -212.1369006 -0.354812E-07  0.184E-02    0.10       1.0  T
   3   -212.1367234  0.177201E-03  0.206E-02    0.10       1.0  T
   4   -212.1368670 -0.143587E-03  0.926E-03    0.10       1.0  T
   5   -212.1369012 -0.342817E-04  0.662E-04    0.10      12.7  T
   6   -212.1369013 -0.595085E-07  0.350E-04    0.10      24.0  T
   7   -212.1369013 -0.691156E-08  0.167E-04    0.10      50.3  T
     SCC iter.                  ...        0 min,  0.512 sec
     gradient                   ...        0 min,  0.064 sec
 * total energy  :  -208.9861775 Eh     change       -0.2833141E-03 Eh
   gradient norm :     0.0034533 Eh/α   predicted    -0.1951724E-03 ( -31.11%)
   displ. norm   :     0.6466036 α      lambda       -0.3352458E-03
   maximum displ.:     0.4501584 α      in ANC's #3, #1, #8, ...

........................................................................
.............................. CYCLE   55 ..............................
........................................................................

 iter      E             dE          RMSdq      gap      omega  full diag
   1   -212.1377016 -0.212138E+03  0.337E-02    0.10       0.0  T
   2   -212.1376999  0.164181E-05  0.199E-02    0.10       1.0  T
   3   -212.1367716  0.928361E-03  0.468E-02    0.10       1.0  T
   4   -212.1376984 -0.926787E-03  0.358E-03    0.10       2.4  T
   5   -212.1377023 -0.396446E-05  0.637E-04    0.10      13.2  T
   6   -212.1377024 -0.375563E-07  0.355E-04    0.10      23.7  T
   7   -212.1377024 -0.648330E-08  0.178E-04    0.10      47.4  T
     SCC iter.                  ...        0 min,  0.450 sec
     gradient                   ...        0 min,  0.062 sec
 * total energy  :  -208.9865029 Eh     change       -0.3253969E-03 Eh
   gradient norm :     0.0037203 Eh/α   predicted    -0.2377096E-03 ( -26.95%)
   displ. norm   :     0.7183821 α      lambda       -0.3794204E-03
   maximum displ.:     0.5005391 α      in ANC's #3, #1, #5, ...

........................................................................
.............................. CYCLE   56 ..............................
........................................................................

[...]
    32   6 C    3.980 --    33 C    1.302    37 C    1.285    31 C    1.157
    33   6 C    3.960 --    40 C    1.396    32 C    1.302    47 C    1.037
    34   6 C    3.973 --    31 C    1.288    35 C    1.224    41 C    1.199
    35   6 C    3.962 --    44 C    1.477    34 C    1.224    36 C    1.030
    36   6 C    3.929 --    48 O    1.746    37 C    1.043    35 C    1.030
    37   6 C    3.965 --    38 C    1.407    32 C    1.285    36 C    1.043
    38   6 C    3.980 --    37 C    1.407    39 C    1.389   140 H    0.957
    39   6 C    3.950 --    40 C    1.403    38 C    1.389    72 C    0.987
    40   6 C    3.979 --    39 C    1.403    33 C    1.396   141 H    0.957
    41   6 C    3.890 --    42 C    1.321    34 C    1.199    45 O    1.176
    42   6 C    3.972 --    43 C    1.456    41 C    1.321   136 H    0.958
    43   6 C    3.934 --    42 C    1.456    44 C    1.310    68 C    0.990
    44   6 C    3.952 --    35 C    1.477    43 C    1.310   137 H    0.957
    45   8 O    2.182 --    41 C    1.176    24 B    0.743
    46   8 O    2.173 --    26 C    1.103    24 B    0.834
    47   6 C    3.929 --    49 O    1.738    28 C    1.047    33 C    1.037
    48   8 O    2.009 --    36 C    1.746
    49   8 O    2.003 --    47 C    1.738
    50   8 O    2.009 --    10 C    1.747
    51   8 O    2.003 --    13 C    1.737
    52   6 C    3.988 --    53 C    0.998    54 C    0.992     6 C    0.990
                            55 C    0.971
    53   6 C    3.994 --    52 C    0.998   121 H    0.984   122 H    0.983
                           123 H    0.980
    54   6 C    3.992 --    52 C    0.992   127 H    0.984   128 H    0.982
                           129 H    0.982
    55   6 C    3.986 --   126 H    0.986   125 H    0.986   124 H    0.981
                            52 C    0.971
    56   6 C    3.989 --    57 C    1.000    20 C    0.987    59 C    0.987
                            58 C    0.980
    57   6 C    3.994 --    56 C    1.000    99 H    0.985    97 H    0.984
                            98 H    0.984
    58   6 C    3.991 --    96 H    0.986    94 H    0.983    95 H    0.981
                            56 C    0.980
    59   6 C    3.992 --    56 C    0.987   101 H    0.986   100 H    0.984
                           102 H    0.977
    60   6 C    3.989 --    62 C    1.000    16 C    0.987    61 C    0.984
                            63 C    0.982
    61   6 C    3.992 --   111 H    0.987    60 C    0.984   109 H    0.984
                           110 H    0.983
    62   6 C    3.995 --    60 C    1.000   107 H    0.985   106 H    0.984
                           108 H    0.984
    63   6 C    3.991 --   104 H    0.987   103 H    0.983   105 H    0.983
                            60 C    0.982
    64   6 C    3.989 --    67 C    0.999    65 C    0.988    30 C    0.987
                            66 C    0.979
    65   6 C    3.993 --    64 C    0.988   113 H    0.986   112 H    0.984
                           114 H    0.977
    66   6 C    3.991 --   117 H    0.986   115 H    0.983   116 H    0.981
                            64 C    0.979
    67   6 C    3.994 --    64 C    0.999   120 H    0.985   118 H    0.984
                           119 H    0.983
    68   6 C    3.988 --    71 C    0.999    70 C    0.991    43 C    0.990
                            69 C    0.972
    69   6 C    3.986 --    93 H    0.986    92 H    0.985    91 H    0.981
                            68 C    0.972
    70   6 C    3.992 --    68 C    0.991    85 H    0.984    86 H    0.982
                            87 H    0.982
    71   6 C    3.994 --    68 C    0.999    88 H    0.984    89 H    0.983
                            90 H    0.979
    72   6 C    3.989 --    74 C    1.000    39 C    0.987    75 C    0.985
                            73 C    0.982
    73   6 C    3.991 --    80 H    0.987    81 H    0.983    79 H    0.983
                            72 C    0.982
    74   6 C    3.995 --    72 C    1.000    77 H    0.985    76 H    0.984
                            78 H    0.984
    75   6 C    3.992 --    84 H    0.987    72 C    0.985    82 H    0.984
                            83 H    0.983
    76   1 H    0.998 --    74 C    0.984
    77   1 H    0.998 --    74 C    0.985
    78   1 H    0.998 --    74 C    0.984
    79   1 H    0.997 --    73 C    0.983
    80   1 H    0.999 --    73 C    0.987
    81   1 H    0.998 --    73 C    0.983
    82   1 H    0.997 --    75 C    0.984
    83   1 H    0.998 --    75 C    0.983
    84   1 H    0.999 --    75 C    0.987
    85   1 H    0.997 --    70 C    0.984
    86   1 H    0.998 --    70 C    0.982
    87   1 H    0.998 --    70 C    0.982
    88   1 H    0.998 --    71 C    0.984
    89   1 H    0.998 --    71 C    0.983
    90   1 H    0.998 --    71 C    0.979
    91   1 H    0.995 --    69 C    0.981
    92   1 H    0.998 --    69 C    0.985
    93   1 H    0.999 --    69 C    0.986
    94   1 H    0.997 --    58 C    0.983
    95   1 H    0.998 --    58 C    0.981
    96   1 H    0.998 --    58 C    0.986
    97   1 H    0.998 --    57 C    0.984
    98   1 H    0.998 --    57 C    0.984
    99   1 H    0.998 --    57 C    0.985
   100   1 H    0.997 --    59 C    0.984
   101   1 H    0.998 --    59 C    0.986
   102   1 H    0.998 --    59 C    0.977
   103   1 H    0.997 --    63 C    0.983
   104   1 H    0.999 --    63 C    0.987
   105   1 H    0.998 --    63 C    0.983
   106   1 H    0.998 --    62 C    0.984
   107   1 H    0.998 --    62 C    0.985
   108   1 H    0.998 --    62 C    0.984
   109   1 H    0.997 --    61 C    0.984
   110   1 H    0.998 --    61 C    0.983
   111   1 H    0.999 --    61 C    0.987
   112   1 H    0.997 --    65 C    0.984
   113   1 H    0.998 --    65 C    0.986
   114   1 H    0.998 --    65 C    0.977
   115   1 H    0.997 --    66 C    0.983
   116   1 H    0.998 --    66 C    0.981
   117   1 H    0.998 --    66 C    0.986
   118   1 H    0.998 --    67 C    0.984
   119   1 H    0.998 --    67 C    0.983
   120   1 H    0.998 --    67 C    0.985
   121   1 H    0.998 --    53 C    0.984
   122   1 H    0.998 --    53 C    0.983
   123   1 H    0.998 --    53 C    0.980
   124   1 H    0.995 --    55 C    0.981
   125   1 H    0.998 --    55 C    0.986
   126   1 H    0.999 --    55 C    0.986
   127   1 H    0.997 --    54 C    0.984
   128   1 H    0.998 --    54 C    0.982
   129   1 H    0.998 --    54 C    0.982
   130   1 H    0.994 --     5 C    0.957
   131   1 H    0.995 --     1 C    0.957
   132   1 H    0.994 --    17 C    0.957
   133   1 H    0.994 --    15 C    0.957
   134   1 H    0.993 --    21 C    0.955
   135   1 H    0.996 --    19 C    0.957
   136   1 H    0.995 --    42 C    0.958
   137   1 H    0.994 --    44 C    0.957
   138   1 H    0.996 --    25 C    0.956
   139   1 H    0.993 --    29 C    0.955
   140   1 H    0.994 --    38 C    0.957
   141   1 H    0.994 --    40 C    0.957
 ---------------------------------------------------------------------------

Topologies differ in bond orders
Writing corrected topology to xtbtopo.mol

molecular dipole:
                 x           y           z       tot (Debye)
 q only:       -0.136      -0.185       1.175
   full:       -0.157      -0.210       1.359       3.517
molecular quadrupole (traceless):
                xx          xy          yy          xz          yz          zz
 q only:       -9.454      19.983       7.357       1.414       3.511       2.097
  q+dip:      -14.516      23.177       7.938       0.975       3.341       6.578
   full:      -12.607      24.550       2.081       1.027       1.873      10.527

           -------------------------------------------------
          |                Geometry Summary                 |
           -------------------------------------------------

      molecular mass/u    :      998.0389263
   center of mass at/Å    :       -0.0332609       0.0864193       0.0806624
  moments of inertia/u·Å² :        0.1567589E+05   0.2439262E+05   0.2920368E+05
rotational constants/cm⁻¹ :        0.1075386E-02   0.6910957E-03   0.5772433E-03

 * 132 selected distances

     #   Z          #   Z                                           value/Å
     1   6 C        2   6 C                                       1.4056004
     3   6 C        4   6 C                                       1.4272343
     4   6 C        5   6 C                                       1.3757959
     1   6 C        6   6 C                                       1.3814211
     5   6 C        6   6 C                                       1.4014818
     3   6 C        7   6 C                                       1.4221145
     8   6 C        9   6 C                                       1.4070774
    11   6 C       12   6 C                                       1.4189149
     8   6 C       14   6 C                                       1.4043216
    14   6 C       15   6 C                                       1.3903504
    15   6 C       16   6 C                                       1.3887661
     9   6 C       17   6 C                                       1.3872236
    16   6 C       17   6 C                                       1.3921254
    11   6 C       18   6 C                                       1.4183272
    18   6 C       19   6 C                                       1.3957058
    19   6 C       20   6 C                                       1.3855779
    12   6 C       21   6 C                                       1.3849260
    20   6 C       21   6 C                                       1.3907790
     2   6 C       22   8 O                                       1.3202992
    18   6 C       23   8 O                                       1.3357216
    22   8 O       24   5 B                                       1.4951998
    23   8 O       24   5 B                                       1.4317445
    25   6 C       26   6 C                                       1.3957540
    26   6 C       27   6 C                                       1.4181375
    27   6 C       28   6 C                                       1.4187875
    28   6 C       29   6 C                                       1.3846334
    25   6 C       30   6 C                                       1.3854873
    29   6 C       30   6 C                                       1.3909764
    32   6 C       33   6 C                                       1.4043572
    31   6 C       34   6 C                                       1.4225060
    34   6 C       35   6 C                                       1.4271925
    32   6 C       37   6 C                                       1.4069210
    37   6 C       38   6 C                                       1.3872654
    38   6 C       39   6 C                                       1.3920738
    33   6 C       40   6 C                                       1.3902065
    39   6 C       40   6 C                                       1.3888249
    41   6 C       42   6 C                                       1.4056157
    42   6 C       43   6 C                                       1.3809637
    35   6 C       44   6 C                                       1.3757687
    43   6 C       44   6 C                                       1.4011788
    24   5 B       45   8 O                                       1.4960695
    41   6 C       45   8 O                                       1.3209433
    24   5 B       46   8 O                                       1.4331658
    26   6 C       46   8 O                                       1.3361705
    36   6 C       48   8 O                                       1.2186863
    47   6 C       49   8 O                                       1.2203036
    10   6 C       50   8 O                                       1.2185624
    13   6 C       51   8 O                                       1.2203894
    52   6 C       53   6 C                                       1.5302486
    52   6 C       54   6 C                                       1.5343444
    52   6 C       55   6 C                                       1.5388663 (max)
    56   6 C       57   6 C                                       1.5305251
    56   6 C       58   6 C                                       1.5360177
    56   6 C       59   6 C                                       1.5336780
    60   6 C       61   6 C                                       1.5351355
    60   6 C       62   6 C                                       1.5304959
    60   6 C       63   6 C                                       1.5355825
    64   6 C       65   6 C                                       1.5335569
    64   6 C       66   6 C                                       1.5361565
    64   6 C       67   6 C                                       1.5307555
    68   6 C       69   6 C                                       1.5386003
    68   6 C       70   6 C                                       1.5345777
    68   6 C       71   6 C                                       1.5300819
    72   6 C       73   6 C                                       1.5356033
    72   6 C       74   6 C                                       1.5304758
    72   6 C       75   6 C                                       1.5351735
    74   6 C       76   1 H                                       1.0879196
    74   6 C       77   1 H                                       1.0874513
    74   6 C       78   1 H                                       1.0873049
    73   6 C       79   1 H                                       1.0875708
    73   6 C       80   1 H                                       1.0880200
    73   6 C       81   1 H                                       1.0863776
    75   6 C       82   1 H                                       1.0876622
    75   6 C       83   1 H                                       1.0862078
    75   6 C       84   1 H                                       1.0879814
    70   6 C       85   1 H                                       1.0876432
    70   6 C       86   1 H                                       1.0866720
    70   6 C       87   1 H                                       1.0859462
    71   6 C       88   1 H                                       1.0878090
    71   6 C       89   1 H                                       1.0867121
    71   6 C       90   1 H                                       1.0861084
    69   6 C       91   1 H                                       1.0876438
    69   6 C       92   1 H                                       1.0874503
    69   6 C       93   1 H                                       1.0878292
    58   6 C       94   1 H                                       1.0880277
    58   6 C       95   1 H                                       1.0867147
    58   6 C       96   1 H                                       1.0878676
    57   6 C       97   1 H                                       1.0880471
    57   6 C       98   1 H                                       1.0868631
    57   6 C       99   1 H                                       1.0872112
    59   6 C      100   1 H                                       1.0880831
    59   6 C      101   1 H                                       1.0877581
    59   6 C      102   1 H                                       1.0856565
    63   6 C      103   1 H                                       1.0874732
    63   6 C      104   1 H                                       1.0879510
    63   6 C      105   1 H                                       1.0863725
    62   6 C      106   1 H                                       1.0878576
    62   6 C      107   1 H                                       1.0874198
    62   6 C      108   1 H                                       1.0873091
    61   6 C      109   1 H                                       1.0875992
    61   6 C      110   1 H                                       1.0862503
    61   6 C      111   1 H                                       1.0879197
    65   6 C      112   1 H                                       1.0881419
    65   6 C      113   1 H                                       1.0877259
    65   6 C      114   1 H                                       1.0856778
    66   6 C      115   1 H                                       1.0880537
    66   6 C      116   1 H                                       1.0868896
    66   6 C      117   1 H                                       1.0878419
    67   6 C      118   1 H                                       1.0879920
    67   6 C      119   1 H                                       1.0867926
    67   6 C      120   1 H                                       1.0872528
    53   6 C      121   1 H                                       1.0878132
    53   6 C      122   1 H                                       1.0866039
    53   6 C      123   1 H                                       1.0860072
    55   6 C      124   1 H                                       1.0876342
    55   6 C      125   1 H                                       1.0875644
    55   6 C      126   1 H                                       1.0877939
    54   6 C      127   1 H                                       1.0876475
    54   6 C      128   1 H                                       1.0866015
    54   6 C      129   1 H                                       1.0860371
     5   6 C      130   1 H                                       1.0780819 (min)
     1   6 C      131   1 H                                       1.0786376
    17   6 C      132   1 H                                       1.0799501
    15   6 C      133   1 H                                       1.0784534
    21   6 C      134   1 H                                       1.0782263
    19   6 C      135   1 H                                       1.0792100
    42   6 C      136   1 H                                       1.0786814
    44   6 C      137   1 H                                       1.0782378
Note: The following floating-point exceptions are signalling: IEEE_UNDERFLOW_FLAG
normal termination of xtb
    25   6 C      138   1 H                                       1.0790165
    29   6 C      139   1 H                                       1.0781868
    38   6 C      140   1 H                                       1.0799562
    40   6 C      141   1 H                                       1.0784039

 * 4 distinct bonds (by element types)

   Z      Z             #   av. dist./Å        max./Å        min./Å
   1 H    6 C          66     1.0857243     1.0881419     1.0780819
   6 C    6 C          54     1.4437828     1.5388663     1.3757687
   5 B    8 O           4     1.4640449     1.4960695     1.4317445
   6 C    8 O           8     1.2738845     1.3361705     1.2185624


optimized geometry written to: xtbopt.mol


           -------------------------------------------------
          | TOTAL ENERGY             -208.993016372704 Eh   |
          | GRADIENT NORM               0.000328071802 Eh/α |
          | HOMO-LUMO GAP               0.096437125174 eV   |
           -------------------------------------------------
########################################################################
[WARNING] Runtime exception occurred
-1- restart_readRestart: Number of electron missmatch in restart file.
########################################################################

------------------------------------------------------------------------
 * finished run on 2024/11/12 at 09:33:34.643     
------------------------------------------------------------------------
 total:
 * wall-time:     0 d,  0 h,  1 min,  3.286 sec
 *  cpu-time:     0 d,  0 h,  3 min, 33.338 sec
 * ratio c/w:     3.371 speedup
 SCF:
 * wall-time:     0 d,  0 h,  0 min,  1.488 sec
 *  cpu-time:     0 d,  0 h,  0 min,  5.650 sec
 * ratio c/w:     3.798 speedup
 ANC optimizer:
 * wall-time:     0 d,  0 h,  1 min,  1.771 sec
 *  cpu-time:     0 d,  0 h,  3 min, 27.648 sec
 * ratio c/w:     3.362 speedup

