      -----------------------------------------------------------      
     |                   =====================                   |     
     |                           x T B                           |     
     |                   =====================                   |     
     |                         S. Grimme                         |     
     |          Mulliken Center for Theoretical Chemistry        |     
     |                    University of Bonn                     |     
      -----------------------------------------------------------      

   * xtb version 6.6.1 (8d0f1dd) compiled by 'runner@Mac-1690902418499.local' on 2023-08-01

   xtb is free software: you can redistribute it and/or modify it under
   the terms of the GNU Lesser General Public License as published by
   the Free Software Foundation, either version 3 of the License, or
   (at your option) any later version.
   
   xtb is distributed in the hope that it will be useful,
   but WITHOUT ANY WARRANTY; without even the implied warranty of
   MERCHANTABILITY or FITNESS FOR A PARTICULAR PURPOSE.  See the
   GNU Lesser General Public License for more details.
   
   Cite this work as:
   * C. Bannwarth, E. Caldeweyher, S. Ehlert, A. Hansen, P. Pracht,
     J. Seibert, S. Spicher, S. Grimme, WIREs Comput. Mol. Sci., 2020, 11,
     e01493. DOI: 10.1002/wcms.1493
   
   for GFN2-xTB:
   * C. Bannwarth, S. Ehlert and S. Grimme., J. Chem. Theory Comput., 2019,
     15, 1652-1671. DOI: 10.1021/acs.jctc.8b01176
   for GFN1-xTB:
   * S. Grimme, C. Bannwarth, P. Shushkov, J. Chem. Theory Comput., 2017,
     13, 1989-2009. DOI: 10.1021/acs.jctc.7b00118
   for GFN0-xTB:
   * P. Pracht, E. Caldeweyher, S. Ehlert, S. Grimme, ChemRxiv, 2019, preprint.
     DOI: 10.26434/chemrxiv.8326202.v1
   for GFN-FF:
   * S. Spicher and S. Grimme, Angew. Chem. Int. Ed., 2020, 59, 15665-15673.
     DOI: 10.1002/anie.202004239
   
   for ALPB and GBSA implicit solvation:
   * S. Ehlert, M. Stahn, S. Spicher, S. Grimme, J. Chem. Theory Comput.,
     2021, 17, 4250-4261. DOI: 10.1021/acs.jctc.1c00471
   
   for DFT-D4:
   * E. Caldeweyher, C. Bannwarth and S. Grimme, J. Chem. Phys., 2017,
     147, 034112. DOI: 10.1063/1.4993215
   * E. Caldeweyher, S. Ehlert, A. Hansen, H. Neugebauer, S. Spicher,
     C. Bannwarth and S. Grimme, J. Chem. Phys., 2019, 150, 154122.
     DOI: 10.1063/1.5090222
   * E. Caldeweyher, J.-M. Mewes, S. Ehlert and S. Grimme, Phys. Chem. Chem. Phys.
     2020, 22, 8499-8512. DOI: 10.1039/D0CP00502A
   
   for sTDA-xTB:
   * S. Grimme and C. Bannwarth, J. Chem. Phys., 2016, 145, 054103.
     DOI: 10.1063/1.4959605
   
   in the mass-spec context:
   * V. Asgeirsson, C. Bauer and S. Grimme, Chem. Sci., 2017, 8, 4879.
     DOI: 10.1039/c7sc00601b
   * J. Koopman and S. Grimme, ACS Omega 2019, 4, 12, 15120-15133.
     DOI: 10.1021/acsomega.9b02011
   
   for metadynamics refer to:
   * S. Grimme, J. Chem. Theory Comput., 2019, 155, 2847-2862
     DOI: 10.1021/acs.jctc.9b00143
   
   for SPH calculations refer to:
   * S. Spicher and S. Grimme, J. Chem. Theory Comput., 2021, 17, 1701-1714
     DOI: 10.1021/acs.jctc.0c01306
   
   with help from (in alphabetical order)
   P. Atkinson, C. Bannwarth, F. Bohle, G. Brandenburg, E. Caldeweyher
   M. Checinski, S. Dohm, S. Ehlert, S. Ehrlich, I. Gerasimov, C. Hölzer
   A. Katbashev, J. Koopman, C. Lavigne, S. Lehtola, F. März, M. Müller,
   F. Musil, H. Neugebauer, J. Pisarek, C. Plett, P. Pracht, F. Pultar,
   J. Seibert, P. Shushkov, S. Spicher, M. Stahn, M. Steiner, T. Strunk,
   J. Stückrath, T. Rose, and J. Unsleber
   
 * started run on 2024/11/12 at 09:34:18.876     

           -------------------------------------------------
          |                Calculation Setup                |
           -------------------------------------------------

          program call               : xtb opt_anion_Katherine1.mol --gfn2 --sp --chrg -1 --uhf 2
          coordinate file            : opt_anion_Katherine1.mol
          omp threads                :                     8

   ID    Z sym.   atoms
    1    6 C      1-21, 25-44, 47, 52-75
    2    8 O      22, 23, 45, 46, 48-51
    3    5 B      24
    4    1 H      76-141
########################################################################
[WARNING] Please study the warnings concerning your input carefully
-1- prog_main: Charge in sdf/mol input was overwritten
########################################################################

           -------------------------------------------------
          |                 G F N 2 - x T B                 |
           -------------------------------------------------

        Reference                      10.1021/acs.jctc.8b01176
      * Hamiltonian:
        H0-scaling (s, p, d)           1.850000    2.230000    2.230000
        zeta-weighting                 0.500000
      * Dispersion:
        s8                             2.700000
        a1                             0.520000
        a2                             5.000000
        s9                             5.000000
      * Repulsion:
        kExp                           1.500000    1.000000
        rExp                           1.000000
      * Coulomb:
        alpha                          2.000000
        third order                    shell-resolved
        anisotropic                    true
        a3                             3.000000
        a5                             4.000000
        cn-shift                       1.200000
        cn-exp                         4.000000
        max-rad                        5.000000

q/qsh data taken from xtbrestart
CAMM data taken from xtbrestart

          ...................................................
          :                      SETUP                      :
          :.................................................:
          :  # basis functions                 366          :
          :  # atomic orbitals                 366          :
          :  # shells                          216          :
          :  # electrons                       382          :
          :  max. iterations                   250          :
          :  Hamiltonian                  GFN2-xTB          :
          :  restarted?                       true          :
          :  GBSA solvation                  false          :
          :  PC potential                    false          :
          :  electronic temp.          300.0000000     K    :
          :  accuracy                    1.0000000          :
          :  -> integral cutoff          0.2500000E+02      :
          :  -> integral neglect         0.1000000E-07      :
          :  -> SCF convergence          0.1000000E-05 Eh   :
          :  -> wf. convergence          0.1000000E-03 e    :
          :  Broyden damping             0.4000000          :
          ...................................................

 iter      E             dE          RMSdq      gap      omega  full diag
   1   -212.4041555 -0.212404E+03  0.241E-01    1.14       0.0  T
   2   -212.4111168 -0.696130E-02  0.233E-01    1.31       1.0  T
   3   -212.4167120 -0.559519E-02  0.133E-01    1.24       1.0  T
   4   -212.4166104  0.101546E-03  0.991E-02    1.25       1.0  T
   5   -212.4171197 -0.509273E-03  0.411E-02    1.24       1.0  T
   6   -212.4172152 -0.955664E-04  0.112E-02    1.23       1.0  T
   7   -212.4172267 -0.114699E-04  0.477E-03    1.23       1.8  T
   8   -212.4172270 -0.269047E-06  0.262E-03    1.23       3.2  T
   9   -212.4172277 -0.761062E-06  0.745E-04    1.23      11.3  T
  10   -212.4172278 -0.709946E-07  0.339E-04    1.23      24.8  T

   *** convergence criteria satisfied after 10 iterations ***

         #    Occupation            Energy/Eh            Energy/eV
      -------------------------------------------------------------
         1        2.0000           -0.6051008             -16.4656
       ...           ...                  ...                  ...
       186        2.0000           -0.2966179              -8.0714
       187        2.0000           -0.2937012              -7.9920
       188        2.0000           -0.2920458              -7.9470
       189        2.0000           -0.2912515              -7.9254
       190        2.0000           -0.2893132              -7.8726
       191        1.0000           -0.2559433              -6.9646
       192        1.0000           -0.2528369              -6.8800 (HOMO)
       193                         -0.2074998              -5.6464 (LUMO)
       194                         -0.2067851              -5.6269
       195                         -0.1683143              -4.5801
       196                         -0.1663897              -4.5277
       197                         -0.1549226              -4.2157
       ...                                ...                  ...
       366                          0.8065751              21.9480
      -------------------------------------------------------------
                  HL-Gap            0.0453371 Eh            1.2337 eV
             Fermi-level           -0.2514466 Eh           -6.8422 eV

 transition dipole moment (au) for excitation:         191         192
     X       Y       Z   
   6.3667   0.6696   0.5507  total (au/Debye):    6.425  16.332
 dE (eV)             :    0.085
 oscillator strength :  0.12092E+00

 SCC (total)                   0 d,  0 h,  0 min,  1.417 sec
 SCC setup                      ...        0 min,  0.000 sec (  0.033%)
 Dispersion                     ...        0 min,  0.002 sec (  0.151%)
 classical contributions        ...        0 min,  0.000 sec (  0.032%)
 integral evaluation            ...        0 min,  0.009 sec (  0.616%)
 iterations                     ...        0 min,  1.315 sec ( 92.799%)
 molecular gradient             ...        0 min,  0.065 sec (  4.586%)
 printout                       ...        0 min,  0.025 sec (  1.781%)

         :::::::::::::::::::::::::::::::::::::::::::::::::::::
         ::                     SUMMARY                     ::
         :::::::::::::::::::::::::::::::::::::::::::::::::::::
         :: total energy            -209.288360182813 Eh    ::
         :: gradient norm              0.046224471259 Eh/a0 ::
         :: HOMO-LUMO gap              1.233685125654 eV    ::
         ::.................................................::
         :: SCC energy              -212.417227819987 Eh    ::
         :: -> isotropic ES            0.333255767122 Eh    ::
         :: -> anisotropic ES          0.016527270278 Eh    ::
         :: -> anisotropic XC          0.076184693813 Eh    ::
         :: -> dispersion             -0.202258453079 Eh    ::
         :: repulsion energy           3.125452689339 Eh    ::
         :: add. restraining           0.000000000000 Eh    ::
         :: total charge              -0.999896417979 e     ::
         :::::::::::::::::::::::::::::::::::::::::::::::::::::

           -------------------------------------------------
          |                Property Printout                |
           -------------------------------------------------

    * Orbital Energies and Occupations

         #    Occupation            Energy/Eh            Energy/eV
      -------------------------------------------------------------
         1        2.0000           -0.6051008             -16.4656
       ...           ...                  ...                  ...
       180        2.0000           -0.3171371              -8.6297
       181        2.0000           -0.3159446              -8.5973
       182        2.0000           -0.3152970              -8.5797
       183        2.0000           -0.3055510              -8.3145
       184        2.0000           -0.3036068              -8.2616
       185        2.0000           -0.3007035              -8.1826
       186        2.0000           -0.2966179              -8.0714
       187        2.0000           -0.2937012              -7.9920
       188        2.0000           -0.2920458              -7.9470
       189        2.0000           -0.2912515              -7.9254
       190        2.0000           -0.2893132              -7.8726
       191        1.0000           -0.2559433              -6.9646
       192        1.0000           -0.2528369              -6.8800 (HOMO)
       193                         -0.2074998              -5.6464 (LUMO)
       194                         -0.2067851              -5.6269
       195                         -0.1683143              -4.5801
       196                         -0.1663897              -4.5277
       197                         -0.1549226              -4.2157
       198                         -0.1530909              -4.1658
       199                         -0.1506958              -4.1006
       200                         -0.1493295              -4.0635
       201                         -0.1392832              -3.7901
       202                         -0.1345779              -3.6621
       203                         -0.1043222              -2.8388
       ...                                ...                  ...
       366                          0.8065751              21.9480
      -------------------------------------------------------------
                  HL-Gap            0.0453371 Eh            1.2337 eV
             Fermi-level           -0.2514466 Eh           -6.8422 eV

     #   Z          covCN         q      C6AA      α(0)
     1   6 C        2.931    -0.067    29.656     8.931
     2   6 C        2.852     0.175    24.243     8.070
     3   6 C        2.969    -0.013    28.333     8.731
     4   6 C        2.987    -0.025    28.607     8.774
     5   6 C        2.942    -0.039    28.978     8.829
     6   6 C        2.968     0.006    27.877     8.661
     7   6 C        2.966     0.019    27.575     8.613
     8   6 C        2.991     0.000    28.010     8.682
     9   6 C        2.983    -0.022    28.547     8.764
    10   6 C        2.844     0.216    23.454     7.937
    11   6 C        2.974    -0.013    28.337     8.732
    12   6 C        2.985    -0.029    28.718     8.791
    13   6 C        2.842     0.213    23.503     7.945
    14   6 C        2.982    -0.022    28.549     8.765
    15   6 C        2.932    -0.027    28.687     8.784
    16   6 C        2.969     0.004    27.930     8.669
    17   6 C        2.934    -0.023    28.591     8.769
    18   6 C        2.858     0.173    24.271     8.075
    19   6 C        2.929    -0.061    29.526     8.911
    20   6 C        2.970     0.008    27.833     8.654
    21   6 C        2.936    -0.043    29.060     8.841
    22   8 O        1.634    -0.401    20.879     6.168
    23   8 O        1.639    -0.406    20.968     6.181
    24   5 B        3.177     0.626    13.248     6.071
    25   6 C        2.929    -0.061    29.510     8.909
    26   6 C        2.861     0.174    24.266     8.074
    27   6 C        2.974    -0.012    28.304     8.727
    28   6 C        2.985    -0.029    28.719     8.791
    29   6 C        2.936    -0.042    29.050     8.839
    30   6 C        2.971     0.009    27.825     8.652
    31   6 C        2.965     0.020    27.564     8.612
    32   6 C        2.990     0.000    28.015     8.682
    33   6 C        2.982    -0.022    28.554     8.765
    34   6 C        2.968    -0.012    28.310     8.728
    35   6 C        2.986    -0.025    28.618     8.775
    36   6 C        2.846     0.215    23.457     7.938
    37   6 C        2.983    -0.022    28.549     8.765
    38   6 C        2.935    -0.024    28.595     8.770
    39   6 C        2.969     0.004    27.938     8.670
    40   6 C        2.933    -0.028    28.691     8.784
    41   6 C        2.855     0.175    24.234     8.069
    42   6 C        2.931    -0.065    29.607     8.924
    43   6 C        2.968     0.006    27.874     8.660
    44   6 C        2.943    -0.038    28.953     8.825
    45   8 O        1.633    -0.408    21.008     6.187
    46   8 O        1.638    -0.408    21.017     6.188
    47   6 C        2.843     0.213    23.507     7.946
    48   8 O        0.857    -0.430    22.299     6.331
    49   8 O        0.857    -0.433    22.354     6.339
    50   8 O        0.857    -0.430    22.280     6.328
    51   8 O        0.857    -0.432    22.340     6.337
    52   6 C        3.902     0.028    20.047     6.364
    53   6 C        3.761    -0.109    22.641     6.783
    54   6 C        3.760    -0.109    22.624     6.781
    55   6 C        3.765    -0.104    22.523     6.764
    56   6 C        3.903     0.027    20.068     6.368
    57   6 C        3.761    -0.108    22.613     6.779
    58   6 C        3.763    -0.104    22.523     6.765
    59   6 C        3.761    -0.104    22.526     6.766
    60   6 C        3.902     0.026    20.076     6.369
    61   6 C        3.762    -0.105    22.558     6.770
    62   6 C        3.761    -0.107    22.596     6.776
    63   6 C        3.761    -0.105    22.553     6.770
    64   6 C        3.903     0.027    20.068     6.368
    65   6 C        3.761    -0.104    22.525     6.766
    66   6 C        3.763    -0.103    22.509     6.763
    67   6 C        3.761    -0.108    22.612     6.779
    68   6 C        3.902     0.028    20.052     6.365
    69   6 C        3.764    -0.104    22.530     6.766
    70   6 C        3.760    -0.108    22.603     6.778
    71   6 C        3.761    -0.109    22.627     6.781
    72   6 C        3.902     0.026    20.077     6.369
    73   6 C        3.761    -0.105    22.550     6.769
    74   6 C        3.761    -0.107    22.596     6.776
    75   6 C        3.761    -0.105    22.560     6.771
    76   1 H        0.924     0.030     2.582     2.513
    77   1 H        0.925     0.037     2.483     2.464
    78   1 H        0.925     0.038     2.471     2.458
    79   1 H        0.925     0.032     2.562     2.503
    80   1 H        0.925     0.033     2.548     2.496
    81   1 H        0.925     0.040     2.447     2.446
    82   1 H        0.924     0.031     2.568     2.506
    83   1 H        0.925     0.041     2.432     2.439
    84   1 H        0.925     0.034     2.535     2.490
    85   1 H        0.924     0.031     2.578     2.511
    86   1 H        0.925     0.039     2.456     2.451
    87   1 H        0.925     0.040     2.444     2.445
    88   1 H        0.924     0.029     2.595     2.519
    89   1 H        0.925     0.035     2.515     2.480
    90   1 H        0.925     0.044     2.392     2.419
    91   1 H        0.924     0.033     2.541     2.493
    92   1 H        0.925     0.037     2.484     2.464
    93   1 H        0.925     0.032     2.552     2.498
    94   1 H        0.924     0.032     2.560     2.502
    95   1 H        0.925     0.041     2.432     2.439
    96   1 H        0.925     0.033     2.542     2.493
    97   1 H        0.924     0.031     2.570     2.507
    98   1 H        0.925     0.038     2.475     2.460
    99   1 H        0.925     0.038     2.475     2.460
   100   1 H        0.924     0.032     2.561     2.503
   101   1 H        0.925     0.033     2.537     2.491
   102   1 H        0.925     0.042     2.424     2.435
   103   1 H        0.924     0.032     2.562     2.503
   104   1 H        0.925     0.033     2.548     2.496
   105   1 H        0.925     0.040     2.443     2.444
   106   1 H        0.924     0.030     2.580     2.512
   107   1 H        0.925     0.038     2.481     2.463
   108   1 H        0.925     0.038     2.473     2.459
   109   1 H        0.925     0.032     2.564     2.504
   110   1 H        0.925     0.041     2.434     2.440
   111   1 H        0.925     0.034     2.533     2.489
   112   1 H        0.924     0.031     2.579     2.511
   113   1 H        0.925     0.034     2.525     2.485
   114   1 H        0.925     0.043     2.414     2.429
   115   1 H        0.924     0.032     2.564     2.504
   116   1 H        0.925     0.042     2.427     2.436
   117   1 H        0.925     0.033     2.540     2.492
   118   1 H        0.924     0.031     2.572     2.508
   119   1 H        0.925     0.038     2.469     2.457
   120   1 H        0.925     0.038     2.477     2.461
   121   1 H        0.924     0.030     2.594     2.518
   122   1 H        0.925     0.036     2.510     2.477
   123   1 H        0.925     0.044     2.390     2.417
   124   1 H        0.924     0.034     2.536     2.491
   125   1 H        0.925     0.037     2.491     2.468
   126   1 H        0.925     0.033     2.548     2.496
   127   1 H        0.924     0.030     2.584     2.514
   128   1 H        0.925     0.041     2.432     2.439
   129   1 H        0.925     0.040     2.451     2.448
   130   1 H        0.926     0.056     2.243     2.342
   131   1 H        0.926     0.052     2.298     2.371
   132   1 H        0.925     0.056     2.241     2.341
   133   1 H        0.926     0.061     2.184     2.311
   134   1 H        0.926     0.064     2.149     2.292
   135   1 H        0.926     0.049     2.333     2.389
   136   1 H        0.926     0.051     2.306     2.375
   137   1 H        0.926     0.056     2.242     2.342
   138   1 H        0.926     0.048     2.343     2.394
   139   1 H        0.926     0.065     2.147     2.291
   140   1 H        0.925     0.056     2.244     2.343
   141   1 H        0.926     0.061     2.181     2.310

 Mol. C6AA /au·bohr⁶  :     226973.372139
 Mol. C8AA /au·bohr⁸  :    5458945.001624
 Mol. α(0) /au        :        739.914354


Wiberg/Mayer (AO) data.
largest (>0.10) Wiberg bond orders for each atom

 ---------------------------------------------------------------------------
     #   Z sym  total        # sym  WBO       # sym  WBO       # sym  WBO
 ---------------------------------------------------------------------------
     1   6 C    3.973 --     6 C    1.408     2 C    1.361   131 H    0.960
     2   6 C    3.920 --     1 C    1.361     3 C    1.210    22 O    1.146
     3   6 C    3.976 --     4 C    1.252     7 C    1.249     2 C    1.210
     4   6 C    3.975 --     5 C    1.410     3 C    1.252    10 C    1.065
     5   6 C    3.969 --     4 C    1.410     6 C    1.380   130 H    0.958
     6   6 C    3.956 --     1 C    1.408     5 C    1.380    52 C    0.983
     7   6 C    3.943 --     3 C    1.249     8 C    1.219    11 C    1.175
     8   6 C    3.986 --    14 C    1.269     9 C    1.258     7 C    1.219
     9   6 C    3.979 --    17 C    1.405     8 C    1.258    10 C    1.069
    10   6 C    3.940 --    50 O    1.677     9 C    1.069     4 C    1.065
    11   6 C    3.979 --    12 C    1.277    18 C    1.252     7 C    1.175
    12   6 C    3.975 --    21 C    1.374    11 C    1.277    13 C    1.079
    13   6 C    3.939 --    51 O    1.670    12 C    1.079    14 C    1.063
    14   6 C    3.975 --    15 C    1.399     8 C    1.269    13 C    1.063
    15   6 C    3.982 --    16 C    1.405    14 C    1.399   133 H    0.959
    16   6 C    3.965 --    15 C    1.405    17 C    1.396    60 C    0.983
    17   6 C    3.983 --     9 C    1.405    16 C    1.396   132 H    0.958
    18   6 C    3.925 --    19 C    1.381    11 C    1.252    23 O    1.100
    19   6 C    3.975 --    20 C    1.390    18 C    1.381   135 H    0.956
    20   6 C    3.964 --    21 C    1.417    19 C    1.390    56 C    0.983
    21   6 C    3.971 --    20 C    1.417    12 C    1.374   134 H    0.957
    22   8 O    2.169 --     2 C    1.146    24 B    0.764
    23   8 O    2.158 --    18 C    1.100    24 B    0.820
    24   5 B    3.301 --    23 O    0.820    46 O    0.815    22 O    0.764
                            45 O    0.755
    25   6 C    3.975 --    30 C    1.391    26 C    1.382   138 H    0.956
    26   6 C    3.926 --    25 C    1.382    27 C    1.252    46 O    1.098
    27   6 C    3.975 --    28 C    1.276    26 C    1.252    31 C    1.180
    28   6 C    3.975 --    29 C    1.376    27 C    1.276    47 C    1.079
    29   6 C    3.971 --    30 C    1.415    28 C    1.376   139 H    0.957
    30   6 C    3.964 --    29 C    1.415    25 C    1.391    64 C    0.983
    31   6 C    3.942 --    34 C    1.242    32 C    1.218    27 C    1.180
    32   6 C    3.986 --    33 C    1.270    37 C    1.260    31 C    1.218
    33   6 C    3.975 --    40 C    1.398    32 C    1.270    47 C    1.064
    34   6 C    3.977 --    35 C    1.255    31 C    1.242    41 C    1.217
    35   6 C    3.976 --    44 C    1.408    34 C    1.255    36 C    1.066
    36   6 C    3.940 --    48 O    1.677    37 C    1.068    35 C    1.066
    37   6 C    3.979 --    38 C    1.405    32 C    1.260    36 C    1.068
    38   6 C    3.983 --    37 C    1.405    39 C    1.396   140 H    0.958
    39   6 C    3.965 --    40 C    1.406    38 C    1.396    72 C    0.982
    40   6 C    3.982 --    39 C    1.406    33 C    1.398   141 H    0.959
    41   6 C    3.922 --    42 C    1.362    34 C    1.217    45 O    1.138
    42   6 C    3.974 --    43 C    1.411    41 C    1.362   136 H    0.960
    43   6 C    3.953 --    42 C    1.411    44 C    1.382    68 C    0.983
    44   6 C    3.969 --    35 C    1.408    43 C    1.382   137 H    0.958
    45   8 O    2.148 --    41 C    1.138    24 B    0.755
    46   8 O    2.149 --    26 C    1.098    24 B    0.815
    47   6 C    3.939 --    49 O    1.670    28 C    1.079    33 C    1.064
    48   8 O    1.964 --    36 C    1.677
    49   8 O    1.958 --    47 C    1.670
    50   8 O    1.965 --    10 C    1.677
    51   8 O    1.958 --    13 C    1.670
    52   6 C    3.990 --    53 C    1.000    54 C    0.992     6 C    0.983
                            55 C    0.980
    53   6 C    3.996 --    52 C    1.000   121 H    0.985   122 H    0.984
                           123 H    0.979
    54   6 C    3.994 --    52 C    0.992   127 H    0.985   128 H    0.982
                           129 H    0.982
    55   6 C    3.992 --   126 H    0.987   125 H    0.986   124 H    0.984
                            52 C    0.980
    56   6 C    3.990 --    57 C    1.000    59 C    0.989    58 C    0.985
                            20 C    0.983
    57   6 C    3.996 --    56 C    1.000    97 H    0.985    99 H    0.985
                            98 H    0.985
    58   6 C    3.994 --    96 H    0.986    56 C    0.985    94 H    0.984
                            95 H    0.980
    59   6 C    3.994 --    56 C    0.989   101 H    0.987   100 H    0.985
                           102 H    0.976
    60   6 C    3.990 --    62 C    1.000    61 C    0.987    63 C    0.987
                            16 C    0.983
    61   6 C    3.994 --    60 C    0.987   111 H    0.987   109 H    0.985
                           110 H    0.983
    62   6 C    3.996 --    60 C    1.000   106 H    0.985   107 H    0.985
                           108 H    0.984
    63   6 C    3.994 --    60 C    0.987   104 H    0.987   103 H    0.985
                           105 H    0.983
    64   6 C    3.990 --    67 C    0.999    65 C    0.990    66 C    0.984
                            30 C    0.983
    65   6 C    3.994 --    64 C    0.990   113 H    0.987   112 H    0.984
                           114 H    0.977
    66   6 C    3.993 --   117 H    0.986    64 C    0.984   115 H    0.984
                           116 H    0.980
    67   6 C    3.996 --    64 C    0.999   118 H    0.985   120 H    0.985
                           119 H    0.984
    68   6 C    3.990 --    71 C    1.000    70 C    0.991    43 C    0.983
                            69 C    0.981
    69   6 C    3.992 --    93 H    0.987    92 H    0.985    91 H    0.984
                            68 C    0.981
    70   6 C    3.994 --    68 C    0.991    85 H    0.985    86 H    0.982
                            87 H    0.982
    71   6 C    3.996 --    68 C    1.000    88 H    0.985    89 H    0.984
                            90 H    0.979
    72   6 C    3.990 --    74 C    1.000    75 C    0.988    73 C    0.987
                            39 C    0.982
    73   6 C    3.994 --    80 H    0.987    72 C    0.987    79 H    0.985
                            81 H    0.984
    74   6 C    3.996 --    72 C    1.000    76 H    0.985    77 H    0.985
                            78 H    0.984
    75   6 C    3.994 --    72 C    0.988    84 H    0.987    82 H    0.985
                            83 H    0.983
    76   1 H    0.999 --    74 C    0.985
    77   1 H    0.999 --    74 C    0.985
    78   1 H    0.999 --    74 C    0.984
    79   1 H    0.998 --    73 C    0.985
    80   1 H    0.999 --    73 C    0.987
    81   1 H    0.998 --    73 C    0.984
    82   1 H    0.998 --    75 C    0.985
    83   1 H    0.998 --    75 C    0.983
    84   1 H    0.999 --    75 C    0.987
    85   1 H    0.998 --    70 C    0.985
    86   1 H    0.998 --    70 C    0.982
Note: The following floating-point exceptions are signalling: IEEE_UNDERFLOW_FLAG
normal termination of xtb
    87   1 H    0.998 --    70 C    0.982
    88   1 H    0.999 --    71 C    0.985
    89   1 H    0.999 --    71 C    0.984
    90   1 H    0.998 --    71 C    0.979
    91   1 H    0.998 --    69 C    0.984
    92   1 H    0.999 --    69 C    0.985
    93   1 H    0.999 --    69 C    0.987
    94   1 H    0.998 --    58 C    0.984
    95   1 H    0.998 --    58 C    0.980
    96   1 H    0.999 --    58 C    0.986
    97   1 H    0.999 --    57 C    0.985
    98   1 H    0.998 --    57 C    0.985
    99   1 H    0.999 --    57 C    0.985
   100   1 H    0.998 --    59 C    0.985
   101   1 H    0.999 --    59 C    0.987
   102   1 H    0.998 --    59 C    0.976
   103   1 H    0.998 --    63 C    0.985
   104   1 H    0.999 --    63 C    0.987
   105   1 H    0.998 --    63 C    0.983
   106   1 H    0.999 --    62 C    0.985
   107   1 H    0.999 --    62 C    0.985
   108   1 H    0.999 --    62 C    0.984
   109   1 H    0.998 --    61 C    0.985
   110   1 H    0.998 --    61 C    0.983
   111   1 H    0.999 --    61 C    0.987
   112   1 H    0.998 --    65 C    0.984
   113   1 H    0.999 --    65 C    0.987
   114   1 H    0.998 --    65 C    0.977
   115   1 H    0.998 --    66 C    0.984
   116   1 H    0.998 --    66 C    0.980
   117   1 H    0.999 --    66 C    0.986
   118   1 H    0.999 --    67 C    0.985
   119   1 H    0.998 --    67 C    0.984
   120   1 H    0.999 --    67 C    0.985
   121   1 H    0.999 --    53 C    0.985
   122   1 H    0.999 --    53 C    0.984
   123   1 H    0.998 --    53 C    0.979
   124   1 H    0.997 --    55 C    0.984
   125   1 H    0.999 --    55 C    0.986
   126   1 H    0.999 --    55 C    0.987
   127   1 H    0.998 --    54 C    0.985
   128   1 H    0.998 --    54 C    0.982
   129   1 H    0.998 --    54 C    0.982
   130   1 H    0.996 --     5 C    0.958
   131   1 H    0.997 --     1 C    0.960
   132   1 H    0.996 --    17 C    0.958
   133   1 H    0.996 --    15 C    0.959
   134   1 H    0.995 --    21 C    0.957
   135   1 H    0.997 --    19 C    0.956
   136   1 H    0.997 --    42 C    0.960
   137   1 H    0.996 --    44 C    0.958
   138   1 H    0.997 --    25 C    0.956
   139   1 H    0.995 --    29 C    0.957
   140   1 H    0.996 --    38 C    0.958
   141   1 H    0.996 --    40 C    0.959
 ---------------------------------------------------------------------------

Topologies differ in bond orders
Writing corrected topology to xtbtopo.mol

molecular dipole:
                 x           y           z       tot (Debye)
 q only:       -0.157      -0.359       1.298
   full:       -0.180      -0.369       1.463       3.863
molecular quadrupole (traceless):
                xx          xy          yy          xz          yz          zz
 q only:      -58.421      10.702      12.843      -7.035      -3.282      45.578
  q+dip:      -63.574      13.721      13.752      -7.397      -3.262      49.822
   full:      -62.133      14.628       8.081      -7.414      -4.847      54.052


           -------------------------------------------------
          | TOTAL ENERGY             -209.288360182813 Eh   |
          | GRADIENT NORM               0.046224471259 Eh/α |
          | HOMO-LUMO GAP               1.233685125654 eV   |
           -------------------------------------------------
########################################################################
[WARNING] Runtime exception occurred
-1- restart_readRestart: Number of electron missmatch in restart file.
########################################################################

------------------------------------------------------------------------
 * finished run on 2024/11/12 at 09:34:20.313     
------------------------------------------------------------------------
 total:
 * wall-time:     0 d,  0 h,  0 min,  1.436 sec
 *  cpu-time:     0 d,  0 h,  0 min,  5.701 sec
 * ratio c/w:     3.970 speedup
 SCF:
 * wall-time:     0 d,  0 h,  0 min,  1.418 sec
 *  cpu-time:     0 d,  0 h,  0 min,  5.662 sec
 * ratio c/w:     3.994 speedup

