      -----------------------------------------------------------      
     |                   =====================                   |     
     |                           x T B                           |     
     |                   =====================                   |     
     |                         S. Grimme                         |     
     |          Mulliken Center for Theoretical Chemistry        |     
     |                    University of Bonn                     |     
      -----------------------------------------------------------      

   * xtb version 6.6.1 (8d0f1dd) compiled by 'runner@Mac-1690902418499.local' on 2023-08-01

   xtb is free software: you can redistribute it and/or modify it under
   the terms of the GNU Lesser General Public License as published by
   the Free Software Foundation, either version 3 of the License, or
   (at your option) any later version.
   
   xtb is distributed in the hope that it will be useful,
   but WITHOUT ANY WARRANTY; without even the implied warranty of
   MERCHANTABILITY or FITNESS FOR A PARTICULAR PURPOSE.  See the
   GNU Lesser General Public License for more details.
   
   Cite this work as:
   * C. Bannwarth, E. Caldeweyher, S. Ehlert, A. Hansen, P. Pracht,
     J. Seibert, S. Spicher, S. Grimme, WIREs Comput. Mol. Sci., 2020, 11,
     e01493. DOI: 10.1002/wcms.1493
   
   for GFN2-xTB:
   * C. Bannwarth, S. Ehlert and S. Grimme., J. Chem. Theory Comput., 2019,
     15, 1652-1671. DOI: 10.1021/acs.jctc.8b01176
   for GFN1-xTB:
   * S. Grimme, C. Bannwarth, P. Shushkov, J. Chem. Theory Comput., 2017,
     13, 1989-2009. DOI: 10.1021/acs.jctc.7b00118
   for GFN0-xTB:
   * P. Pracht, E. Caldeweyher, S. Ehlert, S. Grimme, ChemRxiv, 2019, preprint.
     DOI: 10.26434/chemrxiv.8326202.v1
   for GFN-FF:
   * S. Spicher and S. Grimme, Angew. Chem. Int. Ed., 2020, 59, 15665-15673.
     DOI: 10.1002/anie.202004239
   
   for ALPB and GBSA implicit solvation:
   * S. Ehlert, M. Stahn, S. Spicher, S. Grimme, J. Chem. Theory Comput.,
     2021, 17, 4250-4261. DOI: 10.1021/acs.jctc.1c00471
   
   for DFT-D4:
   * E. Caldeweyher, C. Bannwarth and S. Grimme, J. Chem. Phys., 2017,
     147, 034112. DOI: 10.1063/1.4993215
   * E. Caldeweyher, S. Ehlert, A. Hansen, H. Neugebauer, S. Spicher,
     C. Bannwarth and S. Grimme, J. Chem. Phys., 2019, 150, 154122.
     DOI: 10.1063/1.5090222
   * E. Caldeweyher, J.-M. Mewes, S. Ehlert and S. Grimme, Phys. Chem. Chem. Phys.
     2020, 22, 8499-8512. DOI: 10.1039/D0CP00502A
   
   for sTDA-xTB:
   * S. Grimme and C. Bannwarth, J. Chem. Phys., 2016, 145, 054103.
     DOI: 10.1063/1.4959605
   
   in the mass-spec context:
   * V. Asgeirsson, C. Bauer and S. Grimme, Chem. Sci., 2017, 8, 4879.
     DOI: 10.1039/c7sc00601b
   * J. Koopman and S. Grimme, ACS Omega 2019, 4, 12, 15120-15133.
     DOI: 10.1021/acsomega.9b02011
   
   for metadynamics refer to:
   * S. Grimme, J. Chem. Theory Comput., 2019, 155, 2847-2862
     DOI: 10.1021/acs.jctc.9b00143
   
   for SPH calculations refer to:
   * S. Spicher and S. Grimme, J. Chem. Theory Comput., 2021, 17, 1701-1714
     DOI: 10.1021/acs.jctc.0c01306
   
   with help from (in alphabetical order)
   P. Atkinson, C. Bannwarth, F. Bohle, G. Brandenburg, E. Caldeweyher
   M. Checinski, S. Dohm, S. Ehlert, S. Ehrlich, I. Gerasimov, C. Hölzer
   A. Katbashev, J. Koopman, C. Lavigne, S. Lehtola, F. März, M. Müller,
   F. Musil, H. Neugebauer, J. Pisarek, C. Plett, P. Pracht, F. Pultar,
   J. Seibert, P. Shushkov, S. Spicher, M. Stahn, M. Steiner, T. Strunk,
   J. Stückrath, T. Rose, and J. Unsleber
   
 * started run on 2024/11/12 at 09:34:16.041     

           -------------------------------------------------
          |                Calculation Setup                |
           -------------------------------------------------

          program call               : xtb opt_radical_Katherine1.mol --gfn2 --sp --chrg -1 --uhf 2
          coordinate file            : opt_radical_Katherine1.mol
          omp threads                :                     8

   ID    Z sym.   atoms
    1    6 C      1-21, 25-44, 47, 52-75
    2    8 O      22, 23, 45, 46, 48-51
    3    5 B      24
    4    1 H      76-141
########################################################################
[WARNING] Please study the warnings concerning your input carefully
-1- prog_main: Charge in sdf/mol input was overwritten
########################################################################

           -------------------------------------------------
          |                 G F N 2 - x T B                 |
           -------------------------------------------------

        Reference                      10.1021/acs.jctc.8b01176
      * Hamiltonian:
        H0-scaling (s, p, d)           1.850000    2.230000    2.230000
        zeta-weighting                 0.500000
      * Dispersion:
        s8                             2.700000
        a1                             0.520000
        a2                             5.000000
        s9                             5.000000
      * Repulsion:
        kExp                           1.500000    1.000000
        rExp                           1.000000
      * Coulomb:
        alpha                          2.000000
        third order                    shell-resolved
        anisotropic                    true
        a3                             3.000000
        a5                             4.000000
        cn-shift                       1.200000
        cn-exp                         4.000000
        max-rad                        5.000000

q/qsh data taken from xtbrestart
CAMM data taken from xtbrestart

          ...................................................
          :                      SETUP                      :
          :.................................................:
          :  # basis functions                 366          :
          :  # atomic orbitals                 366          :
          :  # shells                          216          :
          :  # electrons                       382          :
          :  max. iterations                   250          :
          :  Hamiltonian                  GFN2-xTB          :
          :  restarted?                       true          :
          :  GBSA solvation                  false          :
          :  PC potential                    false          :
          :  electronic temp.          300.0000000     K    :
          :  accuracy                    1.0000000          :
          :  -> integral cutoff          0.2500000E+02      :
          :  -> integral neglect         0.1000000E-07      :
          :  -> SCF convergence          0.1000000E-05 Eh   :
          :  -> wf. convergence          0.1000000E-03 e    :
          :  Broyden damping             0.4000000          :
          ...................................................

 iter      E             dE          RMSdq      gap      omega  full diag
   1   -212.4185619 -0.212419E+03  0.314E-01    1.34       0.0  T
   2   -212.4255956 -0.703364E-02  0.258E-01    1.14       1.0  T
   3   -212.4309005 -0.530489E-02  0.147E-01    1.24       1.0  T
   4   -212.4313654 -0.464877E-03  0.919E-02    1.22       1.0  T
   5   -212.4317390 -0.373650E-03  0.396E-02    1.22       1.0  T
   6   -212.4318635 -0.124463E-03  0.117E-02    1.23       1.0  T
   7   -212.4318811 -0.176155E-04  0.507E-03    1.22       1.7  T
   8   -212.4318820 -0.895371E-06  0.281E-03    1.23       3.0  T
   9   -212.4318829 -0.933507E-06  0.741E-04    1.23      11.4  T
  10   -212.4318830 -0.484899E-07  0.322E-04    1.23      26.2  T

   *** convergence criteria satisfied after 10 iterations ***

         #    Occupation            Energy/Eh            Energy/eV
      -------------------------------------------------------------
         1        2.0000           -0.6051472             -16.4669
       ...           ...                  ...                  ...
       186        2.0000           -0.2953503              -8.0369
       187        2.0000           -0.2925693              -7.9612
       188        2.0000           -0.2911534              -7.9227
       189        2.0000           -0.2904483              -7.9035
       190        2.0000           -0.2882178              -7.8428
       191        1.0000           -0.2526153              -6.8740
       192        1.0000           -0.2498517              -6.7988 (HOMO)
       193                         -0.2048226              -5.5735 (LUMO)
       194                         -0.2046964              -5.5701
       195                         -0.1671438              -4.5482
       196                         -0.1659256              -4.5151
       197                         -0.1518057              -4.1308
       ...                                ...                  ...
       366                          0.8175828              22.2476
      -------------------------------------------------------------
                  HL-Gap            0.0450291 Eh            1.2253 eV
             Fermi-level           -0.2489890 Eh           -6.7753 eV

 transition dipole moment (au) for excitation:         191         192
     X       Y       Z   
   6.3863   0.7053   0.6891  total (au/Debye):    6.462  16.425
 dE (eV)             :    0.075
 oscillator strength :  0.10880E+00

 SCC (total)                   0 d,  0 h,  0 min,  0.823 sec
 SCC setup                      ...        0 min,  0.001 sec (  0.088%)
 Dispersion                     ...        0 min,  0.002 sec (  0.225%)
 classical contributions        ...        0 min,  0.001 sec (  0.066%)
 integral evaluation            ...        0 min,  0.010 sec (  1.172%)
 iterations                     ...        0 min,  0.697 sec ( 84.700%)
 molecular gradient             ...        0 min,  0.064 sec (  7.789%)
 printout                       ...        0 min,  0.049 sec (  5.958%)

         :::::::::::::::::::::::::::::::::::::::::::::::::::::
         ::                     SUMMARY                     ::
         :::::::::::::::::::::::::::::::::::::::::::::::::::::
         :: total energy            -209.290064120314 Eh    ::
         :: gradient norm              0.000727331865 Eh/a0 ::
         :: HOMO-LUMO gap              1.225303678112 eV    ::
         ::.................................................::
         :: SCC energy              -212.431882956426 Eh    ::
         :: -> isotropic ES            0.329547638590 Eh    ::
         :: -> anisotropic ES          0.016993768913 Eh    ::
         :: -> anisotropic XC          0.075729987193 Eh    ::
         :: -> dispersion             -0.202691586362 Eh    ::
         :: repulsion energy           3.138208774485 Eh    ::
         :: add. restraining           0.000000000000 Eh    ::
         :: total charge              -1.000109894301 e     ::
         :::::::::::::::::::::::::::::::::::::::::::::::::::::

           -------------------------------------------------
          |                Property Printout                |
           -------------------------------------------------

    * Orbital Energies and Occupations

         #    Occupation            Energy/Eh            Energy/eV
      -------------------------------------------------------------
         1        2.0000           -0.6051472             -16.4669
       ...           ...                  ...                  ...
       180        2.0000           -0.3161935              -8.6041
       181        2.0000           -0.3150020              -8.5716
       182        2.0000           -0.3148135              -8.5665
       183        2.0000           -0.3049150              -8.2972
       184        2.0000           -0.3021565              -8.2221
       185        2.0000           -0.3002391              -8.1699
       186        2.0000           -0.2953503              -8.0369
       187        2.0000           -0.2925693              -7.9612
       188        2.0000           -0.2911534              -7.9227
       189        2.0000           -0.2904483              -7.9035
       190        2.0000           -0.2882178              -7.8428
       191        1.0000           -0.2526153              -6.8740
       192        1.0000           -0.2498517              -6.7988 (HOMO)
       193                         -0.2048226              -5.5735 (LUMO)
       194                         -0.2046964              -5.5701
       195                         -0.1671438              -4.5482
       196                         -0.1659256              -4.5151
       197                         -0.1518057              -4.1308
       198                         -0.1515701              -4.1244
       199                         -0.1486081              -4.0438
       200                         -0.1484012              -4.0382
       201                         -0.1381864              -3.7602
       202                         -0.1335362              -3.6337
       203                         -0.1033041              -2.8110
       ...                                ...                  ...
       366                          0.8175828              22.2476
      -------------------------------------------------------------
                  HL-Gap            0.0450291 Eh            1.2253 eV
             Fermi-level           -0.2489890 Eh           -6.7753 eV

     #   Z          covCN         q      C6AA      α(0)
     1   6 C        2.929    -0.067    29.669     8.933
     2   6 C        2.855     0.176    24.212     8.065
     3   6 C        2.969    -0.013    28.337     8.732
     4   6 C        2.986    -0.025    28.623     8.776
     5   6 C        2.939    -0.040    28.995     8.831
     6   6 C        2.970     0.006    27.890     8.663
     7   6 C        2.966     0.018    27.615     8.620
     8   6 C        2.990     0.001    28.004     8.681
     9   6 C        2.983    -0.023    28.572     8.768
    10   6 C        2.842     0.218    23.407     7.929
    11   6 C        2.974    -0.013    28.329     8.731
    12   6 C        2.984    -0.030    28.741     8.794
    13   6 C        2.840     0.215    23.471     7.939
    14   6 C        2.982    -0.023    28.576     8.769
    15   6 C        2.931    -0.028    28.710     8.787
    16   6 C        2.970     0.003    27.950     8.672
    17   6 C        2.934    -0.024    28.608     8.772
    18   6 C        2.862     0.173    24.282     8.077
    19   6 C        2.928    -0.061    29.525     8.911
    20   6 C        2.971     0.008    27.847     8.656
    21   6 C        2.935    -0.043    29.071     8.843
    22   8 O        1.632    -0.402    20.903     6.171
    23   8 O        1.639    -0.406    20.965     6.181
    24   5 B        3.184     0.626    13.243     6.069
    25   6 C        2.928    -0.061    29.525     8.911
    26   6 C        2.862     0.173    24.280     8.077
    27   6 C        2.974    -0.013    28.324     8.730
    28   6 C        2.984    -0.030    28.741     8.794
    29   6 C        2.935    -0.043    29.069     8.842
    30   6 C        2.971     0.008    27.846     8.656
    31   6 C        2.966     0.018    27.613     8.619
    32   6 C        2.990     0.001    28.005     8.681
    33   6 C        2.982    -0.023    28.577     8.769
    34   6 C        2.968    -0.013    28.334     8.731
    35   6 C        2.986    -0.025    28.626     8.776
    36   6 C        2.843     0.218    23.409     7.929
    37   6 C        2.983    -0.023    28.572     8.768
    38   6 C        2.934    -0.024    28.608     8.772
    39   6 C        2.970     0.003    27.950     8.672
    40   6 C        2.931    -0.028    28.709     8.787
    41   6 C        2.855     0.176    24.213     8.065
    42   6 C        2.929    -0.067    29.660     8.931
    43   6 C        2.970     0.006    27.889     8.662
    44   6 C        2.939    -0.040    28.988     8.830
    45   8 O        1.632    -0.403    20.921     6.174
    46   8 O        1.639    -0.406    20.972     6.182
    47   6 C        2.840     0.215    23.470     7.939
    48   8 O        0.857    -0.422    22.135     6.308
    49   8 O        0.858    -0.427    22.225     6.321
    50   8 O        0.857    -0.422    22.127     6.307
    51   8 O        0.858    -0.427    22.224     6.321
    52   6 C        3.902     0.028    20.047     6.364
    53   6 C        3.760    -0.109    22.633     6.782
    54   6 C        3.760    -0.108    22.611     6.779
    55   6 C        3.765    -0.104    22.521     6.764
    56   6 C        3.903     0.027    20.065     6.367
    57   6 C        3.761    -0.108    22.609     6.778
    58   6 C        3.763    -0.103    22.519     6.764
    59   6 C        3.761    -0.104    22.530     6.766
    60   6 C        3.903     0.026    20.075     6.369
    61   6 C        3.762    -0.105    22.558     6.770
    62   6 C        3.761    -0.107    22.594     6.776
    63   6 C        3.761    -0.105    22.548     6.769
    64   6 C        3.903     0.027    20.065     6.367
    65   6 C        3.761    -0.104    22.531     6.767
    66   6 C        3.763    -0.103    22.518     6.764
    67   6 C        3.761    -0.108    22.608     6.778
    68   6 C        3.902     0.028    20.048     6.365
    69   6 C        3.765    -0.104    22.523     6.764
    70   6 C        3.760    -0.108    22.608     6.778
    71   6 C        3.760    -0.109    22.630     6.782
    72   6 C        3.903     0.026    20.075     6.369
    73   6 C        3.761    -0.105    22.547     6.769
    74   6 C        3.761    -0.107    22.594     6.776
    75   6 C        3.762    -0.105    22.559     6.771
    76   1 H        0.925     0.030     2.583     2.513
    77   1 H        0.925     0.038     2.482     2.464
    78   1 H        0.925     0.038     2.473     2.459
    79   1 H        0.925     0.032     2.563     2.503
    80   1 H        0.925     0.033     2.550     2.497
    81   1 H        0.925     0.040     2.452     2.449
    82   1 H        0.925     0.031     2.569     2.507
    83   1 H        0.925     0.041     2.435     2.440
    84   1 H        0.925     0.034     2.533     2.489
    85   1 H        0.925     0.031     2.579     2.511
    86   1 H        0.925     0.041     2.442     2.444
    87   1 H        0.925     0.039     2.457     2.451
    88   1 H        0.925     0.029     2.598     2.520
    89   1 H        0.925     0.035     2.513     2.479
    90   1 H        0.925     0.045     2.385     2.415
    91   1 H        0.925     0.034     2.537     2.491
    92   1 H        0.925     0.036     2.496     2.471
    93   1 H        0.925     0.033     2.547     2.496
    94   1 H        0.925     0.032     2.565     2.504
    95   1 H        0.925     0.041     2.432     2.439
    96   1 H        0.925     0.033     2.540     2.492
    97   1 H        0.925     0.031     2.574     2.509
    98   1 H        0.925     0.038     2.472     2.459
    99   1 H        0.925     0.038     2.478     2.462
   100   1 H        0.925     0.031     2.567     2.505
   101   1 H        0.925     0.034     2.537     2.491
   102   1 H        0.925     0.042     2.418     2.432
   103   1 H        0.925     0.032     2.564     2.504
   104   1 H        0.925     0.033     2.550     2.497
   105   1 H        0.925     0.040     2.451     2.448
   106   1 H        0.925     0.030     2.583     2.513
   107   1 H        0.925     0.038     2.482     2.464
   108   1 H        0.925     0.038     2.473     2.459
   109   1 H        0.925     0.031     2.568     2.506
   110   1 H        0.925     0.041     2.435     2.440
   111   1 H        0.925     0.034     2.533     2.489
   112   1 H        0.925     0.031     2.569     2.506
   113   1 H        0.925     0.034     2.535     2.490
   114   1 H        0.925     0.042     2.416     2.431
   115   1 H        0.925     0.031     2.565     2.505
   116   1 H        0.925     0.041     2.430     2.438
   117   1 H        0.925     0.033     2.540     2.492
   118   1 H        0.925     0.031     2.574     2.509
   119   1 H        0.925     0.038     2.472     2.459
   120   1 H        0.925     0.038     2.478     2.462
   121   1 H        0.925     0.029     2.598     2.521
   122   1 H        0.925     0.035     2.513     2.479
   123   1 H        0.925     0.045     2.381     2.413
   124   1 H        0.925     0.034     2.535     2.490
   125   1 H        0.925     0.036     2.500     2.473
   126   1 H        0.925     0.033     2.545     2.495
   127   1 H        0.925     0.031     2.579     2.511
   128   1 H        0.925     0.041     2.437     2.441
   129   1 H        0.925     0.039     2.459     2.452
   130   1 H        0.926     0.055     2.263     2.352
   131   1 H        0.926     0.050     2.317     2.380
   132   1 H        0.926     0.055     2.264     2.353
   133   1 H        0.926     0.060     2.198     2.318
   134   1 H        0.926     0.063     2.166     2.302
   135   1 H        0.926     0.048     2.344     2.394
   136   1 H        0.926     0.050     2.317     2.380
   137   1 H        0.926     0.055     2.264     2.353
   138   1 H        0.926     0.048     2.344     2.394
   139   1 H        0.926     0.063     2.166     2.302
   140   1 H        0.926     0.054     2.265     2.353
   141   1 H        0.926     0.060     2.198     2.318

 Mol. C6AA /au·bohr⁶  :     227015.590165
 Mol. C8AA /au·bohr⁸  :    5459611.410311
 Mol. α(0) /au        :        739.999904


Wiberg/Mayer (AO) data.
largest (>0.10) Wiberg bond orders for each atom

 ---------------------------------------------------------------------------
     #   Z sym  total        # sym  WBO       # sym  WBO       # sym  WBO
 ---------------------------------------------------------------------------
     1   6 C    3.973 --     6 C    1.424     2 C    1.348   131 H    0.960
     2   6 C    3.920 --     1 C    1.348     3 C    1.210    22 O    1.154
     3   6 C    3.977 --     7 C    1.260     4 C    1.244     2 C    1.210
     4   6 C    3.976 --     5 C    1.429     3 C    1.244    10 C    1.054
     5   6 C    3.969 --     4 C    1.429     6 C    1.361   130 H    0.959
     6   6 C    3.956 --     1 C    1.424     5 C    1.361    52 C    0.985
     7   6 C    3.941 --     3 C    1.260     8 C    1.200    11 C    1.178
     8   6 C    3.986 --    14 C    1.280     9 C    1.267     7 C    1.200
     9   6 C    3.980 --    17 C    1.405     8 C    1.267    10 C    1.059
    10   6 C    3.938 --    50 O    1.695     9 C    1.059     4 C    1.054
    11   6 C    3.980 --    12 C    1.274    18 C    1.257     7 C    1.178
    12   6 C    3.975 --    21 C    1.385    11 C    1.274    13 C    1.070
    13   6 C    3.937 --    51 O    1.685    12 C    1.070    14 C    1.055
    14   6 C    3.976 --    15 C    1.397     8 C    1.280    13 C    1.055
    15   6 C    3.983 --    16 C    1.407    14 C    1.397   133 H    0.959
    16   6 C    3.966 --    15 C    1.407    17 C    1.396    60 C    0.983
    17   6 C    3.984 --     9 C    1.405    16 C    1.396   132 H    0.959
    18   6 C    3.925 --    19 C    1.378    11 C    1.257    23 O    1.095
    19   6 C    3.976 --    20 C    1.398    18 C    1.378   135 H    0.956
    20   6 C    3.964 --    21 C    1.406    19 C    1.398    56 C    0.983
    21   6 C    3.972 --    20 C    1.406    12 C    1.385   134 H    0.958
    22   8 O    2.163 --     2 C    1.154    24 B    0.749
    23   8 O    2.158 --    18 C    1.095    24 B    0.828
    24   5 B    3.301 --    23 O    0.828    46 O    0.827    22 O    0.749
                            45 O    0.749
    25   6 C    3.976 --    30 C    1.398    26 C    1.378   138 H    0.956
    26   6 C    3.925 --    25 C    1.378    27 C    1.257    46 O    1.095
    27   6 C    3.980 --    28 C    1.274    26 C    1.257    31 C    1.178
    28   6 C    3.975 --    29 C    1.385    27 C    1.274    47 C    1.070
    29   6 C    3.972 --    30 C    1.406    28 C    1.385   139 H    0.958
    30   6 C    3.964 --    29 C    1.406    25 C    1.398    64 C    0.983
    31   6 C    3.941 --    34 C    1.259    32 C    1.200    27 C    1.178
    32   6 C    3.986 --    33 C    1.280    37 C    1.267    31 C    1.200
    33   6 C    3.976 --    40 C    1.397    32 C    1.280    47 C    1.055
    34   6 C    3.977 --    31 C    1.259    35 C    1.244    41 C    1.211
    35   6 C    3.976 --    44 C    1.429    34 C    1.244    36 C    1.054
    36   6 C    3.938 --    48 O    1.695    37 C    1.060    35 C    1.054
    37   6 C    3.980 --    38 C    1.405    32 C    1.267    36 C    1.060
    38   6 C    3.984 --    37 C    1.405    39 C    1.396   140 H    0.959
    39   6 C    3.966 --    40 C    1.407    38 C    1.396    72 C    0.983
    40   6 C    3.983 --    39 C    1.407    33 C    1.397   141 H    0.959
    41   6 C    3.920 --    42 C    1.349    34 C    1.211    45 O    1.152
    42   6 C    3.974 --    43 C    1.425    41 C    1.349   136 H    0.960
    43   6 C    3.956 --    42 C    1.425    44 C    1.361    68 C    0.985
    44   6 C    3.969 --    35 C    1.429    43 C    1.361   137 H    0.959
    45   8 O    2.160 --    41 C    1.152    24 B    0.749
    46   8 O    2.157 --    26 C    1.095    24 B    0.827
    47   6 C    3.937 --    49 O    1.685    28 C    1.070    33 C    1.055
    48   8 O    1.979 --    36 C    1.695
    49   8 O    1.969 --    47 C    1.685
    50   8 O    1.979 --    10 C    1.695
    51   8 O    1.969 --    13 C    1.685
    52   6 C    3.990 --    53 C    0.999    54 C    0.992     6 C    0.985
                            55 C    0.979
    53   6 C    3.996 --    52 C    0.999   121 H    0.985   122 H    0.984
                           123 H    0.979
    54   6 C    3.994 --    52 C    0.992   127 H    0.985   128 H    0.982
                           129 H    0.982
    55   6 C    3.992 --   126 H    0.987   125 H    0.986   124 H    0.984
                            52 C    0.979
    56   6 C    3.991 --    57 C    1.000    59 C    0.989    58 C    0.985
                            20 C    0.983
    57   6 C    3.996 --    56 C    1.000    97 H    0.985    99 H    0.985
                            98 H    0.984
    58   6 C    3.994 --    96 H    0.986    56 C    0.985    94 H    0.984
                            95 H    0.980
    59   6 C    3.994 --    56 C    0.989   101 H    0.987   100 H    0.985
                           102 H    0.976
    60   6 C    3.990 --    62 C    1.000    61 C    0.988    63 C    0.987
                            16 C    0.983
    61   6 C    3.994 --    60 C    0.988   111 H    0.987   109 H    0.985
                           110 H    0.983
    62   6 C    3.996 --    60 C    1.000   106 H    0.985   107 H    0.985
                           108 H    0.984
    63   6 C    3.994 --   104 H    0.987    60 C    0.987   103 H    0.985
                           105 H    0.984
    64   6 C    3.991 --    67 C    1.000    65 C    0.989    66 C    0.984
                            30 C    0.983
    65   6 C    3.994 --    64 C    0.989   113 H    0.987   112 H    0.985
                           114 H    0.976
    66   6 C    3.993 --   117 H    0.986    64 C    0.984   115 H    0.984
                           116 H    0.980
    67   6 C    3.996 --    64 C    1.000   118 H    0.985   120 H    0.985
                           119 H    0.984
    68   6 C    3.990 --    71 C    0.999    70 C    0.992    43 C    0.985
                            69 C    0.979
    69   6 C    3.992 --    93 H    0.987    92 H    0.986    91 H    0.984
                            68 C    0.979
    70   6 C    3.994 --    68 C    0.992    85 H    0.985    87 H    0.982
                            86 H    0.982
    71   6 C    3.996 --    68 C    0.999    88 H    0.985    89 H    0.984
                            90 H    0.979
    72   6 C    3.990 --    74 C    1.000    75 C    0.988    73 C    0.986
                            39 C    0.983
    73   6 C    3.994 --    80 H    0.987    72 C    0.986    79 H    0.985
                            81 H    0.984
    74   6 C    3.996 --    72 C    1.000    76 H    0.985    77 H    0.985
                            78 H    0.984
    75   6 C    3.994 --    72 C    0.988    84 H    0.987    82 H    0.985
                            83 H    0.983
    76   1 H    0.999 --    74 C    0.985
    77   1 H    0.999 --    74 C    0.985
    78   1 H    0.999 --    74 C    0.984
    79   1 H    0.998 --    73 C    0.985
    80   1 H    0.999 --    73 C    0.987
    81   1 H    0.998 --    73 C    0.984
    82   1 H    0.998 --    75 C    0.985
    83   1 H    0.998 --    75 C    0.983
    84   1 H    0.999 --    75 C    0.987
    85   1 H    0.998 --    70 C    0.985
    86   1 H    0.998 --    70 C    0.982
Note: The following floating-point exceptions are signalling: IEEE_UNDERFLOW_FLAG
normal termination of xtb
    87   1 H    0.998 --    70 C    0.982
    88   1 H    0.999 --    71 C    0.985
    89   1 H    0.999 --    71 C    0.984
    90   1 H    0.998 --    71 C    0.979
    91   1 H    0.997 --    69 C    0.984
    92   1 H    0.999 --    69 C    0.986
    93   1 H    0.999 --    69 C    0.987
    94   1 H    0.998 --    58 C    0.984
    95   1 H    0.998 --    58 C    0.980
    96   1 H    0.999 --    58 C    0.986
    97   1 H    0.999 --    57 C    0.985
    98   1 H    0.998 --    57 C    0.984
    99   1 H    0.999 --    57 C    0.985
   100   1 H    0.998 --    59 C    0.985
   101   1 H    0.999 --    59 C    0.987
   102   1 H    0.998 --    59 C    0.976
   103   1 H    0.998 --    63 C    0.985
   104   1 H    0.999 --    63 C    0.987
   105   1 H    0.998 --    63 C    0.984
   106   1 H    0.999 --    62 C    0.985
   107   1 H    0.999 --    62 C    0.985
   108   1 H    0.999 --    62 C    0.984
   109   1 H    0.998 --    61 C    0.985
   110   1 H    0.998 --    61 C    0.983
   111   1 H    0.999 --    61 C    0.987
   112   1 H    0.998 --    65 C    0.985
   113   1 H    0.999 --    65 C    0.987
   114   1 H    0.998 --    65 C    0.976
   115   1 H    0.998 --    66 C    0.984
   116   1 H    0.998 --    66 C    0.980
   117   1 H    0.999 --    66 C    0.986
   118   1 H    0.999 --    67 C    0.985
   119   1 H    0.998 --    67 C    0.984
   120   1 H    0.999 --    67 C    0.985
   121   1 H    0.999 --    53 C    0.985
   122   1 H    0.999 --    53 C    0.984
   123   1 H    0.998 --    53 C    0.979
   124   1 H    0.997 --    55 C    0.984
   125   1 H    0.999 --    55 C    0.986
   126   1 H    0.999 --    55 C    0.987
   127   1 H    0.998 --    54 C    0.985
   128   1 H    0.998 --    54 C    0.982
   129   1 H    0.998 --    54 C    0.982
   130   1 H    0.996 --     5 C    0.959
   131   1 H    0.997 --     1 C    0.960
   132   1 H    0.996 --    17 C    0.959
   133   1 H    0.996 --    15 C    0.959
   134   1 H    0.995 --    21 C    0.958
   135   1 H    0.997 --    19 C    0.956
   136   1 H    0.997 --    42 C    0.960
   137   1 H    0.996 --    44 C    0.959
   138   1 H    0.997 --    25 C    0.956
   139   1 H    0.995 --    29 C    0.958
   140   1 H    0.996 --    38 C    0.959
   141   1 H    0.996 --    40 C    0.959
 ---------------------------------------------------------------------------

Topologies differ in bond orders
Writing corrected topology to xtbtopo.mol

molecular dipole:
                 x           y           z       tot (Debye)
 q only:       -0.087      -0.381       1.296
   full:       -0.107      -0.406       1.477       3.902
molecular quadrupole (traceless):
                xx          xy          yy          xz          yz          zz
 q only:      -55.766      13.236      14.291      -7.205      -2.623      41.474
  q+dip:      -60.812      16.580      15.319      -7.585      -2.678      45.493
   full:      -59.228      17.890       9.975      -7.573      -3.990      49.253


           -------------------------------------------------
          | TOTAL ENERGY             -209.290064120314 Eh   |
          | GRADIENT NORM               0.000727331865 Eh/α |
          | HOMO-LUMO GAP               1.225303678112 eV   |
           -------------------------------------------------
########################################################################
[WARNING] Runtime exception occurred
-1- restart_readRestart: Number of electron missmatch in restart file.
########################################################################

------------------------------------------------------------------------
 * finished run on 2024/11/12 at 09:34:16.896     
------------------------------------------------------------------------
 total:
 * wall-time:     0 d,  0 h,  0 min,  0.854 sec
 *  cpu-time:     0 d,  0 h,  0 min,  2.826 sec
 * ratio c/w:     3.309 speedup
 SCF:
 * wall-time:     0 d,  0 h,  0 min,  0.823 sec
 *  cpu-time:     0 d,  0 h,  0 min,  2.785 sec
 * ratio c/w:     3.382 speedup

