      -----------------------------------------------------------      
     |                   =====================                   |     
     |                           x T B                           |     
     |                   =====================                   |     
     |                         S. Grimme                         |     
     |          Mulliken Center for Theoretical Chemistry        |     
     |                    University of Bonn                     |     
      -----------------------------------------------------------      

   * xtb version 6.6.1 (8d0f1dd) compiled by 'runner@Mac-1690902418499.local' on 2023-08-01

   xtb is free software: you can redistribute it and/or modify it under
   the terms of the GNU Lesser General Public License as published by
   the Free Software Foundation, either version 3 of the License, or
   (at your option) any later version.
   
   xtb is distributed in the hope that it will be useful,
   but WITHOUT ANY WARRANTY; without even the implied warranty of
   MERCHANTABILITY or FITNESS FOR A PARTICULAR PURPOSE.  See the
   GNU Lesser General Public License for more details.
   
   Cite this work as:
   * C. Bannwarth, E. Caldeweyher, S. Ehlert, A. Hansen, P. Pracht,
     J. Seibert, S. Spicher, S. Grimme, WIREs Comput. Mol. Sci., 2020, 11,
     e01493. DOI: 10.1002/wcms.1493
   
   for GFN2-xTB:
   * C. Bannwarth, S. Ehlert and S. Grimme., J. Chem. Theory Comput., 2019,
     15, 1652-1671. DOI: 10.1021/acs.jctc.8b01176
   for GFN1-xTB:
   * S. Grimme, C. Bannwarth, P. Shushkov, J. Chem. Theory Comput., 2017,
     13, 1989-2009. DOI: 10.1021/acs.jctc.7b00118
   for GFN0-xTB:
   * P. Pracht, E. Caldeweyher, S. Ehlert, S. Grimme, ChemRxiv, 2019, preprint.
     DOI: 10.26434/chemrxiv.8326202.v1
   for GFN-FF:
   * S. Spicher and S. Grimme, Angew. Chem. Int. Ed., 2020, 59, 15665-15673.
     DOI: 10.1002/anie.202004239
   
   for ALPB and GBSA implicit solvation:
   * S. Ehlert, M. Stahn, S. Spicher, S. Grimme, J. Chem. Theory Comput.,
     2021, 17, 4250-4261. DOI: 10.1021/acs.jctc.1c00471
   
   for DFT-D4:
   * E. Caldeweyher, C. Bannwarth and S. Grimme, J. Chem. Phys., 2017,
     147, 034112. DOI: 10.1063/1.4993215
   * E. Caldeweyher, S. Ehlert, A. Hansen, H. Neugebauer, S. Spicher,
     C. Bannwarth and S. Grimme, J. Chem. Phys., 2019, 150, 154122.
     DOI: 10.1063/1.5090222
   * E. Caldeweyher, J.-M. Mewes, S. Ehlert and S. Grimme, Phys. Chem. Chem. Phys.
     2020, 22, 8499-8512. DOI: 10.1039/D0CP00502A
   
   for sTDA-xTB:
   * S. Grimme and C. Bannwarth, J. Chem. Phys., 2016, 145, 054103.
     DOI: 10.1063/1.4959605
   
   in the mass-spec context:
   * V. Asgeirsson, C. Bauer and S. Grimme, Chem. Sci., 2017, 8, 4879.
     DOI: 10.1039/c7sc00601b
   * J. Koopman and S. Grimme, ACS Omega 2019, 4, 12, 15120-15133.
     DOI: 10.1021/acsomega.9b02011
   
   for metadynamics refer to:
   * S. Grimme, J. Chem. Theory Comput., 2019, 155, 2847-2862
     DOI: 10.1021/acs.jctc.9b00143
   
   for SPH calculations refer to:
   * S. Spicher and S. Grimme, J. Chem. Theory Comput., 2021, 17, 1701-1714
     DOI: 10.1021/acs.jctc.0c01306
   
   with help from (in alphabetical order)
   P. Atkinson, C. Bannwarth, F. Bohle, G. Brandenburg, E. Caldeweyher
   M. Checinski, S. Dohm, S. Ehlert, S. Ehrlich, I. Gerasimov, C. Hölzer
   A. Katbashev, J. Koopman, C. Lavigne, S. Lehtola, F. März, M. Müller,
   F. Musil, H. Neugebauer, J. Pisarek, C. Plett, P. Pracht, F. Pultar,
   J. Seibert, P. Shushkov, S. Spicher, M. Stahn, M. Steiner, T. Strunk,
   J. Stückrath, T. Rose, and J. Unsleber
   
 * started run on 2024/11/12 at 09:30:33.087     

           -------------------------------------------------
          |                Calculation Setup                |
           -------------------------------------------------

          program call               : xtb Katherine1.mol --opt --gfn2 --chrg -1 --uhf 2 --tight
          coordinate file            : Katherine1.mol
          omp threads                :                     8

   ID    Z sym.   atoms
    1    6 C      1-21, 25-44, 47, 52-75
    2    8 O      22, 23, 45, 46, 48-51
    3    5 B      24
    4    1 H      76-141
########################################################################
[WARNING] Please study the warnings concerning your input carefully
-2- prog_main: Charge in sdf/mol input was overwritten
-1- prog_main_parseArguments: Unknown option '--tight' provided
########################################################################

           -------------------------------------------------
          |                 G F N 2 - x T B                 |
           -------------------------------------------------

        Reference                      10.1021/acs.jctc.8b01176
      * Hamiltonian:
        H0-scaling (s, p, d)           1.850000    2.230000    2.230000
        zeta-weighting                 0.500000
      * Dispersion:
        s8                             2.700000
        a1                             0.520000
        a2                             5.000000
        s9                             5.000000
      * Repulsion:
        kExp                           1.500000    1.000000
        rExp                           1.000000
      * Coulomb:
        alpha                          2.000000
        third order                    shell-resolved
        anisotropic                    true
        a3                             3.000000
        a5                             4.000000
        cn-shift                       1.200000
        cn-exp                         4.000000
        max-rad                        5.000000


          ...................................................
          :                      SETUP                      :
          :.................................................:
          :  # basis functions                 366          :
          :  # atomic orbitals                 366          :
          :  # shells                          216          :
          :  # electrons                       382          :
          :  max. iterations                   250          :
          :  Hamiltonian                  GFN2-xTB          :
          :  restarted?                      false          :
          :  GBSA solvation                  false          :
          :  PC potential                    false          :
          :  electronic temp.          300.0000000     K    :
          :  accuracy                    1.0000000          :
          :  -> integral cutoff          0.2500000E+02      :
          :  -> integral neglect         0.1000000E-07      :
          :  -> SCF convergence          0.1000000E-05 Eh   :
          :  -> wf. convergence          0.1000000E-03 e    :
          :  Broyden damping             0.4000000          :
          ...................................................

 iter      E             dE          RMSdq      gap      omega  full diag
   1   -211.4599799 -0.211460E+03  0.424E+00    1.45       0.0  T
   2   -211.8794695 -0.419490E+00  0.234E+00    1.06       1.0  T
   3   -211.7873656  0.921039E-01  0.120E+00    1.42       1.0  T
   4   -211.8141158 -0.267502E-01  0.801E-01    0.86       1.0  T
   5   -211.9340139 -0.119898E+00  0.206E-01    1.24       1.0  T
   6   -211.9397762 -0.576232E-02  0.879E-02    1.16       1.0  T
   7   -211.9399446 -0.168398E-03  0.444E-02    1.17       1.0  T
   8   -211.9400944 -0.149806E-03  0.129E-02    1.17       1.0  T
   9   -211.9401026 -0.822667E-05  0.710E-03    1.17       1.2  T
  10   -211.9401063 -0.366844E-05  0.350E-03    1.17       2.4  T
  11   -211.9401071 -0.837763E-06  0.121E-03    1.17       7.0  T
  12   -211.9401072 -0.540434E-07  0.798E-04    1.17      10.6  T
  13   -211.9401073 -0.876677E-07  0.339E-04    1.17      24.8  T

   *** convergence criteria satisfied after 13 iterations ***

         #    Occupation            Energy/Eh            Energy/eV
      -------------------------------------------------------------
         1        2.0000           -0.6135331             -16.6951
       ...           ...                  ...                  ...
       186        2.0000           -0.2998042              -8.1581
       187        2.0000           -0.2958460              -8.0504
       188        2.0000           -0.2920607              -7.9474
       189        2.0000           -0.2909767              -7.9179
       190        2.0000           -0.2905902              -7.9074
       191        1.0000           -0.2566548              -6.9839
       192        1.0000           -0.2536216              -6.9014 (HOMO)
       193                         -0.2105922              -5.7305 (LUMO)
       194                         -0.2103250              -5.7232
       195                         -0.1808111              -4.9201
       196                         -0.1794274              -4.8825
       197                         -0.1552522              -4.2246
       ...                                ...                  ...
       366                          0.7784980              21.1840
      -------------------------------------------------------------
                  HL-Gap            0.0430294 Eh            1.1709 eV
             Fermi-level           -0.2528453 Eh           -6.8803 eV

 transition dipole moment (au) for excitation:         191         192
     X       Y       Z   
   6.6089   0.2336   0.7027  total (au/Debye):    6.650  16.904
 dE (eV)             :    0.083
 oscillator strength :  0.12648E+00

 SCC (total)                   0 d,  0 h,  0 min,  1.165 sec
 SCC setup                      ...        0 min,  0.001 sec (  0.084%)
 Dispersion                     ...        0 min,  0.004 sec (  0.320%)
 classical contributions        ...        0 min,  0.001 sec (  0.075%)
 integral evaluation            ...        0 min,  0.015 sec (  1.260%)
 iterations                     ...        0 min,  1.051 sec ( 90.207%)
 molecular gradient             ...        0 min,  0.066 sec (  5.625%)
 printout                       ...        0 min,  0.028 sec (  2.427%)

         :::::::::::::::::::::::::::::::::::::::::::::::::::::
         ::                     SUMMARY                     ::
         :::::::::::::::::::::::::::::::::::::::::::::::::::::
         :: total energy            -209.127863847896 Eh    ::
         :: gradient norm              0.232118445578 Eh/a0 ::
         :: HOMO-LUMO gap              1.170889550909 eV    ::
         ::.................................................::
         :: SCC energy              -211.940107290444 Eh    ::
         :: -> isotropic ES            0.328851335560 Eh    ::
         :: -> anisotropic ES          0.023770695356 Eh    ::
         :: -> anisotropic XC          0.084185517577 Eh    ::
         :: -> dispersion             -0.200481979674 Eh    ::
         :: repulsion energy           2.809545101069 Eh    ::
         :: add. restraining           0.000000000000 Eh    ::
         :: total charge              -0.999999999690 e     ::
         :::::::::::::::::::::::::::::::::::::::::::::::::::::

      ----------------------------------------------------------- 
     |                   =====================                   |
     |                        A N C O P T                        |
     |                   =====================                   |
     |               Approximate Normal Coordinate               |
     |                Rational Function Optimizer                |
      ----------------------------------------------------------- 

          ...................................................
          :                      SETUP                      :
          :.................................................:
          :   optimization level            normal          :
          :   max. optcycles                   423          :
          :   ANC micro-cycles                  20          :
          :   degrees of freedom               417          :
          :.................................................:
          :   RF solver                   davidson          :
          :   write xtbopt.log                true          :
          :   linear?                        false          :
          :   energy convergence         0.5000000E-05 Eh   :
          :   grad. convergence          0.1000000E-02 Eh/α :
          :   maxmium RF displ.          1.0000000          :
          :   Hlow (freq-cutoff)         0.1000000E-01      :
          :   Hmax (freq-cutoff)         5.0000000          :
          :   S6 in model hess.         20.0000000          :
          ...................................................

generating ANC from model Hessian ...
Using Lindh-Hessian (1995)
 Shifting diagonal of input Hessian by    9.9764937549160059E-003
 Lowest  eigenvalues of input Hessian
    0.000000    0.000000    0.000000    0.000000    0.000000    0.000000
    0.010000    0.010007    0.010017    0.010101    0.010130    0.010327
    0.010334    0.010393    0.010520    0.010634    0.010735    0.010762
 Highest eigenvalues
    1.991352    1.993532    2.194924    2.196996    2.223459    2.224925


........................................................................
.............................. CYCLE    1 ..............................
........................................................................

 iter      E             dE          RMSdq      gap      omega  full diag
   1   -211.9401073 -0.211940E+03  0.174E-04    1.17       0.0  T
   2   -211.9401073  0.166614E-08  0.173E-04    1.17      48.7  T
   3   -211.9401073 -0.566953E-08  0.641E-05    1.17     131.4  T
     SCC iter.                  ...        0 min,  0.251 sec
     gradient                   ...        0 min,  0.065 sec
 * total energy  :  -209.1278639 Eh     change       -0.1170125E-07 Eh
   gradient norm :     0.2321155 Eh/α   predicted     0.0000000E+00 (-100.00%)
   displ. norm   :     0.5596726 α      lambda       -0.1048901E+00
   maximum displ.:     0.2036371 α      in ANC's #162, #241, #224, ...

........................................................................
.............................. CYCLE    2 ..............................
........................................................................

 iter      E             dE          RMSdq      gap      omega  full diag
   1   -212.1307098 -0.212131E+03  0.271E-01    1.08       0.0  T
   2   -212.1308480 -0.138206E-03  0.190E-01    1.22       1.0  T
   3   -212.1313548 -0.506850E-03  0.125E-01    1.11       1.0  T
   4   -212.1329308 -0.157596E-02  0.313E-02    1.16       1.0  T
   5   -212.1331355 -0.204741E-03  0.999E-03    1.16       1.0  T
   6   -212.1331533 -0.177639E-04  0.438E-03    1.16       1.9  T
   7   -212.1331539 -0.566244E-06  0.234E-03    1.16       3.6  T
   8   -212.1331544 -0.504842E-06  0.689E-04    1.16      12.2  T
   9   -212.1331544 -0.611928E-07  0.245E-04    1.16      34.4  T
     SCC iter.                  ...        0 min,  0.607 sec
     gradient                   ...        0 min,  0.105 sec
 * total energy  :  -209.2053854 Eh     change       -0.7752158E-01 Eh
   gradient norm :     0.1240126 Eh/α   predicted    -0.6888444E-01 ( -11.14%)
   displ. norm   :     0.5670509 α      lambda       -0.5108949E-01
   maximum displ.:     0.2172199 α      in ANC's #154, #90, #162, ...

........................................................................
.............................. CYCLE    3 ..............................
........................................................................

 iter      E             dE          RMSdq      gap      omega  full diag
   1   -212.2716887 -0.212272E+03  0.187E-01    1.13       0.0  T
   2   -212.2721468 -0.458138E-03  0.142E-01    1.23       1.0  T
   3   -212.2727219 -0.575114E-03  0.750E-02    1.17       1.0  T
   4   -212.2731336 -0.411626E-03  0.224E-02    1.20       1.0  T
   5   -212.2732218 -0.882399E-04  0.634E-03    1.19       1.3  T
   6   -212.2732277 -0.588715E-05  0.284E-03    1.20       3.0  T
   7   -212.2732278 -0.642781E-07  0.173E-03    1.19       4.9  T
   8   -212.2732281 -0.347717E-06  0.514E-04    1.19      16.4  T
   9   -212.2732281 -0.347224E-07  0.227E-04    1.19      37.2  T
     SCC iter.                  ...        0 min,  0.803 sec
     gradient                   ...        0 min,  0.068 sec
 * total energy  :  -209.2379118 Eh     change       -0.3252639E-01 Eh
   gradient norm :     0.0378598 Eh/α   predicted    -0.3375862E-01 (   3.79%)
   displ. norm   :     0.5626227 α      lambda       -0.1454306E-01
   maximum displ.:     0.1711367 α      in ANC's #90, #36, #30, ...

........................................................................
.............................. CYCLE    4 ..............................
........................................................................

 iter      E             dE          RMSdq      gap      omega  full diag
   1   -212.3189048 -0.212319E+03  0.148E-01    1.19       0.0  T
   2   -212.3189537 -0.488274E-04  0.876E-02    1.21       1.0  T
   3   -212.3186605  0.293180E-03  0.461E-02    1.19       1.0  T
   4   -212.3190052 -0.344765E-03  0.682E-03    1.20       1.2  T
   5   -212.3190148 -0.958635E-05  0.223E-03    1.20       3.8  T
   6   -212.3190153 -0.499836E-06  0.107E-03    1.20       7.9  T
   7   -212.3190153  0.885001E-08  0.542E-04    1.20      15.5  T
   8   -212.3190154 -0.392794E-07  0.188E-04    1.20      44.7  T
     SCC iter.                  ...        0 min,  0.574 sec
     gradient                   ...        0 min,  0.067 sec
 * total energy  :  -209.2486721 Eh     change       -0.1076027E-01 Eh
   gradient norm :     0.0227242 Eh/α   predicted    -0.9573387E-02 ( -11.03%)
   displ. norm   :     0.6198199 α      lambda       -0.8175535E-02
   maximum displ.:     0.2257727 α      in ANC's #30, #21, #36, ...

........................................................................
.............................. CYCLE    5 ..............................
........................................................................

 iter      E             dE          RMSdq      gap      omega  full diag
   1   -212.3555643 -0.212356E+03  0.129E-01    1.20       0.0  T
   2   -212.3555831 -0.188490E-04  0.757E-02    1.20       1.0  T
   3   -212.3554090  0.174147E-03  0.325E-02    1.20       1.0  T
   4   -212.3556038 -0.194837E-03  0.465E-03    1.20       1.8  T
   5   -212.3556079 -0.406611E-05  0.180E-03    1.20       4.7  T
   6   -212.3556081 -0.230158E-06  0.890E-04    1.20       9.5  T
   7   -212.3556081 -0.571350E-08  0.390E-04    1.20      21.6  T
     SCC iter.                  ...        0 min,  0.900 sec
     gradient                   ...        0 min,  0.085 sec
 * total energy  :  -209.2548571 Eh     change       -0.6185039E-02 Eh
   gradient norm :     0.0161820 Eh/α   predicted    -0.5658215E-02 (  -8.52%)
   displ. norm   :     0.6163381 α      lambda       -0.4648753E-02
   maximum displ.:     0.2724470 α      in ANC's #21, #30, #33, ...

........................................................................
.............................. CYCLE    6 ..............................
........................................................................

 iter      E             dE          RMSdq      gap      omega  full diag
   1   -212.3767271 -0.212377E+03  0.105E-01    1.20       0.0  T
   2   -212.3767444 -0.173222E-04  0.625E-02    1.20       1.0  T
   3   -212.3766208  0.123575E-03  0.268E-02    1.20       1.0  T
   4   -212.3767585 -0.137640E-03  0.406E-03    1.20       2.1  T
   5   -212.3767616 -0.313019E-05  0.165E-03    1.20       5.1  T
   6   -212.3767619 -0.268355E-06  0.789E-04    1.20      10.7  T
   7   -212.3767619 -0.988859E-08  0.333E-04    1.20      25.3  T
     SCC iter.                  ...        0 min,  0.684 sec
     gradient                   ...        0 min,  0.087 sec
 * total energy  :  -209.2583955 Eh     change       -0.3538373E-02 Eh
   gradient norm :     0.0090525 Eh/α   predicted    -0.3207354E-02 (  -9.36%)
   displ. norm   :     0.6238547 α      lambda       -0.2939891E-02
   maximum displ.:     0.3393618 α      in ANC's #21, #30, #33, ...

........................................................................
.............................. CYCLE    7 ..............................
........................................................................

 iter      E             dE          RMSdq      gap      omega  full diag
   1   -212.3913205 -0.212391E+03  0.847E-02    1.19       0.0  T
   2   -212.3913265 -0.596927E-05  0.501E-02    1.20       1.0  T
   3   -212.3912734  0.530534E-04  0.153E-02    1.19       1.0  T
   4   -212.3913316 -0.581291E-04  0.233E-03    1.19       3.6  T
   5   -212.3913323 -0.766711E-06  0.108E-03    1.19       7.8  T
   6   -212.3913324 -0.625490E-07  0.530E-04    1.19      15.9  T
   7   -212.3913324 -0.121031E-07  0.172E-04    1.19      48.8  T
     SCC iter.                  ...        0 min,  0.561 sec
     gradient                   ...        0 min,  0.064 sec
 * total energy  :  -209.2607036 Eh     change       -0.2308068E-02 Eh
   gradient norm :     0.0101047 Eh/α   predicted    -0.2042045E-02 ( -11.53%)
   displ. norm   :     0.6361239 α      lambda       -0.2219705E-02
   maximum displ.:     0.3680188 α      in ANC's #21, #3, #30, ...

........................................................................
.............................. CYCLE    8 ..............................
........................................................................

 iter      E             dE          RMSdq      gap      omega  full diag
   1   -212.3998981 -0.212400E+03  0.717E-02    1.20       0.0  T
   2   -212.3999115 -0.133400E-04  0.426E-02    1.20       1.0  T
   3   -212.3998786  0.328947E-04  0.134E-02    1.19       1.0  T
   4   -212.3999144 -0.357895E-04  0.292E-03    1.20       2.9  T
   5   -212.3999161 -0.171800E-05  0.101E-03    1.20       8.4  T
   6   -212.3999162 -0.859416E-07  0.570E-04    1.20      14.8  T
   7   -212.3999162 -0.206487E-07  0.210E-04    1.20      40.1  T
     SCC iter.                  ...        0 min,  0.549 sec
     gradient                   ...        0 min,  0.062 sec
 * total energy  :  -209.2625254 Eh     change       -0.1821808E-02 Eh
   gradient norm :     0.0090861 Eh/α   predicted    -0.1558960E-02 ( -14.43%)
   displ. norm   :     0.6612533 α      lambda       -0.1923051E-02
   maximum displ.:     0.3708043 α      in ANC's #21, #3, #6, ...

........................................................................
.............................. CYCLE    9 ..............................
........................................................................

 iter      E             dE          RMSdq      gap      omega  full diag
   1   -212.4025662 -0.212403E+03  0.703E-02    1.20       0.0  T
   2   -212.4025688 -0.261566E-05  0.418E-02    1.20       1.0  T
   3   -212.4025114  0.573311E-04  0.154E-02    1.19       1.0  T
   4   -212.4025738 -0.623853E-04  0.180E-03    1.20       4.7  T
   5   -212.4025742 -0.401105E-06  0.904E-04    1.20       9.3  T
   6   -212.4025743 -0.285788E-07  0.455E-04    1.20      18.5  T
     SCC iter.                  ...        0 min,  0.430 sec
     gradient                   ...        0 min,  0.062 sec
 * total energy  :  -209.2641625 Eh     change       -0.1637084E-02 Eh
   gradient norm :     0.0087673 Eh/α   predicted    -0.1381961E-02 ( -15.58%)
   displ. norm   :     0.7155137 α      lambda       -0.1829940E-02
   maximum displ.:     0.3784938 α      in ANC's #21, #3, #6, ...

........................................................................
.............................. CYCLE   10 ..............................
........................................................................

 iter      E             dE          RMSdq      gap      omega  full diag
   1   -212.4052282 -0.212405E+03  0.709E-02    1.21       0.0  T
   2   -212.4052384 -0.101726E-04  0.419E-02    1.21       1.0  T
   3   -212.4051731  0.653204E-04  0.172E-02    1.20       1.0  T
   4   -212.4052443 -0.711735E-04  0.281E-03    1.21       3.0  T
   5   -212.4052458 -0.152616E-05  0.102E-03    1.21       8.2  T
   6   -212.4052458 -0.586808E-07  0.614E-04    1.21      13.7  T
   7   -212.4052459 -0.161267E-07  0.264E-04    1.21      31.8  T
     SCC iter.                  ...        0 min,  0.622 sec
     gradient                   ...        0 min,  0.062 sec
 * total energy  :  -209.2657114 Eh     change       -0.1548954E-02 Eh
   gradient norm :     0.0072317 Eh/α   predicted    -0.1383402E-02 ( -10.69%)
   displ. norm   :     0.7316660 α      lambda       -0.1576031E-02
   maximum displ.:     0.3451408 α      in ANC's #21, #3, #6, ...

........................................................................
.............................. CYCLE   11 ..............................
........................................................................

 iter      E             dE          RMSdq      gap      omega  full diag
   1   -212.4031561 -0.212403E+03  0.707E-02    1.21       0.0  T
   2   -212.4031605 -0.436522E-05  0.419E-02    1.21       1.0  T
   3   -212.4031039  0.565963E-04  0.158E-02    1.21       1.0  T
   4   -212.4031655 -0.616485E-04  0.208E-03    1.21       4.0  T
   5   -212.4031662 -0.698414E-06  0.971E-04    1.21       8.7  T
   6   -212.4031663 -0.499451E-07  0.534E-04    1.21      15.8  T
     SCC iter.                  ...        0 min,  0.321 sec
     gradient                   ...        0 min,  0.089 sec
 * total energy  :  -209.2670328 Eh     change       -0.1321379E-02 Eh
   gradient norm :     0.0067088 Eh/α   predicted    -0.1209872E-02 (  -8.44%)
   displ. norm   :     0.7109361 α      lambda       -0.1303790E-02
   maximum displ.:     0.3321252 α      in ANC's #3, #6, #21, ...

........................................................................
.............................. CYCLE   12 ..............................
........................................................................

 iter      E             dE          RMSdq      gap      omega  full diag
   1   -212.4065654 -0.212407E+03  0.623E-02    1.22       0.0  T
   2   -212.4065742 -0.878626E-05  0.369E-02    1.22       1.0  T
   3   -212.4065364  0.378119E-04  0.132E-02    1.21       1.0  T
   4   -212.4065770 -0.406076E-04  0.281E-03    1.22       3.0  T
   5   -212.4065786 -0.161380E-05  0.932E-04    1.21       9.0  T
   6   -212.4065787 -0.597641E-07  0.530E-04    1.21      15.9  T
   7   -212.4065787 -0.874485E-08  0.256E-04    1.21      32.9  T
     SCC iter.                  ...        0 min,  0.517 sec
     gradient                   ...        0 min,  0.064 sec
 * total energy  :  -209.2681282 Eh     change       -0.1095374E-02 Eh
   gradient norm :     0.0076548 Eh/α   predicted    -0.9813834E-03 ( -10.41%)
   displ. norm   :     0.6944033 α      lambda       -0.1106251E-02
   maximum displ.:     0.3501908 α      in ANC's #3, #6, #21, ...

........................................................................
.............................. CYCLE   13 ..............................
........................................................................

 iter      E             dE          RMSdq      gap      omega  full diag
   1   -212.4071107 -0.212407E+03  0.573E-02    1.21       0.0  T
   2   -212.4071160 -0.529656E-05  0.340E-02    1.22       1.0  T
   3   -212.4070958  0.202357E-04  0.102E-02    1.21       1.0  T
   4   -212.4071177 -0.218801E-04  0.210E-03    1.21       4.0  T
   5   -212.4071185 -0.847404E-06  0.871E-04    1.21       9.7  T
   6   -212.4071186 -0.814571E-07  0.455E-04    1.21      18.5  T
     SCC iter.                  ...        0 min,  0.585 sec
     gradient                   ...        0 min,  0.074 sec
 * total energy  :  -209.2690742 Eh     change       -0.9460465E-03 Eh
   gradient norm :     0.0061142 Eh/α   predicted    -0.8198423E-03 ( -13.34%)
   displ. norm   :     0.6758160 α      lambda       -0.9690546E-03
   maximum displ.:     0.3676181 α      in ANC's #3, #6, #12, ...

........................................................................
.............................. CYCLE   14 ..............................
........................................................................

 iter      E             dE          RMSdq      gap      omega  full diag
   1   -212.4109755 -0.212411E+03  0.524E-02    1.21       0.0  T
   2   -212.4109805 -0.497338E-05  0.311E-02    1.21       1.0  T
   3   -212.4109671  0.133705E-04  0.854E-03    1.21       1.0  T
   4   -212.4109815 -0.144523E-04  0.200E-03    1.21       4.2  T
   5   -212.4109823 -0.752997E-06  0.798E-04    1.21      10.6  T
   6   -212.4109824 -0.745527E-07  0.408E-04    1.21      20.6  T
     SCC iter.                  ...        0 min,  0.455 sec
     gradient                   ...        0 min,  0.066 sec
 * total energy  :  -209.2699084 Eh     change       -0.8341310E-03 Eh
   gradient norm :     0.0061623 Eh/α   predicted    -0.7058298E-03 ( -15.38%)
   displ. norm   :     0.6650515 α      lambda       -0.8648254E-03
   maximum displ.:     0.3814935 α      in ANC's #3, #6, #12, ...

........................................................................
.............................. CYCLE   15 ..............................
........................................................................

 iter      E             dE          RMSdq      gap      omega  full diag
   1   -212.4136369 -0.212414E+03  0.514E-02    1.21       0.0  T
   2   -212.4136444 -0.751497E-05  0.305E-02    1.21       1.0  T
   3   -212.4136271  0.173253E-04  0.965E-03    1.21       1.0  T
   4   -212.4136459 -0.187665E-04  0.230E-03    1.21       3.7  T
   5   -212.4136470 -0.111166E-05  0.736E-04    1.21      11.4  T
   6   -212.4136470 -0.581861E-07  0.405E-04    1.21      20.8  T
   7   -212.4136471 -0.820597E-08  0.174E-04    1.21      48.3  T
     SCC iter.                  ...        0 min,  0.598 sec
     gradient                   ...        0 min,  0.065 sec
 * total energy  :  -209.2706319 Eh     change       -0.7235819E-03 Eh
   gradient norm :     0.0078875 Eh/α   predicted    -0.6236666E-03 ( -13.81%)
   displ. norm   :     0.6405110 α      lambda       -0.7774610E-03
   maximum displ.:     0.3838093 α      in ANC's #3, #6, #12, ...

........................................................................
.............................. CYCLE   16 ..............................
........................................................................

 iter      E             dE          RMSdq      gap      omega  full diag
   1   -212.4142442 -0.212414E+03  0.494E-02    1.20       0.0  T
   2   -212.4142548 -0.105375E-04  0.294E-02    1.20       1.0  T
   3   -212.4142342  0.205393E-04  0.107E-02    1.20       1.0  T
   4   -212.4142565 -0.222501E-04  0.271E-03    1.20       3.1  T
   5   -212.4142581 -0.166030E-05  0.740E-04    1.20      11.4  T
   6   -212.4142582 -0.672724E-07  0.388E-04    1.20      21.7  T
   7   -212.4142582 -0.553979E-08  0.181E-04    1.20      46.5  T
     SCC iter.                  ...        0 min,  0.478 sec
     gradient                   ...        0 min,  0.063 sec
 * total energy  :  -209.2712588 Eh     change       -0.6268945E-03 Eh
   gradient norm :     0.0070635 Eh/α   predicted    -0.5482103E-03 ( -12.55%)
   displ. norm   :     0.5844348 α      lambda       -0.6051070E-03
   maximum displ.:     0.3680670 α      in ANC's #3, #6, #1, ...

........................................................................
.............................. CYCLE   17 ..............................
........................................................................

 iter      E             dE          RMSdq      gap      omega  full diag
   1   -212.4160775 -0.212416E+03  0.423E-02    1.20       0.0  T
   2   -212.4160796 -0.209576E-05  0.251E-02    1.20       1.0  T
   3   -212.4160617  0.178948E-04  0.895E-03    1.20       1.0  T
   4   -212.4160811 -0.194727E-04  0.139E-03    1.20       6.1  T
   5   -212.4160815 -0.355316E-06  0.538E-04    1.20      15.7  T
   6   -212.4160815 -0.210028E-07  0.285E-04    1.20      29.6  T
     SCC iter.                  ...        0 min,  0.346 sec
     gradient                   ...        0 min,  0.066 sec
 * total energy  :  -209.2717783 Eh     change       -0.5194743E-03 Eh
   gradient norm :     0.0045900 Eh/α   predicted    -0.4058965E-03 ( -21.86%)
   displ. norm   :     0.5194941 α      lambda       -0.4846834E-03
   maximum displ.:     0.3454531 α      in ANC's #3, #6, #1, ...

........................................................................
.............................. CYCLE   18 ..............................
........................................................................

 iter      E             dE          RMSdq      gap      omega  full diag
   1   -212.4167174 -0.212417E+03  0.349E-02    1.20       0.0  T
   2   -212.4167183 -0.868591E-06  0.206E-02    1.20       1.0  T
   3   -212.4167048  0.134790E-04  0.790E-03    1.20       1.1  T
   4   -212.4167196 -0.147155E-04  0.948E-04    1.20       8.9  T
   5   -212.4167197 -0.133564E-06  0.463E-04    1.20      18.2  T
   6   -212.4167197 -0.183112E-07  0.209E-04    1.20      40.3  T
     SCC iter.                  ...        0 min,  0.479 sec
     gradient                   ...        0 min,  0.063 sec
 * total energy  :  -209.2722055 Eh     change       -0.4271747E-03 Eh
   gradient norm :     0.0038550 Eh/α   predicted    -0.3077470E-03 ( -27.96%)
   displ. norm   :     0.4703527 α      lambda       -0.4256773E-03
   maximum displ.:     0.3279273 α      in ANC's #3, #6, #1, ...

........................................................................
.............................. CYCLE   19 ..............................
........................................................................

 iter      E             dE          RMSdq      gap      omega  full diag
   1   -212.4178085 -0.212418E+03  0.288E-02    1.20       0.0  T
   2   -212.4178091 -0.573659E-06  0.171E-02    1.20       1.0  T
   3   -212.4177971  0.120654E-04  0.739E-03    1.20       1.1  T
   4   -212.4178103 -0.132268E-04  0.836E-04    1.20      10.1  T
   5   -212.4178104 -0.100406E-06  0.407E-04    1.20      20.7  T
   6   -212.4178104 -0.119000E-07  0.178E-04    1.20      47.4  T
     SCC iter.                  ...        0 min,  0.423 sec
     gradient                   ...        0 min,  0.064 sec
 * total energy  :  -209.2725844 Eh     change       -0.3789448E-03 Eh
   gradient norm :     0.0037426 Eh/α   predicted    -0.2599293E-03 ( -31.41%)
   displ. norm   :     0.4503050 α      lambda       -0.4055355E-03
   maximum displ.:     0.3219858 α      in ANC's #3, #1, #6, ...

........................................................................
.............................. CYCLE   20 ..............................
........................................................................

 iter      E             dE          RMSdq      gap      omega  full diag
   1   -212.4179947 -0.212418E+03  0.258E-02    1.20       0.0  T
   2   -212.4179952 -0.523076E-06  0.154E-02    1.20       1.0  T
   3   -212.4179864  0.879775E-05  0.643E-03    1.20       1.3  T
   4   -212.4179960 -0.963256E-05  0.786E-04    1.20      10.7  T
   5   -212.4179961 -0.959696E-07  0.374E-04    1.20      22.5  T
   6   -212.4179961 -0.106292E-07  0.164E-04    1.20      51.5  T
     SCC iter.                  ...        0 min,  0.541 sec
     gradient                   ...        0 min,  0.061 sec
 * total energy  :  -209.2729476 Eh     change       -0.3631321E-03 Eh
   gradient norm :     0.0041610 Eh/α   predicted    -0.2438884E-03 ( -32.84%)
   displ. norm   :     0.4518464 α      lambda       -0.4069825E-03
   maximum displ.:     0.3262074 α      in ANC's #3, #1, #6, ...
 * RMSD in coord.:     0.7839292 α      energy gain  -0.1450837E+00 Eh

generating ANC from model Hessian ...
Using Lindh-Hessian (1995)
 Shifting diagonal of input Hessian by    9.9657788306659837E-003
 Lowest  eigenvalues of input Hessian
    0.000000    0.000000    0.000000    0.000000    0.000000    0.000000
    0.010000    0.010022    0.010028    0.010111    0.010154    0.010388
    0.010408    0.010464    0.010611    0.010716    0.010812    0.010849
 Highest eigenvalues
    2.082828    2.083608    2.228549    2.228737    2.248730    2.248932


........................................................................
.............................. CYCLE   21 ..............................
........................................................................

 iter      E             dE          RMSdq      gap      omega  full diag
   1   -212.4181032 -0.212418E+03  0.259E-02    1.20       0.0  T
   2   -212.4181037 -0.523476E-06  0.154E-02    1.20       1.0  T
   3   -212.4180984  0.529434E-05  0.501E-03    1.20       1.7  T
   4   -212.4181042 -0.575219E-05  0.728E-04    1.20      11.6  T
   5   -212.4181043 -0.916650E-07  0.344E-04    1.20      24.5  T
   6   -212.4181043 -0.887900E-08  0.160E-04    1.20      52.6  T
     SCC iter.                  ...        0 min,  0.648 sec
     gradient                   ...        0 min,  0.079 sec
 * total energy  :  -209.2733193 Eh     change       -0.3717833E-03 Eh
   gradient norm :     0.0044003 Eh/α   predicted     0.0000000E+00 (-100.00%)
   displ. norm   :     0.1034324 α      lambda       -0.1416568E-03
   maximum displ.:     0.0891809 α      in ANC's #3, #24, #13, ...

........................................................................
.............................. CYCLE   22 ..............................
........................................................................

 iter      E             dE          RMSdq      gap      omega  full diag
   1   -212.4179713 -0.212418E+03  0.105E-02    1.20       0.0  T
   2   -212.4179714 -0.111481E-06  0.617E-03    1.20       1.4  T
   3   -212.4179710  0.399339E-06  0.146E-03    1.20       5.8  T
   4   -212.4179714 -0.441929E-06  0.313E-04    1.20      26.9  T
   5   -212.4179715 -0.169278E-07  0.155E-04    1.20      54.4  T
     SCC iter.                  ...        0 min,  0.356 sec
     gradient                   ...        0 min,  0.065 sec
 * total energy  :  -209.2734541 Eh     change       -0.1347513E-03 Eh
   gradient norm :     0.0029976 Eh/α   predicted    -0.7249797E-04 ( -46.20%)
   displ. norm   :     0.2293266 α      lambda       -0.2799618E-03
   maximum displ.:     0.1780085 α      in ANC's #3, #24, #13, ...

........................................................................
.............................. CYCLE   23 ..............................
........................................................................

 iter      E             dE          RMSdq      gap      omega  full diag
   1   -212.4177972 -0.212418E+03  0.247E-02    1.20       0.0  T
   2   -212.4177977 -0.424087E-06  0.145E-02    1.20       1.0  T
   3   -212.4177950  0.268102E-05  0.369E-03    1.20       2.3  T
   4   -212.4177979 -0.294964E-05  0.685E-04    1.20      12.3  T
   5   -212.4177980 -0.782267E-07  0.344E-04    1.20      24.5  T
   6   -212.4177980 -0.670047E-08  0.163E-04    1.20      51.6  T
     SCC iter.                  ...        0 min,  0.509 sec
     gradient                   ...        0 min,  0.059 sec
 * total energy  :  -209.2737024 Eh     change       -0.2483363E-03 Eh
   gradient norm :     0.0019982 Eh/α   predicted    -0.1473454E-03 ( -40.67%)
   displ. norm   :     0.4936181 α      lambda       -0.3199599E-03
   maximum displ.:     0.3766138 α      in ANC's #3, #13, #24, ...

........................................................................
.............................. CYCLE   24 ..............................
........................................................................

 iter      E             dE          RMSdq      gap      omega  full diag
   1   -212.4168919 -0.212417E+03  0.511E-02    1.20       0.0  T
   2   -212.4168936 -0.164988E-05  0.300E-02    1.20       1.0  T
   3   -212.4168804  0.131589E-04  0.822E-03    1.20       1.0  T
   4   -212.4168950 -0.145163E-04  0.134E-03    1.20       6.3  T
   5   -212.4168952 -0.282984E-06  0.694E-04    1.20      12.1  T
   6   -212.4168953 -0.249080E-07  0.334E-04    1.20      25.2  T
     SCC iter.                  ...        0 min,  0.427 sec
     gradient                   ...        0 min,  0.060 sec
 * total energy  :  -209.2740887 Eh     change       -0.3862465E-03 Eh
   gradient norm :     0.0046658 Eh/α   predicted    -0.1773054E-03 ( -54.10%)
   displ. norm   :     0.2618009 α      lambda       -0.2081777E-03
   maximum displ.:     0.2046099 α      in ANC's #3, #13, #24, ...

........................................................................
.............................. CYCLE   25 ..............................
........................................................................

 iter      E             dE          RMSdq      gap      omega  full diag
   1   -212.4170969 -0.212417E+03  0.241E-02    1.20       0.0  T
   2   -212.4170974 -0.429458E-06  0.141E-02    1.20       1.0  T
   3   -212.4170941  0.327521E-05  0.420E-03    1.20       2.0  T
   4   -212.4170977 -0.363613E-05  0.625E-04    1.20      13.5  T
   5   -212.4170978 -0.605678E-07  0.322E-04    1.20      26.1  T
   6   -212.4170978 -0.642135E-08  0.167E-04    1.20      50.3  T
     SCC iter.                  ...        0 min,  0.446 sec
     gradient                   ...        0 min,  0.065 sec
 * total energy  :  -209.2742849 Eh     change       -0.1962656E-03 Eh
   gradient norm :     0.0049264 Eh/α   predicted    -0.1112236E-03 ( -43.33%)
   displ. norm   :     0.2547309 α      lambda       -0.2224813E-03
   maximum displ.:     0.1969735 α      in ANC's #3, #13, #1, ...

........................................................................
.............................. CYCLE   26 ..............................
........................................................................

 iter      E             dE          RMSdq      gap      omega  full diag
   1   -212.4176781 -0.212418E+03  0.219E-02    1.21       0.0  T
   2   -212.4176786 -0.479545E-06  0.128E-02    1.20       1.0  T
   3   -212.4176757  0.285433E-05  0.402E-03    1.21       2.1  T
   4   -212.4176789 -0.319210E-05  0.573E-04    1.20      14.7  T
   5   -212.4176789 -0.500226E-07  0.293E-04    1.20      28.7  T
   6   -212.4176790 -0.802393E-08  0.155E-04    1.20      54.3  T
     SCC iter.                  ...        0 min,  0.471 sec
     gradient                   ...        0 min,  0.063 sec
 * total energy  :  -209.2744966 Eh     change       -0.2116260E-03 Eh
   gradient norm :     0.0041284 Eh/α   predicted    -0.1184592E-03 ( -44.02%)
   displ. norm   :     0.2963169 α      lambda       -0.2643604E-03
   maximum displ.:     0.2277182 α      in ANC's #3, #13, #1, ...

........................................................................
.............................. CYCLE   27 ..............................
........................................................................

 iter      E             dE          RMSdq      gap      omega  full diag
   1   -212.4181875 -0.212418E+03  0.240E-02    1.21       0.0  T
   2   -212.4181882 -0.718877E-06  0.141E-02    1.21       1.0  T
   3   -212.4181855  0.274118E-05  0.405E-03    1.21       2.1  T
   4   -212.4181886 -0.308404E-05  0.636E-04    1.21      13.2  T
   5   -212.4181886 -0.582835E-07  0.325E-04    1.21      25.9  T
   6   -212.4181887 -0.120963E-07  0.175E-04    1.21      48.2  T
     SCC iter.                  ...        0 min,  0.355 sec
     gradient                   ...        0 min,  0.064 sec
 * total energy  :  -209.2747440 Eh     change       -0.2474321E-03 Eh
   gradient norm :     0.0030239 Eh/α   predicted    -0.1437866E-03 ( -41.89%)
   displ. norm   :     0.3342608 α      lambda       -0.2787606E-03
   maximum displ.:     0.2573553 α      in ANC's #3, #13, #1, ...

........................................................................
.............................. CYCLE   28 ..............................
........................................................................

 iter      E             dE          RMSdq      gap      omega  full diag
   1   -212.4185496 -0.212419E+03  0.255E-02    1.21       0.0  T
   2   -212.4185504 -0.858757E-06  0.150E-02    1.21       1.0  T
   3   -212.4185480  0.244229E-05  0.377E-03    1.21       2.2  T
   4   -212.4185507 -0.274789E-05  0.699E-04    1.21      12.0  T
   5   -212.4185508 -0.673670E-07  0.352E-04    1.21      24.0  T
   6   -212.4185508 -0.135936E-07  0.198E-04    1.21      42.5  T
     SCC iter.                  ...        0 min,  0.354 sec
     gradient                   ...        0 min,  0.064 sec
 * total energy  :  -209.2750034 Eh     change       -0.2593706E-03 Eh
   gradient norm :     0.0025687 Eh/α   predicted    -0.1549584E-03 ( -40.26%)
   displ. norm   :     0.3336013 α      lambda       -0.2565467E-03
   maximum displ.:     0.2581838 α      in ANC's #3, #1, #13, ...

........................................................................
.............................. CYCLE   29 ..............................
........................................................................

 iter      E             dE          RMSdq      gap      omega  full diag
   1   -212.4188332 -0.212419E+03  0.239E-02    1.21       0.0  T
   2   -212.4188339 -0.734464E-06  0.140E-02    1.21       1.0  T
   3   -212.4188318  0.217001E-05  0.336E-03    1.21       2.5  T
   4   -212.4188342 -0.240948E-05  0.697E-04    1.21      12.1  T
   5   -212.4188343 -0.719728E-07  0.339E-04    1.21      24.8  T
   6   -212.4188343 -0.116115E-07  0.193E-04    1.21      43.7  T
     SCC iter.                  ...        0 min,  0.447 sec
     gradient                   ...        0 min,  0.066 sec
 * total energy  :  -209.2752451 Eh     change       -0.2416889E-03 Eh
   gradient norm :     0.0027974 Eh/α   predicted    -0.1425516E-03 ( -41.02%)
   displ. norm   :     0.3105228 α      lambda       -0.2301165E-03
   maximum displ.:     0.2409503 α      in ANC's #3, #1, #13, ...

........................................................................
.............................. CYCLE   30 ..............................
........................................................................

 iter      E             dE          RMSdq      gap      omega  full diag
   1   -212.4191025 -0.212419E+03  0.208E-02    1.21       0.0  T
   2   -212.4191030 -0.508545E-06  0.122E-02    1.21       1.0  T
   3   -212.4191008  0.221987E-05  0.321E-03    1.21       2.6  T
   4   -212.4191033 -0.244768E-05  0.595E-04    1.21      14.1  T
   5   -212.4191033 -0.501130E-07  0.295E-04    1.21      28.5  T
   6   -212.4191033 -0.753650E-08  0.170E-04    1.21      49.7  T
     SCC iter.                  ...        0 min,  0.433 sec
     gradient                   ...        0 min,  0.060 sec
 * total energy  :  -209.2754660 Eh     change       -0.2209929E-03 Eh
   gradient norm :     0.0029366 Eh/α   predicted    -0.1261572E-03 ( -42.91%)
   displ. norm   :     0.2951622 α      lambda       -0.2207925E-03
   maximum displ.:     0.2284501 α      in ANC's #3, #1, #13, ...

........................................................................
.............................. CYCLE   31 ..............................
........................................................................

 iter      E             dE          RMSdq      gap      omega  full diag
   1   -212.4192890 -0.212419E+03  0.184E-02    1.21       0.0  T
   2   -212.4192894 -0.358207E-06  0.108E-02    1.21       1.0  T
   3   -212.4192871  0.222143E-05  0.318E-03    1.21       2.6  T
   4   -212.4192896 -0.244915E-05  0.500E-04    1.21      16.8  T
   5   -212.4192896 -0.319500E-07  0.260E-04    1.21      32.4  T
   6   -212.4192896 -0.526467E-08  0.145E-04    1.21      57.9  T
     SCC iter.                  ...        0 min,  0.636 sec
     gradient                   ...        0 min,  0.065 sec
 * total energy  :  -209.2756804 Eh     change       -0.2143846E-03 Eh
   gradient norm :     0.0027960 Eh/α   predicted    -0.1200140E-03 ( -44.02%)
   displ. norm   :     0.3017304 α      lambda       -0.2300916E-03
   maximum displ.:     0.2316875 α      in ANC's #3, #1, #13, ...

........................................................................
.............................. CYCLE   32 ..............................
........................................................................

 iter      E             dE          RMSdq      gap      omega  full diag
   1   -212.4193458 -0.212419E+03  0.176E-02    1.21       0.0  T
   2   -212.4193460 -0.290941E-06  0.104E-02    1.21       1.0  T
   3   -212.4193439  0.212813E-05  0.315E-03    1.21       2.7  T
   4   -212.4193463 -0.234818E-05  0.467E-04    1.21      18.0  T
   5   -212.4193463 -0.279097E-07  0.240E-04    1.21      35.2  T
   6   -212.4193463 -0.384972E-08  0.130E-04    1.21      64.7  T
     SCC iter.                  ...        0 min,  0.471 sec
     gradient                   ...        0 min,  0.067 sec
 * total energy  :  -209.2759046 Eh     change       -0.2242070E-03 Eh
   gradient norm :     0.0025096 Eh/α   predicted    -0.1255226E-03 ( -44.01%)
   displ. norm   :     0.3273426 α      lambda       -0.2513351E-03
   maximum displ.:     0.2488807 α      in ANC's #3, #1, #5, ...

........................................................................
.............................. CYCLE   33 ..............................
........................................................................

 iter      E             dE          RMSdq      gap      omega  full diag
   1   -212.4192501 -0.212419E+03  0.180E-02    1.21       0.0  T
   2   -212.4192503 -0.254096E-06  0.106E-02    1.21       1.0  T
   3   -212.4192486  0.176343E-05  0.293E-03    1.21       2.9  T
   4   -212.4192505 -0.195160E-05  0.450E-04    1.21      18.7  T
   5   -212.4192506 -0.259564E-07  0.228E-04    1.21      36.9  T
   6   -212.4192506 -0.291715E-08  0.117E-04    1.21      72.0  T
     SCC iter.                  ...        0 min,  0.521 sec
     gradient                   ...        0 min,  0.062 sec
 * total energy  :  -209.2761492 Eh     change       -0.2445882E-03 Eh
   gradient norm :     0.0022690 Eh/α   predicted    -0.1391339E-03 ( -43.12%)
   displ. norm   :     0.3623107 α      lambda       -0.2751628E-03
   maximum displ.:     0.2728802 α      in ANC's #3, #1, #5, ...

........................................................................
.............................. CYCLE   34 ..............................
........................................................................

 iter      E             dE          RMSdq      gap      omega  full diag
   1   -212.4190853 -0.212419E+03  0.188E-02    1.21       0.0  T
   2   -212.4190856 -0.250051E-06  0.111E-02    1.21       1.0  T
   3   -212.4190843  0.125356E-05  0.256E-03    1.21       3.3  T
   4   -212.4190857 -0.140111E-05  0.437E-04    1.21      19.3  T
   5   -212.4190857 -0.235097E-07  0.224E-04    1.21      37.6  T
   6   -212.4190857 -0.249662E-08  0.108E-04    1.21      77.7  T
     SCC iter.                  ...        0 min,  0.438 sec
     gradient                   ...        0 min,  0.064 sec
 * total energy  :  -209.2764169 Eh     change       -0.2676354E-03 Eh
   gradient norm :     0.0022189 Eh/α   predicted    -0.1556428E-03 ( -41.85%)
   displ. norm   :     0.3957463 α      lambda       -0.2947572E-03
   maximum displ.:     0.2956987 α      in ANC's #3, #1, #5, ...

........................................................................
.............................. CYCLE   35 ..............................
........................................................................

 iter      E             dE          RMSdq      gap      omega  full diag
   1   -212.4189232 -0.212419E+03  0.197E-02    1.20       0.0  T
   2   -212.4189234 -0.240175E-06  0.116E-02    1.20       1.0  T
   3   -212.4189225  0.861532E-06  0.221E-03    1.20       3.8  T
   4   -212.4189235 -0.978921E-06  0.416E-04    1.20      20.2  T
   5   -212.4189235 -0.181979E-07  0.223E-04    1.20      37.7  T
     SCC iter.                  ...        0 min,  0.474 sec
     gradient                   ...        0 min,  0.064 sec
 * total energy  :  -209.2767034 Eh     change       -0.2865387E-03 Eh
   gradient norm :     0.0022539 Eh/α   predicted    -0.1704612E-03 ( -40.51%)
   displ. norm   :     0.4240144 α      lambda       -0.3086350E-03
   maximum displ.:     0.3147808 α      in ANC's #3, #1, #5, ...

........................................................................
.............................. CYCLE   36 ..............................
........................................................................

 iter      E             dE          RMSdq      gap      omega  full diag
   1   -212.4188756 -0.212419E+03  0.203E-02    1.20       0.0  T
   2   -212.4188759 -0.249061E-06  0.120E-02    1.20       1.0  T
   3   -212.4188751  0.812511E-06  0.217E-03    1.20       3.9  T
   4   -212.4188760 -0.918861E-06  0.448E-04    1.20      18.8  T
   5   -212.4188760 -0.219288E-07  0.244E-04    1.20      34.5  T
     SCC iter.                  ...        0 min,  0.392 sec
     gradient                   ...        0 min,  0.065 sec
 * total energy  :  -209.2770037 Eh     change       -0.3003448E-03 Eh
   gradient norm :     0.0022633 Eh/α   predicted    -0.1820634E-03 ( -39.38%)
   displ. norm   :     0.4468941 α      lambda       -0.3182797E-03
   maximum displ.:     0.3302146 α      in ANC's #3, #1, #5, ...

........................................................................
.............................. CYCLE   37 ..............................
........................................................................

 iter      E             dE          RMSdq      gap      omega  full diag
   1   -212.4189760 -0.212419E+03  0.207E-02    1.20       0.0  T
   2   -212.4189762 -0.238760E-06  0.122E-02    1.20       1.0  T
   3   -212.4189753  0.923203E-06  0.223E-03    1.20       3.8  T
   4   -212.4189763 -0.102679E-05  0.478E-04    1.20      17.6  T
   5   -212.4189763 -0.278665E-07  0.255E-04    1.20      33.1  T
   6   -212.4189763 -0.565015E-08  0.112E-04    1.20      75.0  T
     SCC iter.                  ...        0 min,  0.374 sec
     gradient                   ...        0 min,  0.064 sec
 * total energy  :  -209.2773137 Eh     change       -0.3099807E-03 Eh
   gradient norm :     0.0021393 Eh/α   predicted    -0.1909241E-03 ( -38.41%)
   displ. norm   :     0.4654062 α      lambda       -0.3246945E-03
   maximum displ.:     0.3428144 α      in ANC's #3, #1, #5, ...

........................................................................
.............................. CYCLE   38 ..............................
........................................................................

 iter      E             dE          RMSdq      gap      omega  full diag
   1   -212.4192771 -0.212419E+03  0.210E-02    1.20       0.0  T
   2   -212.4192773 -0.238253E-06  0.124E-02    1.20       1.0  T
   3   -212.4192761  0.124662E-05  0.246E-03    1.20       3.4  T
   4   -212.4192774 -0.136709E-05  0.497E-04    1.20      16.9  T
   5   -212.4192775 -0.327444E-07  0.255E-04    1.20      33.1  T
   6   -212.4192775 -0.510556E-08  0.114E-04    1.20      73.6  T
     SCC iter.                  ...        0 min,  0.373 sec
     gradient                   ...        0 min,  0.065 sec
 * total energy  :  -209.2776301 Eh     change       -0.3164097E-03 Eh
   gradient norm :     0.0019313 Eh/α   predicted    -0.1975129E-03 ( -37.58%)
   displ. norm   :     0.7212000 α      lambda       -0.3286341E-03
   maximum displ.:     0.5303458 α      in ANC's #3, #1, #5, ...

........................................................................
.............................. CYCLE   39 ..............................
........................................................................

 iter      E             dE          RMSdq      gap      omega  full diag
   1   -212.4197571 -0.212420E+03  0.318E-02    1.20       0.0  T
   2   -212.4197576 -0.507170E-06  0.187E-02    1.20       1.0  T
   3   -212.4197546  0.293997E-05  0.373E-03    1.20       2.3  T
   4   -212.4197579 -0.322968E-05  0.717E-04    1.20      11.7  T
   5   -212.4197579 -0.629468E-07  0.380E-04    1.20      22.1  T
   6   -212.4197579 -0.113141E-07  0.171E-04    1.20      49.1  T
     SCC iter.                  ...        0 min,  0.431 sec
     gradient                   ...        0 min,  0.064 sec
 * total energy  :  -209.2781046 Eh     change       -0.4744335E-03 Eh
   gradient norm :     0.0017224 Eh/α   predicted    -0.2023022E-03 ( -57.36%)
   displ. norm   :     0.7166985 α      lambda       -0.3138252E-03
   maximum displ.:     0.5275635 α      in ANC's #3, #1, #5, ...

........................................................................
.............................. CYCLE   40 ..............................
........................................................................

 iter      E             dE          RMSdq      gap      omega  full diag
   1   -212.4204750 -0.212420E+03  0.309E-02    1.20       0.0  T
   2   -212.4204755 -0.505359E-06  0.182E-02    1.20       1.0  T
   3   -212.4204732  0.236751E-05  0.335E-03    1.20       2.5  T
   4   -212.4204758 -0.263463E-05  0.663E-04    1.20      12.7  T
   5   -212.4204759 -0.481999E-07  0.357E-04    1.20      23.6  T
   6   -212.4204759 -0.753772E-08  0.175E-04    1.20      48.1  T
     SCC iter.                  ...        0 min,  0.816 sec
     gradient                   ...        0 min,  0.074 sec
 * total energy  :  -209.2785597 Eh     change       -0.4551756E-03 Eh
   gradient norm :     0.0017174 Eh/α   predicted    -0.1927350E-03 ( -57.66%)
   displ. norm   :     0.7147284 α      lambda       -0.3052628E-03
   maximum displ.:     0.5266694 α      in ANC's #3, #1, #2, ...

........................................................................
.............................. CYCLE   41 ..............................
........................................................................

 iter      E             dE          RMSdq      gap      omega  full diag
   1   -212.4211954 -0.212421E+03  0.308E-02    1.20       0.0  T
   2   -212.4211958 -0.494412E-06  0.182E-02    1.20       1.0  T
   3   -212.4211940  0.182887E-05  0.305E-03    1.20       2.8  T
   4   -212.4211961 -0.207468E-05  0.616E-04    1.20      13.7  T
   5   -212.4211961 -0.366820E-07  0.341E-04    1.20      24.7  T
   6   -212.4211961 -0.531193E-08  0.170E-04    1.20      49.5  T
     SCC iter.                  ...        0 min,  0.473 sec
     gradient                   ...        0 min,  0.061 sec
 * total energy  :  -209.2790040 Eh     change       -0.4442430E-03 Eh
   gradient norm :     0.0019723 Eh/α   predicted    -0.1872855E-03 ( -57.84%)
   displ. norm   :     0.7270206 α      lambda       -0.3073617E-03
   maximum displ.:     0.5357765 α      in ANC's #3, #1, #2, ...

........................................................................
.............................. CYCLE   42 ..............................
........................................................................

 iter      E             dE          RMSdq      gap      omega  full diag
   1   -212.4221227 -0.212422E+03  0.319E-02    1.21       0.0  T
   2   -212.4221235 -0.787560E-06  0.188E-02    1.21       1.0  T
   3   -212.4221207  0.279738E-05  0.356E-03    1.21       2.4  T
   4   -212.4221238 -0.313731E-05  0.727E-04    1.21      11.6  T
   5   -212.4221239 -0.660177E-07  0.340E-04    1.21      24.8  T
   6   -212.4221239 -0.131047E-08  0.179E-04    1.21      46.9  T
     SCC iter.                  ...        0 min,  0.737 sec
     gradient                   ...        0 min,  0.060 sec
 * total energy  :  -209.2794503 Eh     change       -0.4463040E-03 Eh
   gradient norm :     0.0019324 Eh/α   predicted    -0.1897835E-03 ( -57.48%)
   displ. norm   :     0.7557792 α      lambda       -0.3184914E-03
   maximum displ.:     0.5570860 α      in ANC's #3, #1, #2, ...
 * RMSD in coord.:     0.7372945 α      energy gain  -0.6502739E-02 Eh

generating ANC from model Hessian ...
Using Lindh-Hessian (1995)
 Shifting diagonal of input Hessian by    9.9633052975424650E-003
 Lowest  eigenvalues of input Hessian
    0.000000    0.000000    0.000000    0.000000    0.000000    0.000000
    0.010000    0.010021    0.010027    0.010119    0.010161    0.010397
    0.010404    0.010470    0.010584    0.010729    0.010796    0.010832
 Highest eigenvalues
    2.080729    2.081477    2.225645    2.225961    2.245532    2.245978


........................................................................
.............................. CYCLE   43 ..............................
........................................................................

 iter      E             dE          RMSdq      gap      omega  full diag
   1   -212.4225967 -0.212423E+03  0.342E-02    1.21       0.0  T
   2   -212.4225975 -0.815786E-06  0.201E-02    1.21       1.0  T
   3   -212.4225958  0.175364E-05  0.317E-03    1.21       2.7  T
   4   -212.4225978 -0.205314E-05  0.675E-04    1.21      12.5  T
   5   -212.4225979 -0.431347E-07  0.347E-04    1.21      24.3  T
   6   -212.4225979 -0.202596E-08  0.186E-04    1.21      45.3  T
     SCC iter.                  ...        0 min,  0.508 sec
     gradient                   ...        0 min,  0.063 sec
 * total energy  :  -209.2799135 Eh     change       -0.4632245E-03 Eh
   gradient norm :     0.0019303 Eh/α   predicted     0.0000000E+00 (-100.00%)
   displ. norm   :     0.1144493 α      lambda       -0.6639086E-04
   maximum displ.:     0.0998084 α      in ANC's #3, #1, #8, ...

........................................................................
.............................. CYCLE   44 ..............................
........................................................................

 iter      E             dE          RMSdq      gap      omega  full diag
   1   -212.4238975 -0.212424E+03  0.857E-03    1.21       0.0  T
   2   -212.4238977 -0.188493E-06  0.508E-03    1.21       1.7  T
   3   -212.4238971  0.602043E-06  0.158E-03    1.21       5.3  T
   4   -212.4238977 -0.646299E-06  0.421E-04    1.21      20.0  T
   5   -212.4238978 -0.380379E-07  0.127E-04    1.21      66.2  T
     SCC iter.                  ...        0 min,  0.306 sec
     gradient                   ...        0 min,  0.064 sec
 * total energy  :  -209.2800081 Eh     change       -0.9458774E-04 Eh
   gradient norm :     0.0012419 Eh/α   predicted    -0.3346919E-04 ( -64.62%)
   displ. norm   :     0.2315274 α      lambda       -0.1238826E-03
   maximum displ.:     0.1742743 α      in ANC's #3, #1, #8, ...

........................................................................
.............................. CYCLE   45 ..............................
........................................................................

 iter      E             dE          RMSdq      gap      omega  full diag
   1   -212.4246203 -0.212425E+03  0.179E-02    1.21       0.0  T
   2   -212.4246207 -0.409595E-06  0.105E-02    1.21       1.0  T
   3   -212.4246195  0.117397E-05  0.225E-03    1.21       3.7  T
   4   -212.4246208 -0.124074E-05  0.638E-04    1.21      13.2  T
   5   -212.4246209 -0.833932E-07  0.235E-04    1.21      35.9  T
   6   -212.4246209 -0.463808E-08  0.128E-04    1.21      65.6  T
     SCC iter.                  ...        0 min,  0.426 sec
     gradient                   ...        0 min,  0.061 sec
 * total energy  :  -209.2801834 Eh     change       -0.1753172E-03 Eh
   gradient norm :     0.0016200 Eh/α   predicted    -0.6341717E-04 ( -63.83%)
   displ. norm   :     0.4194135 α      lambda       -0.2024210E-03
   maximum displ.:     0.2995103 α      in ANC's #3, #1, #8, ...

........................................................................
.............................. CYCLE   46 ..............................
........................................................................

 iter      E             dE          RMSdq      gap      omega  full diag
   1   -212.4229584 -0.212423E+03  0.316E-02    1.21       0.0  T
   2   -212.4229596 -0.113659E-05  0.186E-02    1.21       1.0  T
   3   -212.4229577  0.185771E-05  0.328E-03    1.21       2.6  T
   4   -212.4229597 -0.204136E-05  0.925E-04    1.21       9.1  T
   5   -212.4229599 -0.134234E-06  0.422E-04    1.21      20.0  T
   6   -212.4229599 -0.199811E-07  0.225E-04    1.21      37.4  T
     SCC iter.                  ...        0 min,  0.356 sec
     gradient                   ...        0 min,  0.060 sec
 * total energy  :  -209.2804592 Eh     change       -0.2757638E-03 Eh
   gradient norm :     0.0018349 Eh/α   predicted    -0.1091288E-03 ( -60.43%)
   displ. norm   :     0.5410379 α      lambda       -0.2256359E-03
   maximum displ.:     0.3843671 α      in ANC's #3, #1, #8, ...

........................................................................
.............................. CYCLE   47 ..............................
........................................................................

 iter      E             dE          RMSdq      gap      omega  full diag
   1   -212.4222213 -0.212422E+03  0.383E-02    1.21       0.0  T
   2   -212.4222228 -0.145159E-05  0.226E-02    1.21       1.0  T
   3   -212.4222199  0.290840E-05  0.406E-03    1.21       2.1  T
   4   -212.4222231 -0.321578E-05  0.103E-03    1.21       8.1  T
   5   -212.4222233 -0.161953E-06  0.493E-04    1.21      17.1  T
   6   -212.4222233 -0.288121E-07  0.249E-04    1.21      33.9  T
     SCC iter.                  ...        0 min,  0.329 sec
     gradient                   ...        0 min,  0.081 sec
 * total energy  :  -209.2807630 Eh     change       -0.3037857E-03 Eh
   gradient norm :     0.0024635 Eh/α   predicted    -0.1274996E-03 ( -58.03%)
   displ. norm   :     0.3604680 α      lambda       -0.2004631E-03
   maximum displ.:     0.2574437 α      in ANC's #3, #1, #8, ...

........................................................................
.............................. CYCLE   48 ..............................
........................................................................

 iter      E             dE          RMSdq      gap      omega  full diag
   1   -212.4220109 -0.212422E+03  0.240E-02    1.21       0.0  T
   2   -212.4220114 -0.509654E-06  0.141E-02    1.21       1.0  T
   3   -212.4220102  0.120512E-05  0.271E-03    1.21       3.1  T
   4   -212.4220115 -0.136633E-05  0.565E-04    1.21      14.9  T
   5   -212.4220116 -0.385721E-07  0.298E-04    1.21      28.2  T
   6   -212.4220116 -0.937081E-08  0.154E-04    1.21      54.5  T
     SCC iter.                  ...        0 min,  0.311 sec
     gradient                   ...        0 min,  0.069 sec
 * total energy  :  -209.2809531 Eh     change       -0.1900856E-03 Eh
   gradient norm :     0.0024401 Eh/α   predicted    -0.1132572E-03 ( -40.42%)
   displ. norm   :     0.3704929 α      lambda       -0.2043914E-03
   maximum displ.:     0.2638685 α      in ANC's #3, #1, #8, ...

........................................................................
.............................. CYCLE   49 ..............................
........................................................................

 iter      E             dE          RMSdq      gap      omega  full diag
   1   -212.4222651 -0.212422E+03  0.233E-02    1.21       0.0  T
   2   -212.4222656 -0.430449E-06  0.137E-02    1.21       1.0  T
   3   -212.4222640  0.159521E-05  0.304E-03    1.21       2.8  T
   4   -212.4222658 -0.179728E-05  0.523E-04    1.21      16.1  T
   5   -212.4222658 -0.329416E-07  0.282E-04    1.21      29.9  T
   6   -212.4222658 -0.666196E-08  0.143E-04    1.21      58.8  T
     SCC iter.                  ...        0 min,  0.378 sec
     gradient                   ...        0 min,  0.065 sec
 * total energy  :  -209.2811496 Eh     change       -0.1965736E-03 Eh
   gradient norm :     0.0022056 Eh/α   predicted    -0.1162241E-03 ( -40.88%)
   displ. norm   :     0.4018663 α      lambda       -0.2254005E-03
   maximum displ.:     0.2847627 α      in ANC's #3, #1, #8, ...

........................................................................
.............................. CYCLE   50 ..............................
........................................................................

 iter      E             dE          RMSdq      gap      omega  full diag
   1   -212.4226420 -0.212423E+03  0.239E-02    1.21       0.0  T
   2   -212.4226424 -0.418724E-06  0.140E-02    1.21       1.0  T
   3   -212.4226404  0.203261E-05  0.339E-03    1.21       2.5  T
   4   -212.4226427 -0.228209E-05  0.527E-04    1.21      16.0  T
   5   -212.4226427 -0.337824E-07  0.285E-04    1.21      29.6  T
   6   -212.4226427 -0.512239E-08  0.145E-04    1.21      58.2  T
     SCC iter.                  ...        0 min,  0.423 sec
     gradient                   ...        0 min,  0.068 sec
 * total energy  :  -209.2813679 Eh     change       -0.2182195E-03 Eh
   gradient norm :     0.0018488 Eh/α   predicted    -0.1309014E-03 ( -40.01%)
   displ. norm   :     0.6861368 α      lambda       -0.2604867E-03
   maximum displ.:     0.4835748 α      in ANC's #3, #1, #8, ...

........................................................................
.............................. CYCLE   51 ..............................
........................................................................

 iter      E             dE          RMSdq      gap      omega  full diag
   1   -212.4228804 -0.212423E+03  0.388E-02    1.21       0.0  T
   2   -212.4228815 -0.106833E-05  0.228E-02    1.21       1.0  T
   3   -212.4228761  0.539312E-05  0.553E-03    1.21       1.5  T
   4   -212.4228821 -0.605578E-05  0.846E-04    1.21      10.0  T
   5   -212.4228822 -0.845241E-07  0.465E-04    1.21      18.1  T
   6   -212.4228822 -0.114780E-07  0.239E-04    1.21      35.3  T
     SCC iter.                  ...        0 min,  0.451 sec
     gradient                   ...        0 min,  0.062 sec
 * total energy  :  -209.2817397 Eh     change       -0.3718562E-03 Eh
   gradient norm :     0.0014501 Eh/α   predicted    -0.1575021E-03 ( -57.64%)
   displ. norm   :     0.7526740 α      lambda       -0.2790606E-03
   maximum displ.:     0.5296677 α      in ANC's #3, #1, #8, ...

........................................................................
.............................. CYCLE   52 ..............................
........................................................................

 iter      E             dE          RMSdq      gap      omega  full diag
   1   -212.4229465 -0.212423E+03  0.402E-02    1.21       0.0  T
   2   -212.4229475 -0.108449E-05  0.236E-02    1.21       1.0  T
   3   -212.4229428  0.472141E-05  0.517E-03    1.21       1.6  T
   4   -212.4229481 -0.532153E-05  0.849E-04    1.21       9.9  T
   5   -212.4229482 -0.791457E-07  0.472E-04    1.21      17.8  T
   6   -212.4229482 -0.105788E-07  0.245E-04    1.21      34.4  T
     SCC iter.                  ...        0 min,  0.487 sec
     gradient                   ...        0 min,  0.066 sec
 * total energy  :  -209.2821387 Eh     change       -0.3990039E-03 Eh
   gradient norm :     0.0017303 Eh/α   predicted    -0.1746643E-03 ( -56.22%)
   displ. norm   :     0.8172718 α      lambda       -0.2972894E-03
   maximum displ.:     0.5744841 α      in ANC's #3, #1, #8, ...

........................................................................
.............................. CYCLE   53 ..............................
........................................................................

 iter      E             dE          RMSdq      gap      omega  full diag
   1   -212.4234453 -0.212423E+03  0.417E-02    1.21       0.0  T
   2   -212.4234465 -0.114462E-05  0.246E-02    1.21       1.0  T
   3   -212.4234415  0.499418E-05  0.503E-03    1.21       1.7  T
   4   -212.4234471 -0.560103E-05  0.885E-04    1.21       9.5  T
   5   -212.4234472 -0.865960E-07  0.472E-04    1.21      17.8  T
   6   -212.4234472 -0.795291E-08  0.248E-04    1.21      33.9  T
     SCC iter.                  ...        0 min,  0.523 sec
     gradient                   ...        0 min,  0.065 sec
 * total energy  :  -209.2825646 Eh     change       -0.4258589E-03 Eh
   gradient norm :     0.0025636 Eh/α   predicted    -0.1927777E-03 ( -54.73%)
   displ. norm   :     0.5934131 α      lambda       -0.3214685E-03
   maximum displ.:     0.4168954 α      in ANC's #3, #1, #8, ...

........................................................................
.............................. CYCLE   54 ..............................
........................................................................

 iter      E             dE          RMSdq      gap      omega  full diag
   1   -212.4238974 -0.212424E+03  0.295E-02    1.21       0.0  T
   2   -212.4238980 -0.518037E-06  0.174E-02    1.21       1.0  T
   3   -212.4238961  0.189521E-05  0.307E-03    1.21       2.7  T
   4   -212.4238982 -0.213808E-05  0.605E-04    1.21      13.9  T
   5   -212.4238982 -0.392078E-07  0.316E-04    1.21      26.7  T
   6   -212.4238982 -0.271427E-08  0.165E-04    1.21      51.0  T
     SCC iter.                  ...        0 min,  0.480 sec
     gradient                   ...        0 min,  0.060 sec
 * total energy  :  -209.2828762 Eh     change       -0.3116191E-03 Eh
   gradient norm :     0.0028635 Eh/α   predicted    -0.2173361E-03 ( -30.26%)
   displ. norm   :     0.6678916 α      lambda       -0.3668142E-03
   maximum displ.:     0.4690809 α      in ANC's #3, #1, #8, ...

........................................................................
.............................. CYCLE   55 ..............................
........................................................................

 iter      E             dE          RMSdq      gap      omega  full diag
   1   -212.4246391 -0.212425E+03  0.325E-02    1.21       0.0  T
   2   -212.4246397 -0.637690E-06  0.192E-02    1.21       1.0  T
   3   -212.4246370  0.275148E-05  0.345E-03    1.21       2.4  T
   4   -212.4246401 -0.307534E-05  0.679E-04    1.21      12.4  T
   5   -212.4246401 -0.500910E-07  0.339E-04    1.21      24.9  T
   6   -212.4246401 -0.157331E-08  0.176E-04    1.21      47.8  T
     SCC iter.                  ...        0 min,  0.569 sec
     gradient                   ...        0 min,  0.074 sec
 * total energy  :  -209.2832320 Eh     change       -0.3558072E-03 Eh
   gradient norm :     0.0029884 Eh/α   predicted    -0.2652227E-03 ( -25.46%)
   displ. norm   :     0.7298090 α      lambda       -0.4022171E-03
   maximum displ.:     0.5133842 α      in ANC's #3, #1, #2, ...

........................................................................
.............................. CYCLE   56 ..............................
........................................................................

 iter      E             dE          RMSdq      gap      omega  full diag
   1   -212.4251061 -0.212425E+03  0.352E-02    1.21       0.0  T
   2   -212.4251068 -0.669409E-06  0.208E-02    1.21       1.0  T
   3   -212.4251040  0.280922E-05  0.350E-03    1.21       2.4  T
   4   -212.4251071 -0.315338E-05  0.710E-04    1.21      11.9  T
   5   -212.4251072 -0.502548E-07  0.364E-04    1.21      23.1  T
   6   -212.4251072 -0.222101E-08  0.186E-04    1.21      45.2  T
     SCC iter.                  ...        0 min,  0.530 sec
     gradient                   ...        0 min,  0.064 sec
 * total energy  :  -209.2836219 Eh     change       -0.3899193E-03 Eh
   gradient norm :     0.0028866 Eh/α   predicted    -0.3082248E-03 ( -20.95%)
   displ. norm   :     0.7723016 α      lambda       -0.4240367E-03
   maximum displ.:     0.5451748 α      in ANC's #3, #1, #5, ...

........................................................................
.............................. CYCLE   57 ..............................
........................................................................

 iter      E             dE          RMSdq      gap      omega  full diag
   1   -212.4254798 -0.212425E+03  0.370E-02    1.21       0.0  T
   2   -212.4254806 -0.750436E-06  0.218E-02    1.21       1.0  T
   3   -212.4254773  0.327933E-05  0.378E-03    1.21       2.2  T
   4   -212.4254810 -0.366823E-05  0.763E-04    1.21      11.0  T
   5   -212.4254810 -0.598358E-07  0.390E-04    1.21      21.6  T
   6   -212.4254810 -0.305482E-08  0.199E-04    1.21      42.3  T
     SCC iter.                  ...        0 min,  0.499 sec
     gradient                   ...        0 min,  0.065 sec
 * total energy  :  -209.2840311 Eh     change       -0.4091676E-03 Eh
   gradient norm :     0.0024791 Eh/α   predicted    -0.3384776E-03 ( -17.28%)
   displ. norm   :     0.8015001 α      lambda       -0.4297867E-03
   maximum displ.:     0.5681741 α      in ANC's #3, #1, #5, ...

........................................................................
.............................. CYCLE   58 ..............................
........................................................................

 iter      E             dE          RMSdq      gap      omega  full diag
   1   -212.4256553 -0.212426E+03  0.382E-02    1.21       0.0  T
   2   -212.4256561 -0.805420E-06  0.226E-02    1.21       1.0  T
   3   -212.4256526  0.351974E-05  0.399E-03    1.21       2.1  T
   4   -212.4256565 -0.393411E-05  0.798E-04    1.21      10.6  T
   5   -212.4256566 -0.659981E-07  0.415E-04    1.21      20.3  T
   6   -212.4256566 -0.544367E-08  0.208E-04    1.21      40.4  T
     SCC iter.                  ...        0 min,  0.694 sec
     gradient                   ...        0 min,  0.060 sec
 * total energy  :  -209.2844430 Eh     change       -0.4119578E-03 Eh
   gradient norm :     0.0019520 Eh/α   predicted    -0.3529424E-03 ( -14.33%)
   displ. norm   :     1.2224053 α      lambda       -0.4176088E-03
   maximum displ.:     0.8709064 α      in ANC's #3, #1, #5, ...

........................................................................
.............................. CYCLE   59 ..............................
........................................................................

 iter      E             dE          RMSdq      gap      omega  full diag
   1   -212.4252509 -0.212425E+03  0.581E-02    1.21       0.0  T
   2   -212.4252529 -0.194708E-05  0.343E-02    1.21       1.0  T
   3   -212.4252445  0.840988E-05  0.622E-03    1.21       1.4  T
   4   -212.4252539 -0.937685E-05  0.124E-03    1.21       6.8  T
   5   -212.4252540 -0.167944E-06  0.642E-04    1.21      13.1  T
   6   -212.4252540 -0.157020E-07  0.322E-04    1.21      26.1  T
     SCC iter.                  ...        0 min,  0.502 sec
     gradient                   ...        0 min,  0.060 sec
 * total energy  :  -209.2850227 Eh     change       -0.5796448E-03 Eh
   gradient norm :     0.0017709 Eh/α   predicted    -0.3474773E-03 ( -40.05%)
   displ. norm   :     1.1797795 α      lambda       -0.3608562E-03
   maximum displ.:     0.8455274 α      in ANC's #3, #1, #5, ...

........................................................................
.............................. CYCLE   60 ..............................
........................................................................

 iter      E             dE          RMSdq      gap      omega  full diag
   1   -212.4251131 -0.212425E+03  0.561E-02    1.21       0.0  T
[...]
    31   6 C    3.941 --    34 C    1.259    32 C    1.200    27 C    1.178
    32   6 C    3.986 --    33 C    1.280    37 C    1.267    31 C    1.200
    33   6 C    3.976 --    40 C    1.397    32 C    1.280    47 C    1.055
    34   6 C    3.977 --    31 C    1.259    35 C    1.244    41 C    1.211
    35   6 C    3.976 --    44 C    1.429    34 C    1.244    36 C    1.054
    36   6 C    3.938 --    48 O    1.695    37 C    1.060    35 C    1.054
    37   6 C    3.980 --    38 C    1.405    32 C    1.267    36 C    1.060
    38   6 C    3.984 --    37 C    1.405    39 C    1.396   140 H    0.959
    39   6 C    3.966 --    40 C    1.407    38 C    1.396    72 C    0.983
    40   6 C    3.983 --    39 C    1.407    33 C    1.397   141 H    0.959
    41   6 C    3.920 --    42 C    1.349    34 C    1.211    45 O    1.152
    42   6 C    3.974 --    43 C    1.425    41 C    1.349   136 H    0.960
    43   6 C    3.956 --    42 C    1.425    44 C    1.361    68 C    0.985
    44   6 C    3.969 --    35 C    1.429    43 C    1.361   137 H    0.959
    45   8 O    2.160 --    41 C    1.152    24 B    0.749
    46   8 O    2.157 --    26 C    1.095    24 B    0.827
    47   6 C    3.937 --    49 O    1.685    28 C    1.070    33 C    1.055
    48   8 O    1.979 --    36 C    1.695
    49   8 O    1.969 --    47 C    1.685
    50   8 O    1.979 --    10 C    1.695
    51   8 O    1.969 --    13 C    1.685
    52   6 C    3.990 --    53 C    0.999    54 C    0.992     6 C    0.985
                            55 C    0.979
    53   6 C    3.996 --    52 C    0.999   121 H    0.985   122 H    0.984
                           123 H    0.979
    54   6 C    3.994 --    52 C    0.992   127 H    0.985   128 H    0.982
                           129 H    0.982
    55   6 C    3.992 --   126 H    0.987   125 H    0.986   124 H    0.984
                            52 C    0.979
    56   6 C    3.991 --    57 C    1.000    59 C    0.989    58 C    0.985
                            20 C    0.983
    57   6 C    3.996 --    56 C    1.000    97 H    0.985    99 H    0.985
                            98 H    0.984
    58   6 C    3.994 --    96 H    0.986    56 C    0.985    94 H    0.984
                            95 H    0.980
    59   6 C    3.994 --    56 C    0.989   101 H    0.987   100 H    0.985
                           102 H    0.976
    60   6 C    3.990 --    62 C    1.000    61 C    0.988    63 C    0.987
                            16 C    0.983
    61   6 C    3.994 --    60 C    0.988   111 H    0.987   109 H    0.985
                           110 H    0.983
    62   6 C    3.996 --    60 C    1.000   106 H    0.985   107 H    0.985
                           108 H    0.984
    63   6 C    3.994 --   104 H    0.987    60 C    0.987   103 H    0.985
                           105 H    0.984
    64   6 C    3.991 --    67 C    1.000    65 C    0.989    66 C    0.984
                            30 C    0.983
    65   6 C    3.994 --    64 C    0.989   113 H    0.987   112 H    0.985
                           114 H    0.976
    66   6 C    3.993 --   117 H    0.986    64 C    0.984   115 H    0.984
                           116 H    0.980
    67   6 C    3.996 --    64 C    1.000   118 H    0.985   120 H    0.985
                           119 H    0.984
    68   6 C    3.990 --    71 C    0.999    70 C    0.992    43 C    0.985
                            69 C    0.979
    69   6 C    3.992 --    93 H    0.987    92 H    0.986    91 H    0.984
                            68 C    0.979
    70   6 C    3.994 --    68 C    0.992    85 H    0.985    87 H    0.982
                            86 H    0.982
    71   6 C    3.996 --    68 C    0.999    88 H    0.985    89 H    0.984
                            90 H    0.979
    72   6 C    3.990 --    74 C    1.000    75 C    0.988    73 C    0.986
                            39 C    0.983
    73   6 C    3.994 --    80 H    0.987    72 C    0.986    79 H    0.985
                            81 H    0.984
    74   6 C    3.996 --    72 C    1.000    76 H    0.985    77 H    0.985
                            78 H    0.984
    75   6 C    3.994 --    72 C    0.988    84 H    0.987    82 H    0.985
                            83 H    0.983
    76   1 H    0.999 --    74 C    0.985
    77   1 H    0.999 --    74 C    0.985
    78   1 H    0.999 --    74 C    0.984
    79   1 H    0.998 --    73 C    0.985
    80   1 H    0.999 --    73 C    0.987
    81   1 H    0.998 --    73 C    0.984
    82   1 H    0.998 --    75 C    0.985
    83   1 H    0.998 --    75 C    0.983
    84   1 H    0.999 --    75 C    0.987
    85   1 H    0.998 --    70 C    0.985
    86   1 H    0.998 --    70 C    0.982
    87   1 H    0.998 --    70 C    0.982
    88   1 H    0.999 --    71 C    0.985
    89   1 H    0.999 --    71 C    0.984
    90   1 H    0.998 --    71 C    0.979
    91   1 H    0.997 --    69 C    0.984
    92   1 H    0.999 --    69 C    0.986
    93   1 H    0.999 --    69 C    0.987
    94   1 H    0.998 --    58 C    0.984
    95   1 H    0.998 --    58 C    0.980
    96   1 H    0.999 --    58 C    0.986
    97   1 H    0.999 --    57 C    0.985
    98   1 H    0.998 --    57 C    0.984
    99   1 H    0.999 --    57 C    0.985
   100   1 H    0.998 --    59 C    0.985
   101   1 H    0.999 --    59 C    0.987
   102   1 H    0.998 --    59 C    0.976
   103   1 H    0.998 --    63 C    0.985
   104   1 H    0.999 --    63 C    0.987
   105   1 H    0.998 --    63 C    0.984
   106   1 H    0.999 --    62 C    0.985
   107   1 H    0.999 --    62 C    0.985
   108   1 H    0.999 --    62 C    0.984
   109   1 H    0.998 --    61 C    0.985
   110   1 H    0.998 --    61 C    0.983
   111   1 H    0.999 --    61 C    0.987
   112   1 H    0.998 --    65 C    0.985
   113   1 H    0.999 --    65 C    0.987
   114   1 H    0.998 --    65 C    0.976
   115   1 H    0.998 --    66 C    0.984
   116   1 H    0.998 --    66 C    0.980
   117   1 H    0.999 --    66 C    0.986
   118   1 H    0.999 --    67 C    0.985
   119   1 H    0.998 --    67 C    0.984
   120   1 H    0.999 --    67 C    0.985
   121   1 H    0.999 --    53 C    0.985
   122   1 H    0.999 --    53 C    0.984
   123   1 H    0.998 --    53 C    0.979
   124   1 H    0.997 --    55 C    0.984
   125   1 H    0.999 --    55 C    0.986
   126   1 H    0.999 --    55 C    0.987
   127   1 H    0.998 --    54 C    0.985
   128   1 H    0.998 --    54 C    0.982
   129   1 H    0.998 --    54 C    0.982
   130   1 H    0.996 --     5 C    0.959
   131   1 H    0.997 --     1 C    0.960
   132   1 H    0.996 --    17 C    0.959
   133   1 H    0.996 --    15 C    0.959
   134   1 H    0.995 --    21 C    0.958
   135   1 H    0.997 --    19 C    0.956
   136   1 H    0.997 --    42 C    0.960
   137   1 H    0.996 --    44 C    0.959
   138   1 H    0.997 --    25 C    0.956
   139   1 H    0.995 --    29 C    0.958
   140   1 H    0.996 --    38 C    0.959
   141   1 H    0.996 --    40 C    0.959
 ---------------------------------------------------------------------------

Topologies differ in bond orders
Writing corrected topology to xtbtopo.mol

molecular dipole:
                 x           y           z       tot (Debye)
 q only:       -0.086      -0.380       1.296
   full:       -0.105      -0.406       1.476       3.901
molecular quadrupole (traceless):
                xx          xy          yy          xz          yz          zz
 q only:      -55.755      13.238      14.289      -7.207      -2.625      41.466
  q+dip:      -60.803      16.584      15.315      -7.588      -2.679      45.487
   full:      -59.218      17.894       9.971      -7.575      -3.991      49.247

           -------------------------------------------------
          |                Geometry Summary                 |
           -------------------------------------------------

      molecular mass/u    :      998.0389263
   center of mass at/Å    :       -0.0356697       0.0869568       0.0709232
  moments of inertia/u·Å² :        0.1564655E+05   0.2460582E+05   0.2930127E+05
rotational constants/cm⁻¹ :        0.1077403E-02   0.6851075E-03   0.5753209E-03

 * 134 selected distances

     #   Z          #   Z                                           value/Å
     1   6 C        2   6 C                                       1.4018515
     3   6 C        4   6 C                                       1.4247090
     4   6 C        5   6 C                                       1.3831761
     1   6 C        6   6 C                                       1.3857090
     5   6 C        6   6 C                                       1.3917080
     3   6 C        7   6 C                                       1.4285010
     7   6 C        8   6 C                                       1.4336312
     8   6 C        9   6 C                                       1.4104989
    11   6 C       12   6 C                                       1.4162800
     8   6 C       14   6 C                                       1.4094421
    14   6 C       15   6 C                                       1.3901178
    15   6 C       16   6 C                                       1.3874803
     9   6 C       17   6 C                                       1.3873502
    16   6 C       17   6 C                                       1.3902936
    11   6 C       18   6 C                                       1.4173165
    18   6 C       19   6 C                                       1.3911129
    19   6 C       20   6 C                                       1.3906064
    12   6 C       21   6 C                                       1.3910214
    20   6 C       21   6 C                                       1.3836396
     2   6 C       22   8 O                                       1.3294436
    18   6 C       23   8 O                                       1.3393698
    22   8 O       24   5 B                                       1.4972017
    23   8 O       24   5 B                                       1.4378478
    25   6 C       26   6 C                                       1.3911169
    26   6 C       27   6 C                                       1.4173029
    27   6 C       28   6 C                                       1.4163629
    28   6 C       29   6 C                                       1.3909496
    25   6 C       30   6 C                                       1.3905167
    29   6 C       30   6 C                                       1.3836874
    31   6 C       32   6 C                                       1.4336360
    32   6 C       33   6 C                                       1.4095473
    31   6 C       34   6 C                                       1.4289414
    34   6 C       35   6 C                                       1.4246995
    32   6 C       37   6 C                                       1.4104625
    37   6 C       38   6 C                                       1.3873896
    38   6 C       39   6 C                                       1.3902264
    33   6 C       40   6 C                                       1.3900866
    39   6 C       40   6 C                                       1.3875019
    41   6 C       42   6 C                                       1.4017364
    42   6 C       43   6 C                                       1.3855191
    35   6 C       44   6 C                                       1.3832246
    43   6 C       44   6 C                                       1.3914742
    24   5 B       45   8 O                                       1.4971380
    41   6 C       45   8 O                                       1.3299855
    24   5 B       46   8 O                                       1.4385477
    26   6 C       46   8 O                                       1.3395416
    36   6 C       48   8 O                                       1.2271437
    47   6 C       49   8 O                                       1.2289715
    10   6 C       50   8 O                                       1.2270431
    13   6 C       51   8 O                                       1.2289231
    52   6 C       53   6 C                                       1.5299838
    52   6 C       54   6 C                                       1.5345401
    52   6 C       55   6 C                                       1.5380282 (max)
    56   6 C       57   6 C                                       1.5310598
    56   6 C       58   6 C                                       1.5354097
    56   6 C       59   6 C                                       1.5330633
    60   6 C       61   6 C                                       1.5351015
    60   6 C       62   6 C                                       1.5306850
    60   6 C       63   6 C                                       1.5351308
    64   6 C       65   6 C                                       1.5331219
    64   6 C       66   6 C                                       1.5353882
    64   6 C       67   6 C                                       1.5310773
    68   6 C       69   6 C                                       1.5379300
    68   6 C       70   6 C                                       1.5345625
    68   6 C       71   6 C                                       1.5299485
    72   6 C       73   6 C                                       1.5350461
    72   6 C       74   6 C                                       1.5307516
    72   6 C       75   6 C                                       1.5349901
    74   6 C       76   1 H                                       1.0889207
    74   6 C       77   1 H                                       1.0873788
    74   6 C       78   1 H                                       1.0872437
    73   6 C       79   1 H                                       1.0887453
    73   6 C       80   1 H                                       1.0882029
    73   6 C       81   1 H                                       1.0864115
    75   6 C       82   1 H                                       1.0887648
    75   6 C       83   1 H                                       1.0862062
    75   6 C       84   1 H                                       1.0880111
    70   6 C       85   1 H                                       1.0887586
    70   6 C       86   1 H                                       1.0863519
    70   6 C       87   1 H                                       1.0859215
    71   6 C       88   1 H                                       1.0890682
    71   6 C       89   1 H                                       1.0869168
    71   6 C       90   1 H                                       1.0857157
    69   6 C       91   1 H                                       1.0888097
    69   6 C       92   1 H                                       1.0873584
    69   6 C       93   1 H                                       1.0879940
    58   6 C       94   1 H                                       1.0891417
    58   6 C       95   1 H                                       1.0862514
    58   6 C       96   1 H                                       1.0881777
    57   6 C       97   1 H                                       1.0891130
    57   6 C       98   1 H                                       1.0870908
    57   6 C       99   1 H                                       1.0873203
    59   6 C      100   1 H                                       1.0892007
    59   6 C      101   1 H                                       1.0880600
    59   6 C      102   1 H                                       1.0853699
    63   6 C      103   1 H                                       1.0888174
    63   6 C      104   1 H                                       1.0883144
    63   6 C      105   1 H                                       1.0863889
    62   6 C      106   1 H                                       1.0889370
    62   6 C      107   1 H                                       1.0873899
    62   6 C      108   1 H                                       1.0872809
    61   6 C      109   1 H                                       1.0888016
    61   6 C      110   1 H                                       1.0862474
    61   6 C      111   1 H                                       1.0881042
    65   6 C      112   1 H                                       1.0892153
    65   6 C      113   1 H                                       1.0880388
    65   6 C      114   1 H                                       1.0853886
    66   6 C      115   1 H                                       1.0891829
    66   6 C      116   1 H                                       1.0863029
    66   6 C      117   1 H                                       1.0882307
    67   6 C      118   1 H                                       1.0891584
    67   6 C      119   1 H                                       1.0870786
    67   6 C      120   1 H                                       1.0873404
    53   6 C      121   1 H                                       1.0890569
    53   6 C      122   1 H                                       1.0868727
    53   6 C      123   1 H                                       1.0856480
    55   6 C      124   1 H                                       1.0888209
    55   6 C      125   1 H                                       1.0874268
    55   6 C      126   1 H                                       1.0879819
    54   6 C      127   1 H                                       1.0887655
    54   6 C      128   1 H                                       1.0863370
    54   6 C      129   1 H                                       1.0859502
     5   6 C      130   1 H                                       1.0785642
     1   6 C      131   1 H                                       1.0791354
    17   6 C      132   1 H                                       1.0804878
    15   6 C      133   1 H                                       1.0788440
    21   6 C      134   1 H                                       1.0782474 (min)
    19   6 C      135   1 H                                       1.0792291
Note: The following floating-point exceptions are signalling: IEEE_UNDERFLOW_FLAG
normal termination of xtb
    42   6 C      136   1 H                                       1.0791416
    44   6 C      137   1 H                                       1.0786621
    25   6 C      138   1 H                                       1.0791721
    29   6 C      139   1 H                                       1.0782595
    38   6 C      140   1 H                                       1.0804922
    40   6 C      141   1 H                                       1.0788256

 * 4 distinct bonds (by element types)

   Z      Z             #   av. dist./Å        max./Å        min./Å
   1 H    6 C          66     1.0861007     1.0892153     1.0782474
   6 C    6 C          56     1.4434758     1.5380282     1.3831761
   5 B    8 O           4     1.4676838     1.4972017     1.4378478
   6 C    8 O           8     1.2813027     1.3395416     1.2270431


optimized geometry written to: xtbopt.mol


           -------------------------------------------------
          | TOTAL ENERGY             -209.290064338733 Eh   |
          | GRADIENT NORM               0.000491831111 Eh/α |
          | HOMO-LUMO GAP               1.225505414502 eV   |
           -------------------------------------------------

------------------------------------------------------------------------
 * finished run on 2024/11/12 at 09:31:35.440     
------------------------------------------------------------------------
 total:
 * wall-time:     0 d,  0 h,  1 min,  2.351 sec
 *  cpu-time:     0 d,  0 h,  3 min, 43.776 sec
 * ratio c/w:     3.589 speedup
 SCF:
 * wall-time:     0 d,  0 h,  0 min,  1.166 sec
 *  cpu-time:     0 d,  0 h,  0 min,  4.190 sec
 * ratio c/w:     3.593 speedup
 ANC optimizer:
 * wall-time:     0 d,  0 h,  1 min,  1.152 sec
 *  cpu-time:     0 d,  0 h,  3 min, 39.536 sec
 * ratio c/w:     3.590 speedup

