282
 energy: -418.516804798535 gnorm: 0.139016776920 xtb: 6.7.1 (edcfbbe)
C           -2.96000000000000       -2.85970000000000        1.89760000000000
C           -3.49230000000000       -1.71580000000000        1.29120000000000
C           -4.12940000000000       -1.83630000000000        0.02000000000000
C           -4.45960000000000       -3.14500000000000       -0.41170000000000
C           -3.93240000000000       -4.24970000000000        0.24010000000000
C           -3.13980000000000       -4.12670000000000        1.37610000000000
C           -4.51440000000000       -0.68230000000000       -0.75310000000000
C           -5.62710000000000       -0.86200000000000       -1.65320000000000
C           -6.08580000000000       -2.15200000000000       -2.01210000000000
C           -5.41160000000000       -3.34520000000000       -1.50350000000000
C           -3.85190000000000        0.60800000000000       -0.71160000000000
C           -4.52660000000000        1.72140000000000       -1.28070000000000
C           -5.86390000000000        1.59490000000000       -1.86530000000000
C           -6.31970000000000        0.24760000000000       -2.18210000000000
C           -7.42760000000000        0.06430000000000       -2.99350000000000
C           -7.88140000000000       -1.20040000000000       -3.34160000000000
C           -7.18410000000000       -2.29230000000000       -2.84500000000000
C           -2.51460000000000        0.85150000000000       -0.21660000000000
C           -1.96140000000000        2.13470000000000       -0.36610000000000
C           -2.64690000000000        3.20480000000000       -0.90010000000000
C           -3.94010000000000        2.97410000000000       -1.33270000000000
O           -3.44130000000000       -0.49230000000000        1.92290000000000
O           -1.71350000000000       -0.04830000000000        0.47830000000000
B           -2.04560000000000       -0.01730000000000        1.93220000000000
C            0.47590000000000       -2.15410000000000        3.64650000000000
C            0.05980000000000       -1.13870000000000        2.76960000000000
C            0.97830000000000       -0.63450000000000        1.77900000000000
C            2.00610000000000       -1.56470000000000        1.42590000000000
C            2.33270000000000       -2.62200000000000        2.26560000000000
C            1.64550000000000       -2.86030000000000        3.44960000000000
C            1.03990000000000        0.72720000000000        1.26180000000000
C            2.00600000000000        0.96610000000000        0.21040000000000
C            2.70230000000000       -0.09100000000000       -0.43560000000000
C            0.46510000000000        1.90730000000000        1.91200000000000
C            1.17220000000000        3.14690000000000        1.80800000000000
C            2.14110000000000        3.38520000000000        0.74520000000000
C            2.39380000000000        2.27850000000000       -0.16540000000000
C            3.19310000000000        2.49060000000000       -1.27920000000000
C            3.70840000000000        1.44240000000000       -2.02690000000000
C            3.48990000000000        0.15720000000000       -1.55130000000000
C           -0.75530000000000        2.00010000000000        2.69080000000000
C           -0.88330000000000        3.03720000000000        3.63550000000000
C           -0.03580000000000        4.12500000000000        3.67100000000000
C            0.93960000000000        4.19110000000000        2.68980000000000
O           -1.92540000000000        1.31940000000000        2.48180000000000
O           -1.26210000000000       -0.84630000000000        2.84120000000000
C            2.77750000000000       -1.39950000000000        0.19820000000000
O            2.73720000000000        4.45050000000000        0.64210000000000
O            3.49880000000000       -2.28690000000000       -0.23850000000000
O           -5.67210000000000       -4.46140000000000       -1.93300000000000
O           -6.55140000000000        2.57810000000000       -2.11100000000000
C           -2.41910000000000       -5.32940000000000        2.00050000000000
C           -2.53590000000000       -5.28860000000000        3.53530000000000
C           -0.93860000000000       -5.26350000000000        1.59130000000000
C           -3.01440000000000       -6.66380000000000        1.51220000000000
C           -2.05910000000000        4.62140000000000       -0.96790000000000
C           -2.23750000000000        5.19520000000000       -2.38610000000000
C           -2.79020000000000        5.51070000000000        0.05300000000000
C           -0.55740000000000        4.62870000000000       -0.63610000000000
C           -9.11190000000000       -1.42150000000000       -4.23440000000000
C           -8.69850000000000       -2.21800000000000       -5.48570000000000
C           -9.73330000000000       -0.08710000000000       -4.69060000000000
C          -10.17550000000000       -2.20900000000000       -3.44700000000000
C            2.10400000000000       -3.90820000000000        4.47040000000000
C            1.34860000000000       -5.22390000000000        4.24090000000000
C            1.82440000000000       -3.39290000000000        5.89660000000000
C            3.61520000000000       -4.17320000000000        4.33900000000000
C           -0.16370000000000        5.19360000000000        4.76340000000000
C            0.46380000000000        4.63690000000000        6.05010000000000
C            0.56810000000000        6.49280000000000        4.37400000000000
C           -1.64500000000000        5.53640000000000        5.01150000000000
C            4.58290000000000        1.73250000000000       -3.25460000000000
C            5.89040000000000        2.40260000000000       -2.79710000000000
C            4.93000000000000        0.44130000000000       -4.02120000000000
C            3.82550000000000        2.67160000000000       -4.21280000000000
H            5.49750000000000        0.66690000000000       -4.92510000000000
H            4.02570000000000       -0.08990000000000       -4.32010000000000
H            5.53840000000000       -0.22820000000000       -3.41270000000000
H            6.54190000000000        2.61120000000000       -3.64680000000000
H            6.43300000000000        1.75710000000000       -2.10540000000000
H            5.69200000000000        3.34570000000000       -2.28740000000000
H            4.41130000000000        2.86900000000000       -5.11150000000000
H            3.60780000000000        3.63020000000000       -3.74220000000000
H            2.87820000000000        2.22620000000000       -4.51860000000000
H            0.41900000000000        7.26360000000000        5.13140000000000
H            0.19580000000000        6.88010000000000        3.42480000000000
H            1.64270000000000        6.33120000000000        4.28370000000000
H           -1.74030000000000        6.35250000000000        5.72850000000000
H           -2.19050000000000        4.68660000000000        5.41810000000000
H           -2.13220000000000        5.84180000000000        4.08490000000000
H            0.34700000000000        5.34100000000000        6.87350000000000
H            1.52840000000000        4.44330000000000        5.91350000000000
H           -0.00800000000000        3.69640000000000        6.33360000000000
H           -2.39700000000000        6.52780000000000        0.03920000000000
H           -2.66900000000000        5.11570000000000        1.06250000000000
H           -3.85810000000000        5.55870000000000       -0.16160000000000
H           -1.78480000000000        6.18430000000000       -2.46610000000000
H           -3.29020000000000        5.29330000000000       -2.64990000000000
H           -1.76410000000000        4.54750000000000       -3.12460000000000
H           -0.13440000000000        5.62670000000000       -0.75320000000000
H           -0.00400000000000        3.95320000000000       -1.28880000000000
H           -0.39220000000000        4.32740000000000        0.39620000000000
H          -11.07040000000000       -2.36940000000000       -4.04990000000000
H          -10.46790000000000       -1.66740000000000       -2.54660000000000
H           -9.79980000000000       -3.18580000000000       -3.14200000000000
H          -10.60360000000000       -0.26110000000000       -5.32500000000000
H           -9.01860000000000        0.50230000000000       -5.26590000000000
H          -10.06220000000000        0.50550000000000       -3.83620000000000
H           -9.55020000000000       -2.37420000000000       -6.14930000000000
H           -8.30070000000000       -3.19700000000000       -5.21890000000000
H           -7.92850000000000       -1.68490000000000       -6.04430000000000
H            1.65910000000000       -5.98460000000000        4.95850000000000
H            1.54420000000000       -5.60860000000000        3.23990000000000
H            0.27410000000000       -5.07720000000000        4.34490000000000
H            2.25540000000000       -4.05970000000000        6.64220000000000
H            0.75630000000000       -3.32140000000000        6.09840000000000
H            2.25750000000000       -2.40300000000000        6.04040000000000
H            3.96280000000000       -4.83760000000000        5.12960000000000
H            4.17890000000000       -3.24360000000000        4.40980000000000
H            3.85640000000000       -4.64790000000000        3.38810000000000
H           -2.08230000000000       -6.17130000000000        3.98810000000000
H           -3.58130000000000       -5.24980000000000        3.84170000000000
H           -2.03690000000000       -4.41370000000000        3.94870000000000
H           -2.53480000000000       -7.50760000000000        2.01030000000000
H           -2.86840000000000       -6.79370000000000        0.43970000000000
H           -4.08290000000000       -6.71470000000000        1.72460000000000
H           -0.38410000000000       -6.11180000000000        1.99220000000000
H           -0.47530000000000       -4.34550000000000        1.95330000000000
H           -0.83810000000000       -5.27680000000000        0.50580000000000
H           -4.16480000000000       -5.21910000000000       -0.16040000000000
H           -2.40750000000000       -2.71590000000000        2.80650000000000
H           -7.50120000000000       -3.28870000000000       -3.09440000000000
H           -7.92790000000000        0.94280000000000       -3.35670000000000
H           -4.51780000000000        3.78100000000000       -1.74570000000000
H           -0.96750000000000        2.27140000000000        0.01100000000000
H           -1.72770000000000        2.99320000000000        4.29760000000000
H            1.54630000000000        5.07210000000000        2.58750000000000
H           -0.19830000000000       -2.43180000000000        4.43580000000000
H            3.16490000000000       -3.24150000000000        1.98630000000000
H            3.45240000000000        3.50410000000000       -1.52790000000000
H            3.97960000000000       -0.68270000000000       -2.00940000000000
C           -0.90370000000000       -3.07430000000000        9.24310000000000
C           -1.05070000000000       -1.69470000000000        9.03130000000000
C           -1.62660000000000       -1.22870000000000        7.79760000000000
C           -2.10720000000000       -2.23210000000000        6.91620000000000
C           -1.90700000000000       -3.57790000000000        7.17370000000000
C           -1.30810000000000       -4.02890000000000        8.33630000000000
C           -1.83100000000000        0.16400000000000        7.46220000000000
C           -2.80580000000000        0.47380000000000        6.44220000000000
C           -3.29770000000000       -0.51220000000000        5.56120000000000
C           -2.91870000000000       -1.90380000000000        5.74740000000000
C           -1.14970000000000        1.28390000000000        8.07790000000000
C           -1.74230000000000        2.57330000000000        8.02730000000000
C           -2.91310000000000        2.83580000000000        7.19900000000000
C           -3.30960000000000        1.78280000000000        6.27730000000000
C           -4.19330000000000        2.08100000000000        5.25560000000000
C           -4.63640000000000        1.12140000000000        4.36070000000000
C           -4.17030000000000       -0.17380000000000        4.53930000000000
C            0.15110000000000        1.20560000000000        8.67990000000000
C            0.66130000000000        2.33780000000000        9.33070000000000
C            0.00540000000000        3.54830000000000        9.38300000000000
C           -1.19410000000000        3.64960000000000        8.70140000000000
O           -0.59910000000000       -0.87630000000000       10.05220000000000
O            0.93510000000000        0.06760000000000        8.63590000000000
B            0.87150000000000       -0.70450000000000        9.89550000000000
C            3.03020000000000       -3.73660000000000        9.52420000000000
C            2.73020000000000       -2.37590000000000        9.34710000000000
C            3.58990000000000       -1.55670000000000        8.53510000000000
C            4.43590000000000       -2.29650000000000        7.65290000000000
C            4.67210000000000       -3.64950000000000        7.83750000000000
C            4.01760000000000       -4.38490000000000        8.81080000000000
C            3.67190000000000       -0.09880000000000        8.52970000000000
C            4.21770000000000        0.50690000000000        7.33690000000000
C            4.67890000000000       -0.27440000000000        6.24840000000000
C            3.48790000000000        0.78290000000000        9.67840000000000
C            4.12670000000000        2.06590000000000        9.65450000000000
C            4.39000000000000        2.74400000000000        8.38630000000000
C            4.35320000000000        1.91200000000000        7.19380000000000
C            4.59820000000000        2.46840000000000        5.94700000000000
C            4.81170000000000        1.67900000000000        4.82360000000000
C            4.93590000000000        0.31090000000000        5.02010000000000
C            2.75560000000000        0.53290000000000       10.90960000000000
C            3.19700000000000        1.16320000000000       12.09020000000000
C            4.09560000000000        2.21450000000000       12.07730000000000
C            4.45180000000000        2.72100000000000       10.83410000000000
O            1.51460000000000       -0.02990000000000       11.00830000000000
O            1.52600000000000       -2.00580000000000        9.85410000000000
C            5.01210000000000       -1.67350000000000        6.46870000000000
O            4.64460000000000        3.93850000000000        8.33770000000000
O            5.73260000000000       -2.29200000000000        5.69950000000000
O           -3.32990000000000       -2.78060000000000        5.00280000000000
O           -3.50620000000000        3.90400000000000        7.24340000000000
C           -1.08410000000000       -5.52980000000000        8.56870000000000
C           -0.76070000000000       -5.82790000000000       10.04510000000000
C            0.09260000000000       -5.99170000000000        7.69800000000000
C           -2.34950000000000       -6.32130000000000        8.18630000000000
C            0.61140000000000        4.72130000000000       10.16360000000000
C           -0.28810000000000        5.97020000000000       10.10310000000000
C            0.76690000000000        4.30300000000000       11.63490000000000
C            1.98670000000000        5.08410000000000        9.57690000000000
C           -5.53150000000000        1.53420000000000        3.18000000000000
C           -6.18570000000000        0.31480000000000        2.50010000000000
C           -4.66330000000000        2.27440000000000        2.14890000000000
C           -6.65930000000000        2.46410000000000        3.66530000000000
C            4.34390000000000       -5.87270000000000        8.99800000000000
C            4.09450000000000       -6.62710000000000        7.67950000000000
C            3.47580000000000       -6.51080000000000       10.09840000000000
C            5.82290000000000       -6.01280000000000        9.39900000000000
C            4.54640000000000        2.87920000000000       13.38490000000000
C            4.81620000000000        1.80390000000000       14.45560000000000
C            5.84730000000000        3.67900000000000       13.17660000000000
C            3.44750000000000        3.83090000000000       13.88000000000000
C            4.99840000000000        2.28850000000000        3.42850000000000
C            6.49590000000000        2.49720000000000        3.16180000000000
C            4.41180000000000        1.34780000000000        2.35690000000000
C            4.26270000000000        3.63980000000000        3.32550000000000
H            4.45480000000000        1.80980000000000        1.37150000000000
H            3.36960000000000        1.12030000000000        2.57680000000000
H            4.95620000000000        0.40730000000000        2.29550000000000
H            6.65860000000000        2.93040000000000        2.17550000000000
H            7.03250000000000        1.55030000000000        3.20910000000000
H            6.93080000000000        3.16620000000000        3.90350000000000
H            4.25310000000000        4.00660000000000        2.29900000000000
H            4.73430000000000        4.40250000000000        3.94280000000000
H            3.22820000000000        3.53300000000000        3.64740000000000
H            6.21960000000000        4.06690000000000       14.12460000000000
H            5.68920000000000        4.53140000000000       12.51760000000000
H            6.62390000000000        3.04960000000000       12.74320000000000
H            3.73100000000000        4.29830000000000       14.82260000000000
H            2.51090000000000        3.29710000000000       14.03720000000000
H            3.27030000000000        4.62240000000000       13.15310000000000
H            5.20540000000000        2.25360000000000       15.36880000000000
H            5.54800000000000        1.08020000000000       14.09820000000000
H            3.90790000000000        1.26440000000000       14.71880000000000
H            1.16260000000000        5.12270000000000       12.23320000000000
H            1.44200000000000        3.45430000000000       11.73090000000000
H           -0.19500000000000        4.01160000000000       12.05510000000000
H            0.14720000000000        6.78780000000000       10.67700000000000
H           -1.27390000000000        5.76280000000000       10.51780000000000
H           -0.41060000000000        6.31700000000000        9.07780000000000
H            2.44100000000000        5.90830000000000       10.12520000000000
H            1.90250000000000        5.38080000000000        8.53330000000000
H            2.67160000000000        4.24130000000000        9.62030000000000
H           -7.33350000000000        2.71280000000000        2.84630000000000
H           -6.26710000000000        3.39980000000000        4.05940000000000
H           -7.24340000000000        1.98420000000000        4.44960000000000
H           -5.24580000000000        2.57000000000000        1.27730000000000
H           -3.85190000000000        1.62890000000000        1.81520000000000
H           -4.21230000000000        3.16680000000000        2.58010000000000
H           -6.86290000000000        0.63060000000000        1.70720000000000
H           -6.75510000000000       -0.27510000000000        3.21680000000000
H           -5.43800000000000       -0.32780000000000        2.04150000000000
H            4.27830000000000       -7.69420000000000        7.80070000000000
H            4.74920000000000       -6.26700000000000        6.88810000000000
H            3.06570000000000       -6.49860000000000        7.34730000000000
H            3.74010000000000       -7.55840000000000       10.24040000000000
H            2.41940000000000       -6.47200000000000        9.83670000000000
H            3.61520000000000       -6.00210000000000       11.05170000000000
H            6.08980000000000       -7.05850000000000        9.54950000000000
H            6.02270000000000       -5.47550000000000       10.32560000000000
H            6.47890000000000       -5.60750000000000        8.62980000000000
H           -0.66070000000000       -6.90030000000000       10.21070000000000
H           -1.55200000000000       -5.46080000000000       10.69800000000000
H            0.17680000000000       -5.36390000000000       10.34660000000000
H           -2.22850000000000       -7.37990000000000        8.41440000000000
H           -2.56660000000000       -6.24070000000000        7.12250000000000
H           -3.21470000000000       -5.95410000000000        8.73710000000000
H            0.29390000000000       -7.05340000000000        7.83710000000000
H            0.99340000000000       -5.43740000000000        7.95430000000000
H           -0.11910000000000       -5.82240000000000        6.64380000000000
H           -2.26260000000000       -4.28190000000000        6.44430000000000
H           -0.42140000000000       -3.36460000000000       10.15660000000000
H           -4.43590000000000       -0.95100000000000        3.84530000000000
H           -4.51260000000000        3.10220000000000        5.15640000000000
H           -1.71450000000000        4.58770000000000        8.64330000000000
H            1.61880000000000        2.24870000000000        9.79960000000000
H            2.70630000000000        0.89170000000000       13.00650000000000
H            4.99310000000000        3.64580000000000       10.75820000000000
H            2.40160000000000       -4.28740000000000       10.19700000000000
H            5.36720000000000       -4.13240000000000        7.17480000000000
H            4.65030000000000        3.53950000000000        5.87890000000000
H            5.25410000000000       -0.33060000000000        4.21860000000000
282
 energy: -418.543020226836 gnorm: 0.058808489852 xtb: 6.7.1 (edcfbbe)
C           -2.95692707387602       -2.86546924281434        1.89634982338587
C           -3.47153554438786       -1.72463407479982        1.28558503348577
C           -4.13136386174078       -1.82883867741302        0.03174471053661
C           -4.46112288560965       -3.13712957888512       -0.40543786935320
C           -3.93418023925874       -4.25002528704622        0.23810639916711
C           -3.13133037725070       -4.13408678490530        1.36747435658604
C           -4.50728080545455       -0.68161337357711       -0.74297493044471
C           -5.61277052149865       -0.86025812488966       -1.64288002649450
C           -6.08140542224468       -2.14633791673863       -2.00146077160701
C           -5.40344181873092       -3.34829004807354       -1.50600069614867
C           -3.84048274584442        0.59781940499817       -0.71005390699377
C           -4.51456757008275        1.71163652786392       -1.28566008016836
C           -5.86080794078834        1.59733258893829       -1.86029824810605
C           -6.30791206859787        0.24352843214761       -2.17913049692294
C           -7.42189770886817        0.06390853049236       -2.99160175719086
C           -7.88297096835999       -1.19826322044956       -3.34153738807363
C           -7.18138073036560       -2.28883435596830       -2.83898435197468
C           -2.51431746649762        0.85782790352116       -0.21883016699438
C           -1.96112873530360        2.13328755735609       -0.37095451682140
C           -2.64630606651719        3.21126141646269       -0.90131771285265
C           -3.93963940570041        2.97359587854764       -1.33725300090900
O           -3.38990649520753       -0.51856259692505        1.91146349957045
O           -1.70647397078031       -0.03123822364219        0.44266454830832
B           -2.00599686459539       -0.01350132390337        1.91406969946704
C            0.47399262262383       -2.15997901516735        3.62959516120762
C            0.06594938059923       -1.15377122759332        2.74500105616537
C            0.98230542594893       -0.62394323065580        1.78065321439114
C            2.01355404151826       -1.54885205647831        1.43826340369719
C            2.33711900406820       -2.61774361848701        2.26585926094315
C            1.65263283308536       -2.86235396697730        3.45152117508160
C            1.03818982564647        0.72423139911736        1.26785204233917
C            2.00439127529403        0.96518881294866        0.22584612785335
C            2.69670391505172       -0.08406157397929       -0.42813829037751
C            0.45314124744420        1.89472018923568        1.90682459033677
C            1.16967445684021        3.12889382753728        1.81503896889908
C            2.13279452333604        3.38155579808031        0.74404904587015
C            2.38468531888365        2.27149008261323       -0.16619132239349
C            3.19027069824925        2.48717439845364       -1.27864891280419
C            3.70868520099484        1.44184821741087       -2.03167309158696
C            3.48678962699680        0.16029419449147       -1.54654448626175
C           -0.75653932974975        2.00167995017794        2.68178145002235
C           -0.88486797939297        3.03397125782211        3.62516593064243
C           -0.02947215846382        4.12159345682416        3.67821616682361
C            0.93962975594960        4.18543467441075        2.68925836585516
O           -1.90241373893517        1.32076190477311        2.48432028962134
O           -1.22847788071495       -0.85690454390290        2.81170824685333
C            2.77527391188994       -1.39891281367828        0.20055520919828
O            2.72172571150961        4.45626588246345        0.62637651078551
O            3.49316836122841       -2.29323657220574       -0.24317982834653
O           -5.67111253908970       -4.46816277446972       -1.94015374839710
O           -6.54891722366478        2.58444540261784       -2.11801062851853
C           -2.42514745778833       -5.33310643304997        1.99816681870835
C           -2.53673204805169       -5.29268028930629        3.52852088862672
C           -0.94687365730032       -5.26041307175600        1.58626224144510
C           -3.01489689948038       -6.66392556646577        1.51037847498245
C           -2.05725101979878        4.61987714876898       -0.97123283971344
C           -2.24027621546729        5.19294914996710       -2.38551597240585
C           -2.79120174709422        5.50427258638985        0.04885232738462
C           -0.56195316990479        4.63012171951303       -0.63845831167757
C           -9.10848414288737       -1.41748835686941       -4.23267421224880
C           -8.69647959489734       -2.21539491443249       -5.48055870001352
C           -9.73129909146664       -0.09025265362547       -4.68966786613182
C          -10.16920110321020       -2.20633780698548       -3.44739405271355
C            2.10783091804748       -3.90465935705482        4.46921594007491
C            1.35121909197323       -5.21881470632744        4.23869658743415
C            1.82212479259798       -3.39078467304753        5.88918254471159
C            3.61168498298105       -4.17499161948629        4.33401952583074
C           -0.16412916327786        5.19458605483150        4.75661835309747
C            0.46375268653782        4.63450003747819        6.03977601507804
C            0.56747975105087        6.48981822586728        4.37167746710128
C           -1.64055041736941        5.53708538250454        5.00734497332877
C            4.57943918920547        1.72899806072868       -3.25543719285390
C            5.88392064183032        2.40026554863235       -2.79611958084258
C            4.92910915356302        0.44404209520757       -4.01995993299201
C            3.82515525811739        2.66922679536026       -4.20949817529473
H            5.49483753930675        0.68123502755383       -4.92087468938580
H            4.02540355582154       -0.08507852796952       -4.31742308971509
H            5.53901644779793       -0.22140123013313       -3.41215393730738
H            6.53144751910160        2.60655064626486       -3.64860845974594
H            6.42356574345170        1.75293892366394       -2.10631574115289
H            5.68397125830323        3.34109798897808       -2.28698900368293
H            4.41622381467685        2.86252409110228       -5.10469932986977
H            3.60935488012910        3.62523758845412       -3.73766573707512
H            2.88028529494103        2.22165288163614       -4.51366431919799
H            0.40954232784967        7.25112771960690        5.13522231248330
H            0.19455174977884        6.87701424152085        3.42465766663258
H            1.64048145258725        6.32878900296541        4.28763535339572
H           -1.72676442469780        6.35325104944313        5.72328172621671
H           -2.18506109237979        4.69411152310494        5.41981627954864
H           -2.12600162918986        5.84108158588921        4.08096786902706
H            0.34161530016052        5.33974080990635        6.85952180767305
H            1.52795191817508        4.44507475352539        5.90478985456826
H           -0.00775256796129        3.69747804938311        6.32550266645168
H           -2.39275747787857        6.51871268845538        0.03148497889773
H           -2.66506282652459        5.10540328610886        1.05424449902552
H           -3.85735118407429        5.55110264099905       -0.16573178163312
H           -1.78392958855636        6.18000408303678       -2.45610511279720
H           -3.29124571091303        5.29130878520122       -2.64761521281429
H           -1.76463666851512        4.54435989414928       -3.11960020740700
H           -0.14732472919603        5.62979361791144       -0.75934395169364