282
 energy: -418.521682032815 gnorm: 0.139290599135 xtb: 6.7.1 (edcfbbe)
C           -3.35530000000000       -2.61160000000000        0.98280000000000
C           -3.79640000000000       -1.41770000000000        0.39900000000000
C           -4.46730000000000       -1.46730000000000       -0.86050000000000
C           -4.92180000000000       -2.73750000000000       -1.29590000000000
C           -4.48040000000000       -3.89160000000000       -0.66680000000000
C           -3.65210000000000       -3.85120000000000        0.44930000000000
C           -4.75710000000000       -0.27830000000000       -1.62320000000000
C           -5.89020000000000       -0.35140000000000       -2.51310000000000
C           -6.47190000000000       -1.59150000000000       -2.86940000000000
C           -5.90770000000000       -2.84390000000000       -2.37050000000000
C           -3.97370000000000        0.94280000000000       -1.59270000000000
C           -4.53900000000000        2.11410000000000       -2.16680000000000
C           -5.88650000000000        2.11580000000000       -2.74110000000000
C           -6.47560000000000        0.81810000000000       -3.04270000000000
C           -7.59970000000000        0.74130000000000       -3.84900000000000
C           -8.17480000000000       -0.47410000000000       -4.19240000000000
C           -7.58220000000000       -1.62700000000000       -3.69780000000000
C           -2.61400000000000        1.05570000000000       -1.11340000000000
C           -1.94300000000000        2.27770000000000       -1.27780000000000
C           -2.51860000000000        3.40510000000000       -1.81970000000000
C           -3.83150000000000        3.30220000000000       -2.24300000000000
O           -3.62250000000000       -0.21150000000000        1.04290000000000
O           -1.88820000000000        0.08580000000000       -0.43070000000000
B           -2.18840000000000        0.13480000000000        1.02870000000000
C            0.13220000000000       -2.17810000000000        2.81220000000000
C           -0.17440000000000       -1.16430000000000        1.88910000000000
C            0.80640000000000       -0.76980000000000        0.90930000000000
C            1.77630000000000       -1.78440000000000        0.63440000000000
C            1.99570000000000       -2.82960000000000        1.52140000000000
C            1.24530000000000       -2.98180000000000        2.67940000000000
C            0.96110000000000        0.54910000000000        0.30550000000000
C            1.93200000000000        0.65110000000000       -0.76560000000000
C            2.58400000000000       -0.48780000000000       -1.31090000000000
C            0.47430000000000        1.80530000000000        0.88080000000000
C            1.23440000000000        2.99490000000000        0.64240000000000
C            2.15330000000000        3.10740000000000       -0.48170000000000
C            2.37240000000000        1.90390000000000       -1.26580000000000
C            3.19700000000000        1.97910000000000       -2.37890000000000
C            3.69110000000000        0.84820000000000       -3.00960000000000
C            3.40250000000000       -0.37630000000000       -2.42620000000000
C           -0.69250000000000        2.03030000000000        1.71930000000000
C           -0.68660000000000        3.12080000000000        2.61400000000000
C            0.24730000000000        4.13660000000000        2.54070000000000
C            1.13220000000000        4.09620000000000        1.47670000000000
O           -1.92610000000000        1.44710000000000        1.59310000000000
O           -1.47320000000000       -0.77580000000000        1.91100000000000
C            2.58820000000000       -1.74250000000000       -0.57520000000000
O            2.74710000000000        4.15050000000000       -0.72710000000000
O            3.28160000000000       -2.68980000000000       -0.92260000000000
O           -6.28050000000000       -3.92950000000000       -2.79570000000000
O           -6.47410000000000        3.16020000000000       -2.99370000000000
C           -3.02100000000000       -5.11590000000000        1.04710000000000
C           -1.51790000000000       -5.10140000000000        0.72100000000000
C           -3.64390000000000       -6.39630000000000        0.45930000000000
C           -3.22210000000000       -5.14120000000000        2.57280000000000
C           -1.73260000000000        4.72210000000000       -1.87350000000000
C           -2.47450000000000        5.79710000000000       -2.69010000000000
C           -1.54140000000000        5.23850000000000       -0.43870000000000
C           -0.35890000000000        4.48340000000000       -2.52830000000000
C           -9.42160000000000       -0.57650000000000       -5.08420000000000
C           -9.07900000000000       -1.38550000000000       -6.34860000000000
C           -9.92920000000000        0.81260000000000       -5.51770000000000
C          -10.54710000000000       -1.28310000000000       -4.30590000000000
C            1.56240000000000       -4.04420000000000        3.73690000000000
C            0.58710000000000       -5.22080000000000        3.59490000000000
C            1.42500000000000       -3.41980000000000        5.13920000000000
C            2.99870000000000       -4.57340000000000        3.57460000000000
C            0.26180000000000        5.33740000000000        3.49280000000000
C            1.70380000000000        5.58980000000000        3.97730000000000
C           -0.26470000000000        6.58030000000000        2.75700000000000
C           -0.61540000000000        5.07680000000000        4.72610000000000
C            4.62830000000000        0.98970000000000       -4.21690000000000
C            5.94070000000000        1.65170000000000       -3.76020000000000
C            4.95750000000000       -0.37940000000000       -4.84330000000000
C            3.95300000000000        1.86190000000000       -5.29210000000000
H            5.57560000000000       -0.26010000000000       -5.73420000000000
H            4.04730000000000       -0.90310000000000       -5.13730000000000
H            5.50910000000000       -1.01050000000000       -4.14600000000000
H            6.63690000000000        1.75780000000000       -4.59330000000000
H            6.42610000000000        1.05350000000000       -2.98800000000000
H            5.75830000000000        2.64420000000000       -3.34750000000000
H            4.58710000000000        1.95530000000000       -6.17480000000000
H            3.75140000000000        2.86670000000000       -4.92130000000000
H            3.00440000000000        1.42310000000000       -5.60300000000000
H           -0.26430000000000        7.45220000000000        3.41230000000000
H           -1.28580000000000        6.41910000000000        2.41000000000000
H            0.35230000000000        6.81260000000000        1.88860000000000
H           -0.53450000000000        5.89560000000000        5.44180000000000
H           -0.30220000000000        4.16000000000000        5.22470000000000
H           -1.66700000000000        4.98120000000000        4.45640000000000
H            1.73590000000000        6.40880000000000        4.69690000000000
H            2.36390000000000        5.85290000000000        3.15100000000000
H            2.10920000000000        4.69910000000000        4.45910000000000
H           -0.95570000000000        6.15800000000000       -0.42660000000000
H           -1.02350000000000        4.50040000000000        0.17060000000000
H           -2.50380000000000        5.44060000000000        0.03250000000000
H           -1.88280000000000        6.71130000000000       -2.75420000000000
H           -3.42720000000000        6.05670000000000       -2.22760000000000
H           -2.66590000000000        5.45260000000000       -3.70680000000000
H            0.20740000000000        5.41230000000000       -2.59750000000000
H           -0.47500000000000        4.08080000000000       -3.53480000000000
H            0.24080000000000        3.77980000000000       -1.95420000000000
H          -11.45440000000000       -1.35410000000000       -4.90750000000000
H          -10.78850000000000       -0.73450000000000       -3.39480000000000
H          -10.25700000000000       -2.29420000000000       -4.02030000000000
H          -10.81650000000000        0.72300000000000       -6.14610000000000
H           -9.17140000000000        1.34590000000000       -6.09260000000000
H          -10.19820000000000        1.41970000000000       -4.65260000000000
H           -9.94320000000000       -1.46310000000000       -7.00990000000000
H           -8.75990000000000       -2.39700000000000       -6.09720000000000
H           -8.27080000000000       -0.90830000000000       -6.90380000000000
H            0.79950000000000       -5.99570000000000        4.33210000000000
H            0.67300000000000       -5.67090000000000        2.60630000000000
H           -0.44290000000000       -4.89180000000000        3.73040000000000
H            1.74860000000000       -4.11580000000000        5.91250000000000
H            0.39460000000000       -3.14210000000000        5.35620000000000
H            2.03280000000000       -2.51880000000000        5.21930000000000
H            3.25250000000000       -5.25570000000000        4.38500000000000
H            3.71800000000000       -3.75550000000000        3.58530000000000
H            3.11690000000000       -5.12130000000000        2.63990000000000
H           -1.02720000000000       -5.99750000000000        1.10030000000000
H           -1.03110000000000       -4.23030000000000        1.15950000000000
H           -1.35840000000000       -5.05980000000000       -0.35670000000000
H           -2.81640000000000       -6.05560000000000        3.00750000000000
H           -4.28140000000000       -5.08680000000000        2.82400000000000
H           -2.72450000000000       -4.29980000000000        3.05150000000000
H           -3.21090000000000       -7.28500000000000        0.92070000000000
H           -3.46440000000000       -6.46530000000000       -0.61390000000000
H           -4.72020000000000       -6.42260000000000        0.63290000000000
H           -4.80740000000000       -4.83220000000000       -1.07000000000000
H           -2.77230000000000       -2.53110000000000        1.88070000000000
H           -7.99150000000000       -2.58890000000000       -3.94810000000000
H           -8.01230000000000        1.66330000000000       -4.21460000000000
H           -4.33040000000000        4.14990000000000       -2.67540000000000
H           -0.93870000000000        2.32810000000000       -0.90740000000000
H           -1.50810000000000        3.19160000000000        3.30230000000000
H            1.76990000000000        4.93890000000000        1.27840000000000
H           -0.58840000000000       -2.37820000000000        3.58400000000000
H            2.78980000000000       -3.51650000000000        1.29330000000000
H            3.50030000000000        2.95430000000000       -2.71560000000000
H            3.86230000000000       -1.27500000000000       -2.79480000000000
C           -0.97870000000000       -2.97730000000000        8.41270000000000
C           -1.00180000000000       -1.59970000000000        8.15020000000000
C           -1.59880000000000       -1.12490000000000        6.93090000000000
C           -2.20000000000000       -2.10650000000000        6.10120000000000
C           -2.12070000000000       -3.45510000000000        6.40680000000000
C           -1.51680000000000       -3.91850000000000        7.56270000000000
C           -1.72010000000000        0.27120000000000        6.57600000000000
C           -2.72060000000000        0.63150000000000        5.59830000000000
C           -3.30480000000000       -0.32810000000000        4.74510000000000
C           -3.00920000000000       -1.73970000000000        4.94060000000000
C           -0.93270000000000        1.35120000000000        7.13480000000000
C           -1.44810000000000        2.67330000000000        7.10330000000000
C           -2.65890000000000        2.99410000000000        6.35430000000000
C           -3.15370000000000        1.96700000000000        5.44990000000000
C           -4.05700000000000        2.31460000000000        4.46220000000000
C           -4.58830000000000        1.38070000000000        3.58820000000000
C           -4.19070000000000        0.06000000000000        3.75150000000000
C            0.40490000000000        1.19930000000000        7.63270000000000
C            1.05280000000000        2.31750000000000        8.17590000000000
C            0.48600000000000        3.57180000000000        8.24170000000000
C           -0.77250000000000        3.72820000000000        7.69020000000000
O           -0.41940000000000       -0.78980000000000        9.10960000000000
O            1.09820000000000        0.00380000000000        7.57820000000000
B            1.04650000000000       -0.73580000000000        8.85750000000000
C            2.98180000000000       -3.91040000000000        8.50180000000000
C            2.75830000000000       -2.54100000000000        8.28120000000000
C            3.63420000000000       -1.80950000000000        7.40270000000000
C            4.37640000000000       -2.63780000000000        6.50490000000000
C            4.53020000000000       -3.99690000000000        6.72940000000000
C            3.88670000000000       -4.64900000000000        7.76730000000000
C            3.82370000000000       -0.36250000000000        7.34290000000000
C            4.35970000000000        0.16180000000000        6.10750000000000
C            4.69790000000000       -0.68360000000000        5.02110000000000
C            3.75480000000000        0.56510000000000        8.46760000000000
C            4.47330000000000        1.80090000000000        8.37560000000000
C            4.75600000000000        2.40720000000000        7.07680000000000
C            4.60820000000000        1.54480000000000        5.91600000000000
C            4.85170000000000        2.04450000000000        4.64570000000000
C            4.94350000000000        1.21380000000000        3.53640000000000
C            4.94560000000000       -0.15510000000000        3.76480000000000
C            3.06930000000000        0.39580000000000        9.73810000000000
C            3.60000000000000        1.03410000000000       10.87840000000000
C            4.52160000000000        2.05980000000000       10.79060000000000
C            4.86780000000000        2.48720000000000        9.51540000000000
O            1.80630000000000       -0.09380000000000        9.91510000000000
O            1.59360000000000       -2.08350000000000        8.81010000000000
C            4.92220000000000       -2.09990000000000        5.26600000000000
O            5.11210000000000        3.57240000000000        6.97720000000000
O            5.53410000000000       -2.80050000000000        4.47340000000000
O           -3.48440000000000       -2.59600000000000        4.21070000000000
O           -3.19950000000000        4.08740000000000        6.43960000000000
C           -1.49100000000000       -5.42190000000000        7.87160000000000
C           -0.87400000000000       -5.70580000000000        9.25360000000000
C           -0.65400000000000       -6.14310000000000        6.80440000000000
C           -2.92870000000000       -5.97190000000000        7.85930000000000
C            1.27880000000000        4.75190000000000        8.81720000000000
C            0.41340000000000        6.02220000000000        8.91900000000000
C            1.77690000000000        4.39350000000000       10.22640000000000
C            2.47640000000000        5.04800000000000        7.89910000000000
C           -5.51580000000000        1.84420000000000        2.45170000000000
C           -6.27890000000000        0.66420000000000        1.81770000000000
C           -4.66040000000000        2.53020000000000        1.37190000000000
C           -6.55990000000000        2.84120000000000        2.98940000000000
C            4.12340000000000       -6.14740000000000        7.99920000000000
C            3.72690000000000       -6.93350000000000        6.73710000000000
C            3.29370000000000       -6.67700000000000        9.18340000000000
C            5.61410000000000       -6.37720000000000        8.30430000000000
C            5.07720000000000        2.71410000000000       12.06420000000000
C            5.94460000000000        1.68320000000000       12.80640000000000
C            5.94330000000000        3.94410000000000       11.73420000000000
C            3.92590000000000        3.16800000000000       12.98090000000000
C            5.12710000000000        1.79250000000000        2.12750000000000
C            6.61180000000000        2.10720000000000        1.89570000000000
C            4.64460000000000        0.79010000000000        1.05980000000000
C            4.29490000000000        3.08150000000000        1.97810000000000
H            4.66090000000000        1.24050000000000        0.06810000000000
H            3.62300000000000        0.47310000000000        1.26550000000000
H            5.27460000000000       -0.09690000000000        1.02120000000000
H            6.77020000000000        2.52360000000000        0.90140000000000
H            7.21590000000000        1.20530000000000        1.98640000000000
H            6.97380000000000        2.82840000000000        2.62750000000000
H            4.29840000000000        3.43820000000000        0.94810000000000
H            4.67860000000000        3.88510000000000        2.60370000000000
H            3.26090000000000        2.89630000000000        2.26410000000000
H            6.32820000000000        4.40230000000000       12.64490000000000
H            5.36340000000000        4.69880000000000       11.20370000000000
H            6.79830000000000        3.66820000000000       11.11800000000000
H            4.31310000000000        3.64630000000000       13.88030000000000
H            3.30870000000000        2.32830000000000       13.29520000000000
H            3.28470000000000        3.88620000000000       12.47340000000000
H            6.36650000000000        2.10900000000000       13.71650000000000
H            6.76800000000000        1.34840000000000       12.17620000000000
H            5.35860000000000        0.80780000000000       13.08400000000000
H            2.33100000000000        5.22280000000000       10.66500000000000
H            2.43500000000000        3.52810000000000       10.20130000000000
H            0.94000000000000        4.15750000000000       10.88250000000000
H            0.97420000000000        6.83590000000000        9.37820000000000
H           -0.47230000000000        5.84340000000000        9.52760000000000
H            0.09430000000000        6.36080000000000        7.93420000000000
H            3.06130000000000        5.88670000000000        8.27420000000000
H            2.13830000000000        5.29270000000000        6.89390000000000
H            3.13910000000000        4.18890000000000        7.82290000000000
H           -7.26230000000000        3.12440000000000        2.20630000000000
H           -6.09370000000000        3.75480000000000        3.35360000000000
H           -7.12710000000000        2.40040000000000        3.80840000000000
H           -5.26700000000000        2.84560000000000        0.52400000000000
H           -3.89690000000000        1.84410000000000        1.00760000000000
H           -4.14660000000000        3.40330000000000        1.77150000000000
H           -6.97840000000000        1.01690000000000        1.06060000000000
H           -6.84260000000000        0.11330000000000        2.56930000000000
H           -5.59840000000000       -0.02530000000000        1.32450000000000
H            3.83840000000000       -8.00580000000000        6.89480000000000
H            4.35030000000000       -6.65780000000000        5.88840000000000
H            2.68900000000000       -6.73800000000000        6.47080000000000
H            3.50290000000000       -7.73170000000000        9.36090000000000
H            2.22680000000000       -6.58370000000000        8.98580000000000
H            3.52650000000000       -6.13450000000000       10.09910000000000
H            5.81830000000000       -7.43240000000000        8.48380000000000
H            5.91580000000000       -5.81840000000000        9.18960000000000
H            6.24020000000000       -6.05220000000000        7.47450000000000
H           -0.86570000000000       -6.77530000000000        9.46220000000000
H           -1.44340000000000       -5.21780000000000       10.04390000000000
H            0.15460000000000       -5.35300000000000        9.30210000000000
H           -2.94200000000000       -7.03280000000000        8.10710000000000
H           -3.39010000000000       -5.85460000000000        6.87990000000000
H           -3.54730000000000       -5.44690000000000        8.58640000000000
H           -0.60220000000000       -7.21310000000000        7.00290000000000
H            0.36220000000000       -5.75310000000000        6.78920000000000
H           -1.08550000000000       -6.00620000000000        5.81450000000000
H           -2.57890000000000       -4.14940000000000        5.72620000000000
H           -0.49010000000000       -3.27960000000000        9.31900000000000
H           -4.52840000000000       -0.70040000000000        3.07040000000000
H           -4.31950000000000        3.35260000000000        4.37220000000000
H           -1.23650000000000        4.69620000000000        7.65040000000000
H            2.05220000000000        2.18280000000000        8.53280000000000
H            3.16770000000000        0.78590000000000       11.82990000000000
H            5.46290000000000        3.37110000000000        9.37970000000000
H            2.35210000000000       -4.39340000000000        9.22400000000000
H            5.15100000000000       -4.55080000000000        6.04850000000000
H            5.00000000000000        3.10410000000000        4.54470000000000
H            5.15860000000000       -0.84440000000000        2.96830000000000
282
 energy: -418.547988338415 gnorm: 0.059001515736 xtb: 6.7.1 (edcfbbe)
C           -3.35321364954246       -2.61856546288136        0.98219688651995
C           -3.77586166799173       -1.42914056162994        0.39338691641009
C           -4.46793917516610       -1.46034940462227       -0.84769546177958
C           -4.92241550150762       -2.72962497956029       -1.28874342539200
C           -4.48209320808080       -3.89219039727560       -0.66844725037274
C           -3.64495811378676       -3.86019069814170        0.44078693522389
C           -4.74925750120158       -0.27892637721963       -1.61291498889008
C           -5.87564892070122       -0.35157084134301       -2.50325403134004
C           -6.46700216407487       -1.58641448417745       -2.85910222357775
C           -5.90007714344870       -2.84760031633213       -2.37232531405582
C           -3.96209057090031        0.93107405298603       -1.59072073009832
C           -4.52748592893616        2.10156972550104       -2.17097699035124
C           -5.88289552777804        2.11711843652113       -2.73489856693510
C           -6.46430537657598        0.81223476955619       -3.03942908467422
C           -7.59411046381176        0.74004261916333       -3.84682320644311
C           -8.17639840099691       -0.47203026372394       -4.19235430866730
C           -7.57939303133515       -1.62397174519767       -3.69193630189366
C           -2.61152082317761        1.06217523638963       -1.11493664646002
C           -1.94371012159880        2.27755032824107       -1.28146110153491
C           -2.52002527909661        3.41305608061077       -1.82196845045322
C           -3.83157720137239        3.30066602656218       -2.24913183366872
O           -3.57196450802307       -0.24308222377308        1.03117584917004
O           -1.87805416230783        0.10140089982837       -0.46669358744987
B           -2.14649445853037        0.13309902495404        1.00922590576864
C            0.12950416675607       -2.18398261137821        2.79530544395817
C           -0.17013756430569       -1.17883481817770        1.86561557631375
C            0.80822787657767       -0.75981545180818        0.90860901106901
C            1.78288336464092       -1.76860288810359        0.64539573367386
C            1.99998140993133       -2.82546915159609        1.52141224687533
C            1.25156090805496       -2.98429651241763        2.68113879246333
C            0.95778255615645        0.54838736548124        0.31039089313237
C            1.93106145619280        0.65236055094612       -0.75063709811037
C            2.57811065509939       -0.47980862981359       -1.30552860685836
C            0.46395371356758        1.79449630519792        0.87757703960309
C            1.23406014129040        2.97961868232049        0.65265991530936
C            2.14544672433297        3.10613664507300       -0.48210542471830
C            2.36472214462343        1.89799003584667       -1.26514958425968
C            3.19560761207762        1.97651448453308       -2.37772014815968
C            3.69359826254401        0.84790990216250       -3.01343279767939
C            3.39976868110775       -0.37252727802734       -2.42240005145141
C           -0.69451961226055        2.03505353535601        1.70624105784185
C           -0.69221579350197        3.12061114544742        2.59968864110783
C            0.24467043354652        4.13939216683767        2.54186799156487
C            1.12887091323069        4.09444735932896        1.47487373105096
O           -1.90127467575175        1.44657000948296        1.59237070719842
O           -1.44202188857638       -0.79052556567301        1.88229750134417
C            2.58656406447448       -1.74137926905744       -0.57295993165794
O            2.73410696124273        4.15768273478545       -0.73804857928945
O            3.27504522907134       -2.69610585359910       -0.92851577719369
O           -6.28016647624753       -3.93614409923115       -2.80211792628574
O           -6.47100084930668        3.16518028671192       -2.99907713495218
C           -3.02668854814415       -5.11971087575275        1.04426589950110
C           -1.52564739678143       -5.09753306221674        0.71652909439383
C           -3.64412342948213       -6.39655310673164        0.45740745375013
C           -3.22312627362813       -5.14448075029096        2.56605898549065
C           -1.73610561797584        4.72289413396400       -1.87975685144674
C           -2.47485958961641        5.79581352533459       -2.69175122686825
C           -1.54583306534120        5.23414734014570       -0.44507922964647
C           -0.36496914172605        4.48298847580177       -2.53001000227130
C           -9.41852200026352       -0.57297254436597       -5.08182816954383
C           -9.07727758176188       -1.38343102633011       -6.34281055143539
C           -9.92791128535860        0.80916617250596       -5.51623113907112
C          -10.54111112338057       -1.28107568900088       -4.30563047951231
C            1.56723226907562       -4.04158791698253        3.73420040778575
C            0.59085226307518       -5.21565734480040        3.59007587818082
C            1.42234931764066       -3.41791655795862        5.13106569048304
C            2.99536576414687       -4.57482231436505        3.56987437842943
C            0.26183307468059        5.33336769117393        3.49306385427785
C            1.70134167373569        5.58669901559869        3.97222069413506
C           -0.26127388569320        6.57470032806099        2.75469261006018
C           -0.61293209008335        5.07789467877566        4.72131691368029
C            4.62489551981424        0.98669698123510       -4.21799657237838
C            5.93401550149876        1.64996085896708       -3.75931076295390
C            4.95667255634597       -0.37622561202988       -4.84253427287951
C            3.95247266333772        1.86033415656165       -5.28890367661277
H            5.57324289564348       -0.24517340805921       -5.73169666750264
H            4.04708252939919       -0.89775817514356       -5.13530483534635
H            5.50988024737607       -1.00334762775775       -4.14612449456122
H            6.62627466064914        1.75346896007292       -4.59513214010088
H            6.41638322023288        1.04974666639279       -2.98903484682415
H            5.75006548473193        2.64030717428175       -3.34724159446573
H            4.59138999205655        1.94978454595344       -6.16754181512004
H            3.75238665415803        2.86245473204737       -4.91635643286053
H            3.00599467891036        1.41946310366696       -5.59754740329643
H           -0.25898087838054        7.44084183241555        3.41633467446298
H           -1.28139255450173        6.41093783948215        2.41183576546963
H            0.35528573189906        6.80610291109876        1.88809701338446
H           -0.52546351127605        5.89954293738171        5.43017642334098
H           -0.29982604927977        4.16429078355191        5.22053046517421
H           -1.66333214732498        4.98793214485385        4.45586816488833
H            1.72416087924302        6.40589787459840        4.69069913260616
H            2.35994589496867        5.85029015147387        3.14761992917813
H            2.10190094591077        4.69696567004754        4.45543917724626
H           -0.95934693080052        6.15209134208431       -0.43944119823807
H           -1.02886061910427        4.49853585447987        0.16345923947329
H           -2.50881510167951        5.43638500339441        0.02155795267438
H           -1.87340167802931        6.70265057344623       -2.74815610302282
H           -3.42330694401284        6.05609029445782       -2.22573473514166
H           -2.66465857854437        5.45140618948222       -3.70711446660965
H            0.19683079799087        5.41380558738039       -2.59359868353718