116
 energy: -22.928061455056 gnorm: 0.329736929581 xtb: 6.6.1 (8d0f1dd)
C           -3.31122850772930        0.79849766164622       -0.92477639677520
C           -2.44380812530352       -0.12270372891954       -0.27661132624697
C           -1.41337090092821        0.39579727573559        0.56335275196199
C           -0.89266158675590        1.65801491088749        0.27377586709581
C           -1.72665675402493        2.51431363229076       -0.49448366572522
C           -2.95444148494349        2.13954154133227       -1.01494489940871
C           -0.74098268209890       -0.43411532818871        1.49825021926784
C            0.56872586496315        0.03782116815119        1.86248088067890
C            1.03782416582094        1.29402317993033        1.50887470833621
N            0.31238977034758        2.07067427098208        0.65193736800696
C           -1.29695700510141       -1.39996043042223        2.41574187746061
C           -0.38243517664656       -2.18060797534842        3.13232615520648
N            0.91308504082021       -1.90366887689689        3.30325166013478
C            1.37712470144904       -0.74872102533751        2.81811050966982
C            2.52149331701875       -0.17739833758153        3.39379298866852
C            2.95849061756259        1.02681208890480        2.95105897606587
C            2.24288949469137        1.78498308775960        2.03503020483770
C           -2.74860936222260       -1.74497937691422        2.38401158947411
C           -3.09416315450955       -2.91614440870436        3.00571134491758
C           -2.16786021984049       -3.77788778654213        3.63251872101904
C           -0.85708937311598       -3.40495313382985        3.68547234358092
O           -3.71994433332149       -0.94984598373544        1.67726658385724
O           -2.55702603277562       -1.47241711578389       -0.57241635275616
C           -3.84297843593025        3.13357444054366       -1.60938954875544
C           -2.68769581069131       -5.03867041417370        4.30484659386931
H           -1.39666850744143        3.51251503834900       -0.76806311868865
H           -4.27662633836220        0.55105838579656       -1.33106614114542
H            2.66329581305412        2.73912661909249        1.72562431984580
H            3.05775395548473       -0.69369546277216        4.16536137542516
H           -0.24710966264510       -4.12034095424229        4.22946223699121
H           -4.11477991332403       -3.04712728052358        3.03244694615357
O           -4.21824883374556        4.03433712717988       -0.87713382485991
O           -4.44510595673734        2.90643496899600       -2.81853501752979
C           -5.44216520282800        3.83300025693726       -3.02488532025093
C            4.23586651889298        1.50004220933226        3.59165660008449
O            5.05927614697201        0.66079890002952        3.91714215179376
O            4.47001334453535        2.86385149488593        3.72605651435371
C            5.79457498613219        3.08584475587818        4.15829123132174
O           -3.82227255313510       -5.27347675879771        4.16636005494405
O           -1.85023202017753       -5.79767454267276        5.06656077253571
C           -2.55119635829503       -6.86252441382958        5.62930343183426
C           -5.07197156564436       -1.42399175670916        1.58830531863830
C           -1.33089900128490       -2.23622472573986       -0.99264499351172
H           -2.54510546830388       -7.76426885143998        4.99136022291012
H           -3.57194749219491       -6.44405511486021        5.74196173723541
H           -2.09133598235598       -7.02043774843818        6.64022264233588
H            5.72707967266424        3.46798026205549        5.10135971236643
H            6.34060091246885        3.78468702308830        3.50069950143490
H            6.17933064298187        2.03010500085905        4.19342358084693
H           -0.91862729772622       -2.57650129080332       -0.01361370304871
H           -0.49769766914251       -1.60651221708571       -1.34094446550576
H           -1.52632419730509       -2.94569707152159       -1.75361447637286
H           -5.11788846557077       -2.41810833635233        1.17520213188926
H           -5.67929807973498       -0.69619639428435        1.04301666067831
H           -5.57598832326623       -1.42383358739762        2.57928294206544
H           -6.13050215934830        3.76035386975488       -2.23272855695873
H           -5.86615610071888        3.45938329385866       -4.02668959924245
H           -5.13479557532099        4.87790991548477       -2.98314551356402
C           -1.38192942069774        3.73616555005018        2.91232598411686
C           -1.84821468128685        2.59982427735607        3.49755545445181
C           -1.05946531454833        2.05730632010638        4.60922730982276
C            0.19893954712228        2.69376791964407        4.86302140881997
C            0.50425395911860        3.94630308659851        4.28768785650746
C           -0.26031777722226        4.46998310053134        3.25072669343212
C           -1.20488993561782        0.74454293276906        5.14851520323437
C           -0.06287609782692        0.02744069315890        5.60930570802864
C            1.19208754369866        0.71421540266195        5.78882868583885
N            1.19428660993148        2.06344359410476        5.62744624321596
C           -2.41361422770794        0.07928500213936        5.25249410304426
C           -2.45851584031083       -1.32662100968547        5.60237876023992
N           -1.29466212405906       -1.98318595734370        5.89916817085159
C           -0.14475655767527       -1.32117560077092        5.98824682881008
C            0.97209270935794       -1.98958449505532        6.53157704134458
C            2.21982707914082       -1.36973967291181        6.68703967237737
C            2.30561929262884       -0.09745313075593        6.26436900324455
C           -3.73018485967715        0.71367583494582        5.25810242262992
C           -4.89964478833448       -0.06184623426677        5.21204641615509
C           -4.82617965800088       -1.39228978090841        5.46901303780036
C           -3.67144193418464       -1.98914944386360        5.67265433266067
O           -3.75568638935321        2.07705011038914        5.52067969627343
O           -2.94192434743730        1.91263938797883        3.01658762327703
C            0.21273512614467        5.50086066357994        2.34765104514621
C           -6.06660304520411       -2.17604633098929        5.80641622556876
H            1.41756699010566        4.38133362238595        4.66974005703471
H           -1.82880610647429        4.11982501512100        2.06992133318584
H            3.26888037378556        0.32655662585251        6.31721410015598
H            0.87146188387207       -3.08471526305024        6.57830423410869
H           -3.67716811065157       -3.05999292755990        5.83019634570050
H           -5.77379677507622        0.43595144608221        4.71017130754348
O            1.34459852619901        5.82615848916894        2.44941456579099
O           -0.74718748219123        6.07961784856304        1.59848183464284
C           -0.21473095568964        7.24015934882472        1.05753806029483
C            3.53228080814219       -2.00967610361154        7.02506769044485
O            3.64093082622715       -3.14437803815732        7.50071391725347
O            4.56565258381079       -1.22937033368332        6.69086985080897
C            5.72579357310716       -1.80692399125161        7.22246151275881
O           -7.04801223588612       -1.95726935745904        5.14194115322235
O           -6.01514389321278       -2.93743591896022        6.94765316328794
C           -7.21292732384718       -3.62681918543340        7.15115816329978
C           -4.95459780685163        2.65960679932188        5.86868674392943
C           -3.68284113682406        2.59129188358641        2.05479246020704
H           -7.43119628931628       -4.22607794725959        6.20622607140901
H           -8.06548455146707       -2.91765848248592        7.29781126410398
H           -7.07314693247270       -4.33087306029711        7.91223421050944
H            6.57332189837178       -1.29353136199234        6.78341268688262
H            5.74663761932316       -2.84282155125561        6.88089468184451
H            5.69426191474290       -1.72781984964892        8.29460302186842
H           -4.10481209541493        3.44288266176275        2.60483747673152
H           -4.49244774344916        1.87419893016926        1.82433103764650
H           -3.18901540870812        2.85154642679373        1.06781919454921
H           -5.55414326821421        2.76698137191684        4.93950725322359
H           -4.78658370641210        3.62090640967288        6.25983200635257
H           -5.43485580473958        1.97242995129449        6.65265772412460
H            0.89164886030839        7.38838561720231        1.13776105146914
H           -0.62894889903848        8.04195665205089        1.64837664327952
H           -0.59282546386754        7.45699159724320        0.03719083132488
116
 energy: -22.804897254632 gnorm: 0.436885679437 xtb: 6.6.1 (8d0f1dd)
C           -2.62899005340175        0.36983139380146       -1.28246790852927
C           -1.95309927345618       -0.43491844035572       -0.39884993240654
C           -1.15057501157721        0.12229189329910        0.61439135080947
C           -0.69469641985501        1.44570876522190        0.41213873098684
C           -1.36433926879051        2.29769147155363       -0.51825784902563
C           -2.27241232812774        1.76877727992860       -1.33083415303343
C           -0.51604526206927       -0.69333814920486        1.57298028216115
C            0.73906397791338       -0.29029563510065        2.00267158678893
C            1.25665023916157        0.97470530910876        1.50420013637072
N            0.57720520995378        1.86502243229653        0.75520106967175
C           -1.20471315885513       -1.70116130935678        2.25121944700899
C           -0.34520639079063       -2.54629176299829        3.11834420070872
N            1.00857889055840       -2.32932278313832        3.28424274479310
C            1.50184173488966       -1.17254483423583        2.82341940547284
C            2.78389890450316       -0.65650521354203        3.22526961924252
C            3.24060198824665        0.51108369758676        2.69044365504443
C            2.43292103008595        1.41702724015068        2.07160386136799
C           -2.62518898648020       -1.93074314584590        2.30162640116867
C           -3.11626687844075       -3.14335408431010        2.86293582938820
C           -2.29667086596901       -3.84413883117399        3.75230122509452
C           -0.94477745829680       -3.51630969466550        3.79407802867220
O           -3.39648040148690       -0.99128693630515        1.72637822203938
O           -1.83637420255955       -1.87305104231669       -0.39017336888819
C           -3.04875091458012        2.52637727361921       -2.31206234424984
C           -2.68927809687544       -5.11538918823735        4.39096784874115
H           -1.07741038583697        3.35347806429435       -0.73729201710717
H           -3.26146571295705       -0.16727434543050       -2.00345476349808
H            2.88000997642108        2.39848807635562        1.75142697734197
H            3.26268209578560       -1.08874948075502        4.15496013752734
H           -0.28483114078252       -4.14056452256874        4.36118234059310
H           -4.07283673614659       -3.64348407612826        2.65837464639843
O           -2.91821143621553        2.52397513693339       -3.50318654472390
O           -3.67711654740513        3.49090366910562       -1.54640173631532
C           -4.14471717637239        4.53305664030049       -2.40264047387248
C            4.53815108289893        0.82536531709768        3.13638343256491
O            5.40423418225895        0.07651800492291        2.77566032270101
O            4.70257663234235        2.00206804266062        3.83019375778548
C            5.96295526607772        2.34155243411153        4.09363136471865
O           -3.90200447790521       -5.46179894493575        4.44215360125606
O           -1.69140976320756       -5.83947426490429        5.08990143031999
C           -2.18994328266336       -6.70397791397013        6.09169663839634
C           -4.79294817297835       -0.84919325673407        2.08291659588020
C           -2.04524977478393       -2.38429247142290       -1.64621869766917
H           -3.05067665319451       -6.36118718157516        6.73349159273121
H           -1.41560167239566       -7.16352448831699        6.70246161262781
H           -2.60979785710388       -7.41848780941284        5.41013026168692
H            6.59322140267057        1.70839091511444        3.56927250726574
H            6.25813994363279        2.53885378298825        5.15312125437613
H            6.09434322205420        3.41529989640405        3.62286782414101
H           -3.02555198158917       -2.36806278721937       -2.05590143679995
H           -1.73717136826596       -3.48699968080408       -1.52405327240481
H           -1.26791620194722       -2.13428468084865       -2.42935678093066
H           -5.15692162393144       -1.89006099533713        2.12786706917358
H           -5.27296673319077       -0.14077759603160        1.42302758389202
H           -4.73085127179005       -0.38511454747764        3.14297255356272
H           -3.45511029481159        4.56335113219661       -3.31229194011367
H           -4.23003849067447        5.50550226129557       -1.78564338265576
H           -5.10114808089792        4.37460328818427       -2.76434742730868
C           -2.12377700655570        4.08455126754388        3.35055866565874
C           -2.34473600381131        2.76163490797803        3.80615031041905
C           -1.30129702366101        2.13573905173656        4.54971885987643
C            0.01999739822054        2.66086297198634        4.33738720280057
C            0.19026880092900        3.85116651091455        3.69138025977639
C           -0.83485406208520        4.62145090521147        3.12180679720134
C           -1.37446084061177        1.09331949343722        5.45855679182286
C           -0.25228946376478        0.31625818305102        5.73832183568867
C            0.94969039342798        0.96661449426251        5.58090520199882
N            1.13083272662827        2.22591588242931        5.07113466529340
C           -2.60349881063915        0.36135083798576        5.75070701607857
C           -2.56847344989380       -1.03782741353905        5.98059187131025
N           -1.47403889914097       -1.77414711887077        6.35399095424866
C           -0.35303496519131       -0.95249321554962        6.30179285400413
C            0.86822792585669       -1.55624442659966        6.63749840394164
C            2.07041845333002       -0.89981714489322        6.57896712670459
C            2.10124287936036        0.33177932475285        6.10194048013430
C           -3.80042019700509        1.11203058686843        5.81252585489132
C           -5.04744509770213        0.39613918286316        5.87975196330520
C           -5.01435088717895       -0.99551222875489        6.08327731649709
C           -3.81854183518074       -1.67138054684375        6.21369045736126
O           -3.64001671631780        2.48532661666854        6.29509391762863
O           -3.48811527979079        1.99520343288582        3.36032951232445
C           -0.65957556796344        5.95747294586720        2.53901719422680
C           -6.25799503710943       -1.74005382268108        5.93703477413280
H            1.12130579940211        4.31084116495780        3.65026378051151
H           -2.88768575041111        4.66356407489013        2.95210180262922
H            3.01806241840519        0.93179161570176        6.12403840616125
H            0.83326519263191       -2.46542022337902        7.02646722440211
H           -3.99016500947632       -2.75399015281517        6.43102376358558
H           -6.00733110843712        0.96970060156730        5.71950840852092
O            0.37826557009207        6.46016518654351        2.91870752499346
O           -1.68353054783497        6.34612264164178        1.82208193952827
C           -1.58712985124408        7.78953662449173        1.65070922323342
C            3.31946923768443       -1.50861794012044        6.92463168281358
O            3.37104995951318       -2.62950544517193        7.44828402701713
O            4.38300185668057       -0.99162832836224        6.12782524479895
C            5.42680279149795       -1.90209015394483        6.34856690177420
O           -7.36267141733539       -1.31878753549772        5.99387345680628
O           -6.06265402532805       -3.06276934298084        5.71918605742988
C           -7.10791844679332       -3.80750052142131        5.15606378443805
C           -4.52615527869894        2.84094848203292        7.34837428945812
C           -4.07969502383357        2.27125527675441        2.10987098937922
H           -7.26155347007504       -3.49648363407558        4.18185704378159
H           -8.10539778747161       -3.49827670181491        5.49299333104879
H           -6.73068942735230       -4.85909022733407        5.31193894583968
H            6.32394761382827       -1.92440940617027        5.71439783107192
H            5.20442567160235       -2.98442986653071        6.23175019667193
H            5.62495209593542       -1.59733759359449        7.40980364295920
H           -5.19654527496458        2.14250125807608        2.12957416822883
H           -3.69007761581754        1.58690677870743        1.30485521350981
H           -3.84778154004385        3.34645780304403        1.97165768952695
H           -4.33914028131789        3.77458023098828        7.81766307601403
H           -4.40942869616195        2.06131061518580        8.16578920226032
H           -5.56681491516065        2.93985890333633        7.00963367481792
H           -1.14005782485257        7.91380730191058        0.67361219933014
H           -1.06465772248405        8.22180750165816        2.48575133700175
H           -2.61699118687794        8.16170134582933        1.61615175497602
116
 energy: -22.834477827848 gnorm: 0.366863372500 xtb: 6.6.1 (8d0f1dd)
C           -2.79779016776732        0.70035329640726       -0.42906492724231
C           -2.20337924683812       -0.32323262871351        0.34753395544262
C           -1.17091935360585        0.15707236159127        1.18950909168258
C           -0.64807559900742        1.45108323063277        0.97530921346112
C           -1.16352828700719        2.40274797602344        0.08951031922656
C           -2.23174803659946        1.94493656792729       -0.64163042265711
C           -0.50861412171355       -0.88811118414267        1.88243118453193
C            0.86821293773390       -0.55811075639613        2.03641427025795
C            1.28641824911619        0.83580454557134        1.96234256220214
N            0.52465700414828        1.83134744961928        1.50432081876664
C           -0.98008581103924       -2.05124606520699        2.55225884106698
C           -0.01621261824871       -3.02471154604804        3.11724417640001
N            1.30383190407056       -2.72379075367071        3.18655660764487
C            1.68571259204707       -1.51245325491142        2.80318809057287
C            2.93372121619264       -1.05541717255483        3.30480387889101
C            3.51021432444227        0.12440124070757        2.84767136989901
C            2.61955842646574        1.08750607312921        2.32403137972993
C           -2.35649752330760       -2.42088383691747        2.81527805845851
C           -2.72781617925120       -3.58464148298693        3.54492817402950
C           -1.75262260855058       -4.30040269005513        4.19360860807037
C           -0.44426722236532       -4.15331553498339        3.84108724425172
O           -3.18061515619435       -1.27311665888919        2.86947579836073
O           -2.59477887810025       -1.61981524823659        0.07734655643810
C           -3.02473590169828        2.96799041335169       -1.36663817827419
C           -1.96946947158634       -5.50440059605294        5.04226079087390
H           -0.85557349590856        3.49899346466101        0.26356449240720
H           -3.59586214719365        0.53101011720828       -1.10760628291798
H            2.90598712907715        2.07070213030665        1.95385380346697
H            3.51152858512181       -1.82926894295511        3.74269358715805
H            0.36949675604215       -4.78655371995496        4.11509944980621
H           -3.81909200216277       -3.88673050397601        3.66427314046815
O           -4.01618634071195        3.43397362549884       -0.79948637792719
O           -2.64632375538152        3.26636527371573       -2.64000707296742
C           -3.30238560626904        4.36246515641446       -3.11325534990440
C            4.88545596926363        0.55932299093296        3.06843010738931
O            5.64568210571321       -0.04386191309344        3.77941928100146
O            5.32444499124581        1.49836440663149        2.20098566951269
C            6.60724312507030        2.18452559361550        2.58235940615204
O           -2.97382598968148       -5.67470897160127        5.67599788635616
O           -0.96469925680903       -6.47580750716970        5.06977951705756
C           -1.23400510953769       -7.58405652800872        5.90802246533157
C           -4.58599546235288       -1.58707097788759        2.55228565168717
C           -3.23156558818938       -1.87260959486649       -1.11265684350313
H           -1.91858686159977       -7.28983546082030        6.79735598212524
H           -0.26494105368235       -8.03531902932010        6.25587819298067
H           -1.72151530943616       -8.28285423595057        5.23756678506299
H            7.46205453955360        1.81478050832720        1.99626073651343
H            6.72775805474648        2.04108459839318        3.69107753202567
H            6.44684714269214        3.29177216899914        2.34848332050423
H           -4.24064076534902       -2.27027687972666       -0.97255570232220
H           -2.75326816744437       -2.77394056414243       -1.66440560983812
H           -3.28621128759168       -0.92636370385092       -1.70975657721169
H           -4.49159816429014       -1.81389032541031        1.41509832826184
H           -5.20227822317559       -0.71756628200595        2.81268994646584
H           -4.87509906540489       -2.46047740910118        3.29338658953249
H           -4.19473395808154        4.48561333539449       -2.46132318098833
H           -3.58417977610488        4.29850549248517       -4.14606115903028
H           -2.63755632878353        5.21435843480070       -3.04729811718784
C           -2.38849337992318        4.38153716136715        2.96671691439356
C           -2.46051720497397        3.01755787213078        3.26537767957611
C           -1.50968969207653        2.29774113102703        4.05128943359825
C           -0.32272254398368        3.02721214543062        4.37129116908058
C           -0.10154155800289        4.38999978433000        3.98446791356475
C           -1.14994687087269        4.99910053888182        3.26661845811374
C           -1.77263376320882        1.05615538119096        4.86005003048551
C           -0.59267787985972        0.36192985227449        5.18836637442344
C            0.61418708990799        1.13365916810372        5.36840379731131
N            0.66999341784150        2.39124504668849        5.03490442481174
C           -2.99256177822695        0.45954047215178        5.35010124461517
C           -2.97916203162464       -0.87297536048018        5.83626586286651
N           -1.84476904322687       -1.53005073889485        6.18005706664704
C           -0.67040765610907       -0.94654014236801        5.77999789402202
C            0.51903397868670       -1.55035331824324        6.28514379065197
C            1.66980623839598       -0.76549091324928        6.22122633865682
C            1.71927800461415        0.53491460033173        5.89245708959312
C           -4.28915806098273        1.08287475207895        5.16974014683728
C           -5.47467396153998        0.29684458260441        5.13885107364498
C           -5.43636280476625       -1.01851815000412        5.50782357191426
C           -4.23096028622584       -1.55957285811055        5.91377543481724
O           -4.49831031873596        2.45503564416573        5.34567241786496
O           -3.60815331876278        2.30865183697252        2.90183220866463
C           -0.95544437803243        6.39679148923998        3.03531734888427
C           -6.54968529730507       -1.97643561954664        5.47365337400686
H            0.83902029554749        4.87755000012691        4.32389060046140
H           -3.21639594356382        4.79645763774941        2.43033313996926
H            2.68876941319215        1.02059588034592        5.88701484605657
H            0.57642307386348       -2.41654061865424        6.84294143447252
H           -4.06790466905636       -2.57658406673325        6.40525881840156
H           -6.50157264768739        0.66802753308655        4.85754286440007
O           -0.49608120597954        7.05068990302097        3.96611631519460
O           -1.33339373250794        6.93570058480393        1.75550492898881
C           -0.63301898441637        8.16801922794991        1.69084603882717
C            3.00245374096545       -1.39708975952306        6.56160611132978
O            3.05499108894794       -2.56927802482057        6.69512312106726
O            4.17065101774337       -0.65481381128543        6.77761737485513
C            5.16049573838249       -1.64771028866537        6.88700965927604
O           -7.72736813063942       -1.57182163601657        5.60958918955569
O           -6.25482104513505       -3.32642659867712        5.03831330375735
C           -7.31904415848421       -3.88895693606424        4.35717580057672
C           -3.57476426812338        3.22195554755184        6.13555579422290
C           -4.58718313973873        3.02527060624826        2.08916810707646
H           -7.72276220312850       -3.06471129087077        3.71248294010528
H           -8.06870467151855       -4.02660569863469        5.16533214539384
H           -6.84117117895453       -4.81663255723872        3.88433607577829
H            6.07214670165572       -1.24327006125785        7.23887055801958
H            5.40533980675059       -1.93575810244100        5.84342960751674
H            4.88846968075825       -2.59927719775660        7.44713571240250
H           -5.47038288026650        2.44939809683471        1.83819479194428
H           -3.95452015262530        3.08050515452235        1.18632591967652
H           -4.95107808131182        3.85631045955204        2.68747264694263
H           -3.35470570632202        2.67127339837063        7.11450903245072
H           -4.00519720570338        4.11960366141673        6.28125192901396
H           -2.64476083377726        3.45498736272256        5.55634585957496
H            0.48133429324801        7.97031679837980        1.56332095829719
H           -0.85240976101417        8.85211279984206        2.53074594622226
H           -0.94709100181021        8.70285946196207        0.72715870832356
116
 energy: -22.839762780661 gnorm: 0.373508706657 xtb: 6.6.1 (8d0f1dd)
C           -2.55749135303518        0.60168347348287       -0.51070495801961
C           -1.73256305557890       -0.25441940586885        0.15078835794744
C           -0.63948912213673        0.06549586212302        1.03233971515131
C           -0.09468308464721        1.34265147902047        0.86370138110271
C           -0.98335787629345        2.28081941460134        0.20056383955904
C           -2.26211900223895        1.95280547246516       -0.30548930302758
C            0.00047345924658       -0.78541428684411        2.02182610540072
C            1.32665410017546       -0.51213962109401        2.22200206191094
C            1.73471404342151        0.75865633182969        1.95596136722844
N            1.06731597358954        1.77304914690473        1.35109285204810
C           -0.49310811475575       -2.06588143622216        2.44229481949548
C            0.42292561426309       -3.00731761755584        2.94228166861078
N            1.71300593796348       -2.70156599300787        3.24224245163780
C            2.08857626894597       -1.49571996592421        2.94342801111527
C            3.33702666410159       -1.07315103345505        3.33399491533473
C            3.92098496994358        0.16351919873983        2.93836832962966
C            2.99815780915947        1.10116822279460        2.41458593256890
C           -1.92184931053169       -2.28228381189862        2.45691346852432
C           -2.33375028844413       -3.53128073850055        2.82158927528952
C           -1.42900786828295       -4.49319179826659        3.31870647924801
C           -0.04189930993506       -4.32573326330759        3.28189224849941
O           -2.72273360831352       -1.18444538190929        2.39248166285535
O           -1.92290032977917       -1.64849437142526       -0.14171809297344
C           -3.28430338781549        2.85078731268528       -0.87400394297125
C           -1.94742557649122       -5.82708033847485        3.67262838081081
H           -0.63716253177879        3.31805570961428        0.31831358645372
H           -3.36198393816572        0.27188723062792       -1.10919212176958
H            3.42402093356933        2.04967867066464        2.19786957596284
H            3.79790455389604       -1.70837688508840        4.03530238607877
H            0.54019588795232       -5.20995805255087        3.68931578940158
H           -3.37613531824457       -3.76610344372784        3.04625458741940
O           -4.36485208441721        2.97458795679468       -0.33423317842792