156
energy: -130.265278472733 gnorm: 0.000376113410 xtb: 6.7.1 (edcfbbe)_energy: -130.265278472733 gnorm: 0.000376113410 xtb: 6.7.1 (edcfbbe)
C          0.82910        3.22690       -3.38500
C          2.76070       -3.12100       -0.26970
C         -3.39550        0.60110       -2.33710
C         -2.36450       -0.05140       -1.68540
C         -1.04190        0.45870       -1.76880
C         -0.75890        1.51030       -2.67020
C         -1.81350        2.14440       -3.32280
C         -3.10540        1.71240       -3.11330
C          0.04050       -0.10150       -1.02610
C          1.33750        0.02240       -1.59220
C          1.58870        1.03550       -2.54540
N          0.55670        1.89600       -2.88000
C         -0.05070       -0.76240        0.23600
C          0.96020       -1.69060        0.57730
N          2.03710       -1.86610       -0.28060
C          2.35800       -0.86950       -1.18940
C          3.63430       -0.71090       -1.71610
C          3.85260        0.26370       -2.67440
C          2.86000        1.12200       -3.10280
C         -1.06440       -0.45960        1.18130
C         -1.16190       -1.20660        2.34180
C         -0.22470       -2.19100        2.59720
C          0.85540       -2.41100        1.76370
O         -1.86170        0.60620        0.89470
O         -2.51650       -1.21430       -0.99120
S         -4.49050        2.61890       -3.86860
S         -0.39580       -3.24200        4.07210
S          5.52740        0.39750       -3.38140
O          5.42410        1.49260       -4.32840
O          5.47900       -1.04200       -4.24850
C          4.66110       -1.04620       -5.38810
O         -3.84700        3.67280       -4.63230
O         -5.05520        3.29560       -2.43440
C         -4.23990        4.28160       -1.86080
O         -1.62840       -2.78650        4.68970
O         -0.73170       -4.66100        3.22970
C         -1.97030       -4.70220        2.57440
H         -4.42090        0.27940       -2.25620
H         -1.67270        2.97160       -3.99790
H         -1.94240       -1.05610        3.07020
H          1.58620       -3.14660        2.05390
H          4.46580       -1.32410       -1.40850
H          3.11850        1.83030       -3.87340
C          1.84920       -4.29710       -0.63970
C          2.63230       -5.60270       -0.67480
C          0.38930        4.30140       -2.38370
C          0.64110        5.69700       -2.93820
C         -2.87520        0.94500        1.80780
C         -3.80930       -1.74670       -0.85460
H         -4.87620        4.92670       -1.25620
H         -3.76410        4.87660       -2.64790
H         -3.46640        3.82740       -1.23140
H         -2.24310       -5.74930        2.44940
H         -1.90720       -4.21480        1.59490
H         -2.73040       -4.19810        3.18100
H          5.05480       -1.79440       -6.07470
H          4.68610       -0.06240       -5.86880
H          3.62740       -1.29240       -5.12250
H          3.22400       -3.29230        0.70760
H          3.55710       -3.06750       -1.01030
H          1.40920       -4.10100       -1.61990
H          1.03380       -4.37860        0.07970
H          3.43830       -5.54920       -1.40340
H          1.97940       -6.42810       -0.94570
H          3.06440       -5.81510        0.30050
H         -3.39010        1.80030        1.37150
H         -2.46170        1.22780        2.78130
H         -3.58820        0.12580        1.94550
H         -3.69730       -2.63790       -0.23770
H         -4.23300       -2.03010       -1.82420
H         -4.48660       -1.04570       -0.35640
H          0.34570        6.45160       -2.21390
H          0.06770        5.85380       -3.84900
H          1.69530        5.83500       -3.16760
H          0.94600        4.16250       -1.45420
H         -0.67110        4.18350       -2.15640
H          0.33050        3.37880       -4.34700
H          1.89970        3.33140       -3.54700
C          0.82910        3.22690        3.61500
C          2.76070       -3.12100        6.73030
C         -3.39550        0.60110        4.66290
C         -2.36450       -0.05140        5.31460
C         -1.04190        0.45870        5.23120
C         -0.75890        1.51030        4.32980
C         -1.81350        2.14440        3.67720
C         -3.10540        1.71240        3.88670
C          0.04050       -0.10150        5.97390
C          1.33750        0.02240        5.40780
C          1.58870        1.03550        4.45460
N          0.55670        1.89600        4.12000
C         -0.05070       -0.76240        7.23600
C          0.96020       -1.69060        7.57730
N          2.03710       -1.86610        6.71940
C          2.35800       -0.86950        5.81060
C          3.63430       -0.71090        5.28390
C          3.85260        0.26370        4.32560
C          2.86000        1.12200        3.89720
C         -1.06440       -0.45960        8.18130
C         -1.16190       -1.20660        9.34180
C         -0.22470       -2.19100        9.59720
C          0.85540       -2.41100        8.76370
O         -1.86170        0.60620        7.89470
O         -2.51650       -1.21430        6.00880
S         -4.49050        2.61890        3.13140
S         -0.39580       -3.24200       11.07210
S          5.52740        0.39750        3.61860
O          5.42410        1.49260        2.67160
O          5.47900       -1.04200        2.75150
C          4.66110       -1.04620        1.61190
O         -3.84700        3.67280        2.36770
O         -5.05520        3.29560        4.56560
C         -4.23990        4.28160        5.13920
O         -1.62840       -2.78650       11.68970
O         -0.73170       -4.66100       10.22970
C         -1.97030       -4.70220        9.57440
H         -4.42090        0.27940        4.74380
H         -1.67270        2.97160        3.00210
H         -1.94240       -1.05610       10.07020
H          1.58620       -3.14660        9.05390
H          4.46580       -1.32410        5.59150
H          3.11850        1.83030        3.12660
C          1.84920       -4.29710        6.36030
C          2.63230       -5.60270        6.32520
C          0.38930        4.30140        4.61630
C          0.64110        5.69700        4.06180
C         -2.87520        0.94500        8.80780
C         -3.80930       -1.74670        6.14540
H         -4.87620        4.92670        5.74380
H         -3.76410        4.87660        4.35210
H         -3.46640        3.82740        5.76860
H         -2.24310       -5.74930        9.44940
H         -1.90720       -4.21480        8.59490
H         -2.73040       -4.19810       10.18100
H          5.05480       -1.79440        0.92530
H          4.68610       -0.06240        1.13120
H          3.62740       -1.29240        1.87750
H          3.22400       -3.29230        7.70760
H          3.55710       -3.06750        5.98970
H          1.40920       -4.10100        5.38010
H          1.03380       -4.37860        7.07970
H          3.43830       -5.54920        5.59660
H          1.97940       -6.42810        6.05430
H          3.06440       -5.81510        7.30050
H         -3.39010        1.80030        8.37150
H         -2.46170        1.22780        9.78130
H         -3.58820        0.12580        8.94550
H         -3.69730       -2.63790        6.76230
H         -4.23300       -2.03010        5.17580
H         -4.48660       -1.04570        6.64360
H          0.34570        6.45160        4.78610
H          0.06770        5.85380        3.15100
H          1.69530        5.83500        3.83240
H          0.94600        4.16250        5.54580
H         -0.67110        4.18350        4.84360
H          0.33050        3.37880        2.65300
H          1.89970        3.33140        3.45300
