156
energy: -130.265278472733 gnorm: 0.000376113410 xtb: 6.7.1 (edcfbbe)_energy: -130.265278472733 gnorm: 0.000376113410 xtb: 6.7.1 (edcfbbe)
C          0.82910        3.22690       -3.38500
C          2.76070       -3.12100       -0.26970
C         -3.39550        0.60110       -2.33710
C         -2.36450       -0.05140       -1.68540
C         -1.04190        0.45870       -1.76880
C         -0.75890        1.51030       -2.67020
C         -1.81350        2.14440       -3.32280
C         -3.10540        1.71240       -3.11330
C          0.04050       -0.10150       -1.02610
C          1.33750        0.02240       -1.59220
C          1.58870        1.03550       -2.54540
N          0.55670        1.89600       -2.88000
C         -0.05070       -0.76240        0.23600
C          0.96020       -1.69060        0.57730
N          2.03710       -1.86610       -0.28060
C          2.35800       -0.86950       -1.18940
C          3.63430       -0.71090       -1.71610
C          3.85260        0.26370       -2.67440
C          2.86000        1.12200       -3.10280
C         -1.06440       -0.45960        1.18130
C         -1.16190       -1.20660        2.34180
C         -0.22470       -2.19100        2.59720
C          0.85540       -2.41100        1.76370
O         -1.86170        0.60620        0.89470
O         -2.51650       -1.21430       -0.99120
S         -4.49050        2.61890       -3.86860
S         -0.39580       -3.24200        4.07210
S          5.52740        0.39750       -3.38140
O          5.42410        1.49260       -4.32840
O          5.47900       -1.04200       -4.24850
C          4.66110       -1.04620       -5.38810
O         -3.84700        3.67280       -4.63230
O         -5.05520        3.29560       -2.43440
C         -4.23990        4.28160       -1.86080
O         -1.62840       -2.78650        4.68970
O         -0.73170       -4.66100        3.22970
C         -1.97030       -4.70220        2.57440
H         -4.42090        0.27940       -2.25620
H         -1.67270        2.97160       -3.99790
H         -1.94240       -1.05610        3.07020
H          1.58620       -3.14660        2.05390
H          4.46580       -1.32410       -1.40850
H          3.11850        1.83030       -3.87340
C          1.84920       -4.29710       -0.63970
C          2.63230       -5.60270       -0.67480
C          0.38930        4.30140       -2.38370
C          0.64110        5.69700       -2.93820
C         -2.87520        0.94500        1.80780
C         -3.80930       -1.74670       -0.85460
H         -4.87620        4.92670       -1.25620
H         -3.76410        4.87660       -2.64790
H         -3.46640        3.82740       -1.23140
H         -2.24310       -5.74930        2.44940
H         -1.90720       -4.21480        1.59490
H         -2.73040       -4.19810        3.18100
H          5.05480       -1.79440       -6.07470
H          4.68610       -0.06240       -5.86880
H          3.62740       -1.29240       -5.12250
H          3.22400       -3.29230        0.70760
H          3.55710       -3.06750       -1.01030
H          1.40920       -4.10100       -1.61990
H          1.03380       -4.37860        0.07970
H          3.43830       -5.54920       -1.40340
H          1.97940       -6.42810       -0.94570
H          3.06440       -5.81510        0.30050
H         -3.39010        1.80030        1.37150
H         -2.46170        1.22780        2.78130
H         -3.58820        0.12580        1.94550
H         -3.69730       -2.63790       -0.23770
H         -4.23300       -2.03010       -1.82420
H         -4.48660       -1.04570       -0.35640
H          0.34570        6.45160       -2.21390
H          0.06770        5.85380       -3.84900
H          1.69530        5.83500       -3.16760
H          0.94600        4.16250       -1.45420
H         -0.67110        4.18350       -2.15640
H          0.33050        3.37880       -4.34700
H          1.89970        3.33140       -3.54700
C          0.82910        3.22690        2.86500
C          2.76070       -3.12100        5.98030
C         -3.39550        0.60110        3.91290
C         -2.36450       -0.05140        4.56460
C         -1.04190        0.45870        4.48120
C         -0.75890        1.51030        3.57980
C         -1.81350        2.14440        2.92720
C         -3.10540        1.71240        3.13670
C          0.04050       -0.10150        5.22390
C          1.33750        0.02240        4.65780
C          1.58870        1.03550        3.70460
N          0.55670        1.89600        3.37000
C         -0.05070       -0.76240        6.48600
C          0.96020       -1.69060        6.82730
N          2.03710       -1.86610        5.96940
C          2.35800       -0.86950        5.06060
C          3.63430       -0.71090        4.53390
C          3.85260        0.26370        3.57560
C          2.86000        1.12200        3.14720
C         -1.06440       -0.45960        7.43130
C         -1.16190       -1.20660        8.59180
C         -0.22470       -2.19100        8.84720
C          0.85540       -2.41100        8.01370
O         -1.86170        0.60620        7.14470
O         -2.51650       -1.21430        5.25880
S         -4.49050        2.61890        2.38140
S         -0.39580       -3.24200       10.32210
S          5.52740        0.39750        2.86860
O          5.42410        1.49260        1.92160
O          5.47900       -1.04200        2.00150
C          4.66110       -1.04620        0.86190
O         -3.84700        3.67280        1.61770
O         -5.05520        3.29560        3.81560
C         -4.23990        4.28160        4.38920
O         -1.62840       -2.78650       10.93970
O         -0.73170       -4.66100        9.47970
C         -1.97030       -4.70220        8.82440
H         -4.42090        0.27940        3.99380
H         -1.67270        2.97160        2.25210
H         -1.94240       -1.05610        9.32020
H          1.58620       -3.14660        8.30390
H          4.46580       -1.32410        4.84150
H          3.11850        1.83030        2.37660
C          1.84920       -4.29710        5.61030
C          2.63230       -5.60270        5.57520
C          0.38930        4.30140        3.86630
C          0.64110        5.69700        3.31180
C         -2.87520        0.94500        8.05780
C         -3.80930       -1.74670        5.39540
H         -4.87620        4.92670        4.99380
H         -3.76410        4.87660        3.60210
H         -3.46640        3.82740        5.01860
H         -2.24310       -5.74930        8.69940
H         -1.90720       -4.21480        7.84490
H         -2.73040       -4.19810        9.43100
H          5.05480       -1.79440        0.17530
H          4.68610       -0.06240        0.38120
H          3.62740       -1.29240        1.12750
H          3.22400       -3.29230        6.95760
H          3.55710       -3.06750        5.23970
H          1.40920       -4.10100        4.63010
H          1.03380       -4.37860        6.32970
H          3.43830       -5.54920        4.84660
H          1.97940       -6.42810        5.30430
H          3.06440       -5.81510        6.55050
H         -3.39010        1.80030        7.62150
H         -2.46170        1.22780        9.03130
H         -3.58820        0.12580        8.19550
H         -3.69730       -2.63790        6.01230
H         -4.23300       -2.03010        4.42580
H         -4.48660       -1.04570        5.89360
H          0.34570        6.45160        4.03610
H          0.06770        5.85380        2.40100
H          1.69530        5.83500        3.08240
H          0.94600        4.16250        4.79580
H         -0.67110        4.18350        4.09360
H          0.33050        3.37880        1.90300
H          1.89970        3.33140        2.70300
