156
energy: -130.265278472733 gnorm: 0.000376113410 xtb: 6.7.1 (edcfbbe)_energy: -130.265278472733 gnorm: 0.000376113410 xtb: 6.7.1 (edcfbbe)
C          0.82910        3.22690       -3.38500
C          2.76070       -3.12100       -0.26970
C         -3.39550        0.60110       -2.33710
C         -2.36450       -0.05140       -1.68540
C         -1.04190        0.45870       -1.76880
C         -0.75890        1.51030       -2.67020
C         -1.81350        2.14440       -3.32280
C         -3.10540        1.71240       -3.11330
C          0.04050       -0.10150       -1.02610
C          1.33750        0.02240       -1.59220
C          1.58870        1.03550       -2.54540
N          0.55670        1.89600       -2.88000
C         -0.05070       -0.76240        0.23600
C          0.96020       -1.69060        0.57730
N          2.03710       -1.86610       -0.28060
C          2.35800       -0.86950       -1.18940
C          3.63430       -0.71090       -1.71610
C          3.85260        0.26370       -2.67440
C          2.86000        1.12200       -3.10280
C         -1.06440       -0.45960        1.18130
C         -1.16190       -1.20660        2.34180
C         -0.22470       -2.19100        2.59720
C          0.85540       -2.41100        1.76370
O         -1.86170        0.60620        0.89470
O         -2.51650       -1.21430       -0.99120
S         -4.49050        2.61890       -3.86860
S         -0.39580       -3.24200        4.07210
S          5.52740        0.39750       -3.38140
O          5.42410        1.49260       -4.32840
O          5.47900       -1.04200       -4.24850
C          4.66110       -1.04620       -5.38810
O         -3.84700        3.67280       -4.63230
O         -5.05520        3.29560       -2.43440
C         -4.23990        4.28160       -1.86080
O         -1.62840       -2.78650        4.68970
O         -0.73170       -4.66100        3.22970
C         -1.97030       -4.70220        2.57440
H         -4.42090        0.27940       -2.25620
H         -1.67270        2.97160       -3.99790
H         -1.94240       -1.05610        3.07020
H          1.58620       -3.14660        2.05390
H          4.46580       -1.32410       -1.40850
H          3.11850        1.83030       -3.87340
C          1.84920       -4.29710       -0.63970
C          2.63230       -5.60270       -0.67480
C          0.38930        4.30140       -2.38370
C          0.64110        5.69700       -2.93820
C         -2.87520        0.94500        1.80780
C         -3.80930       -1.74670       -0.85460
H         -4.87620        4.92670       -1.25620
H         -3.76410        4.87660       -2.64790
H         -3.46640        3.82740       -1.23140
H         -2.24310       -5.74930        2.44940
H         -1.90720       -4.21480        1.59490
H         -2.73040       -4.19810        3.18100
H          5.05480       -1.79440       -6.07470
H          4.68610       -0.06240       -5.86880
H          3.62740       -1.29240       -5.12250
H          3.22400       -3.29230        0.70760
H          3.55710       -3.06750       -1.01030
H          1.40920       -4.10100       -1.61990
H          1.03380       -4.37860        0.07970
H          3.43830       -5.54920       -1.40340
H          1.97940       -6.42810       -0.94570
H          3.06440       -5.81510        0.30050
H         -3.39010        1.80030        1.37150
H         -2.46170        1.22780        2.78130
H         -3.58820        0.12580        1.94550
H         -3.69730       -2.63790       -0.23770
H         -4.23300       -2.03010       -1.82420
H         -4.48660       -1.04570       -0.35640
H          0.34570        6.45160       -2.21390
H          0.06770        5.85380       -3.84900
H          1.69530        5.83500       -3.16760
H          0.94600        4.16250       -1.45420
H         -0.67110        4.18350       -2.15640
H          0.33050        3.37880       -4.34700
H          1.89970        3.33140       -3.54700
C          0.82910        3.22690        1.11500
C          2.76070       -3.12100        4.23030
C         -3.39550        0.60110        2.16290
C         -2.36450       -0.05140        2.81460
C         -1.04190        0.45870        2.73120
C         -0.75890        1.51030        1.82980
C         -1.81350        2.14440        1.17720
C         -3.10540        1.71240        1.38670
C          0.04050       -0.10150        3.47390
C          1.33750        0.02240        2.90780
C          1.58870        1.03550        1.95460
N          0.55670        1.89600        1.62000
C         -0.05070       -0.76240        4.73600
C          0.96020       -1.69060        5.07730
N          2.03710       -1.86610        4.21940
C          2.35800       -0.86950        3.31060
C          3.63430       -0.71090        2.78390
C          3.85260        0.26370        1.82560
C          2.86000        1.12200        1.39720
C         -1.06440       -0.45960        5.68130
C         -1.16190       -1.20660        6.84180
C         -0.22470       -2.19100        7.09720
C          0.85540       -2.41100        6.26370
O         -1.86170        0.60620        5.39470
O         -2.51650       -1.21430        3.50880
S         -4.49050        2.61890        0.63140
S         -0.39580       -3.24200        8.57210
S          5.52740        0.39750        1.11860
O          5.42410        1.49260        0.17160
O          5.47900       -1.04200        0.25150
C          4.66110       -1.04620       -0.88810
O         -3.84700        3.67280       -0.13230
O         -5.05520        3.29560        2.06560
C         -4.23990        4.28160        2.63920
O         -1.62840       -2.78650        9.18970
O         -0.73170       -4.66100        7.72970
C         -1.97030       -4.70220        7.07440
H         -4.42090        0.27940        2.24380
H         -1.67270        2.97160        0.50210
H         -1.94240       -1.05610        7.57020
H          1.58620       -3.14660        6.55390
H          4.46580       -1.32410        3.09150
H          3.11850        1.83030        0.62660
C          1.84920       -4.29710        3.86030
C          2.63230       -5.60270        3.82520
C          0.38930        4.30140        2.11630
C          0.64110        5.69700        1.56180
C         -2.87520        0.94500        6.30780
C         -3.80930       -1.74670        3.64540
H         -4.87620        4.92670        3.24380
H         -3.76410        4.87660        1.85210
H         -3.46640        3.82740        3.26860
H         -2.24310       -5.74930        6.94940
H         -1.90720       -4.21480        6.09490
H         -2.73040       -4.19810        7.68100
H          5.05480       -1.79440       -1.57470
H          4.68610       -0.06240       -1.36880
H          3.62740       -1.29240       -0.62250
H          3.22400       -3.29230        5.20760
H          3.55710       -3.06750        3.48970
H          1.40920       -4.10100        2.88010
H          1.03380       -4.37860        4.57970
H          3.43830       -5.54920        3.09660
H          1.97940       -6.42810        3.55430
H          3.06440       -5.81510        4.80050
H         -3.39010        1.80030        5.87150
H         -2.46170        1.22780        7.28130
H         -3.58820        0.12580        6.44550
H         -3.69730       -2.63790        4.26230
H         -4.23300       -2.03010        2.67580
H         -4.48660       -1.04570        4.14360
H          0.34570        6.45160        2.28610
H          0.06770        5.85380        0.65100
H          1.69530        5.83500        1.33240
H          0.94600        4.16250        3.04580
H         -0.67110        4.18350        2.34360
H          0.33050        3.37880        0.15300
H          1.89970        3.33140        0.95300
