116
 energy: -22.928061455056 gnorm: 0.329736929581 xtb: 6.6.1 (8d0f1dd)
C           -3.31122850772930        0.79849766164622       -0.92477639677520
C           -2.44380812530352       -0.12270372891954       -0.27661132624697
C           -1.41337090092821        0.39579727573559        0.56335275196199
C           -0.89266158675590        1.65801491088749        0.27377586709581
C           -1.72665675402493        2.51431363229076       -0.49448366572522
C           -2.95444148494349        2.13954154133227       -1.01494489940871
C           -0.74098268209890       -0.43411532818871        1.49825021926784
C            0.56872586496315        0.03782116815119        1.86248088067890
C            1.03782416582094        1.29402317993033        1.50887470833621
N            0.31238977034758        2.07067427098208        0.65193736800696
C           -1.29695700510141       -1.39996043042223        2.41574187746061
C           -0.38243517664656       -2.18060797534842        3.13232615520648
N            0.91308504082021       -1.90366887689689        3.30325166013478
C            1.37712470144904       -0.74872102533751        2.81811050966982
C            2.52149331701875       -0.17739833758153        3.39379298866852
C            2.95849061756259        1.02681208890480        2.95105897606587
C            2.24288949469137        1.78498308775960        2.03503020483770
C           -2.74860936222260       -1.74497937691422        2.38401158947411
C           -3.09416315450955       -2.91614440870436        3.00571134491758
C           -2.16786021984049       -3.77788778654213        3.63251872101904
C           -0.85708937311598       -3.40495313382985        3.68547234358092
O           -3.71994433332149       -0.94984598373544        1.67726658385724
O           -2.55702603277562       -1.47241711578389       -0.57241635275616
C           -3.84297843593025        3.13357444054366       -1.60938954875544
C           -2.68769581069131       -5.03867041417370        4.30484659386931
H           -1.39666850744143        3.51251503834900       -0.76806311868865
H           -4.27662633836220        0.55105838579656       -1.33106614114542
H            2.66329581305412        2.73912661909249        1.72562431984580
H            3.05775395548473       -0.69369546277216        4.16536137542516
H           -0.24710966264510       -4.12034095424229        4.22946223699121
H           -4.11477991332403       -3.04712728052358        3.03244694615357
O           -4.21824883374556        4.03433712717988       -0.87713382485991
O           -4.44510595673734        2.90643496899600       -2.81853501752979
C           -5.44216520282800        3.83300025693726       -3.02488532025093
C            4.23586651889298        1.50004220933226        3.59165660008449
O            5.05927614697201        0.66079890002952        3.91714215179376
O            4.47001334453535        2.86385149488593        3.72605651435371
C            5.79457498613219        3.08584475587818        4.15829123132174
O           -3.82227255313510       -5.27347675879771        4.16636005494405
O           -1.85023202017753       -5.79767454267276        5.06656077253571
C           -2.55119635829503       -6.86252441382958        5.62930343183426
C           -5.07197156564436       -1.42399175670916        1.58830531863830
C           -1.33089900128490       -2.23622472573986       -0.99264499351172
H           -2.54510546830388       -7.76426885143998        4.99136022291012
H           -3.57194749219491       -6.44405511486021        5.74196173723541
H           -2.09133598235598       -7.02043774843818        6.64022264233588
H            5.72707967266424        3.46798026205549        5.10135971236643
H            6.34060091246885        3.78468702308830        3.50069950143490
H            6.17933064298187        2.03010500085905        4.19342358084693
H           -0.91862729772622       -2.57650129080332       -0.01361370304871
H           -0.49769766914251       -1.60651221708571       -1.34094446550576
H           -1.52632419730509       -2.94569707152159       -1.75361447637286
H           -5.11788846557077       -2.41810833635233        1.17520213188926
H           -5.67929807973498       -0.69619639428435        1.04301666067831
H           -5.57598832326623       -1.42383358739762        2.57928294206544
H           -6.13050215934830        3.76035386975488       -2.23272855695873
H           -5.86615610071888        3.45938329385866       -4.02668959924245
H           -5.13479557532099        4.87790991548477       -2.98314551356402
C           -1.38192942069774        3.73616555005018        2.91232598411686
C           -1.84821468128685        2.59982427735607        3.49755545445181
C           -1.05946531454833        2.05730632010638        4.60922730982276
C            0.19893954712228        2.69376791964407        4.86302140881997
C            0.50425395911860        3.94630308659851        4.28768785650746
C           -0.26031777722226        4.46998310053134        3.25072669343212
C           -1.20488993561782        0.74454293276906        5.14851520323437
C           -0.06287609782692        0.02744069315890        5.60930570802864
C            1.19208754369866        0.71421540266195        5.78882868583885
N            1.19428660993148        2.06344359410476        5.62744624321596
C           -2.41361422770794        0.07928500213936        5.25249410304426
C           -2.45851584031083       -1.32662100968547        5.60237876023992
N           -1.29466212405906       -1.98318595734370        5.89916817085159
C           -0.14475655767527       -1.32117560077092        5.98824682881008
C            0.97209270935794       -1.98958449505532        6.53157704134458
C            2.21982707914082       -1.36973967291181        6.68703967237737
C            2.30561929262884       -0.09745313075593        6.26436900324455
C           -3.73018485967715        0.71367583494582        5.25810242262992
C           -4.89964478833448       -0.06184623426677        5.21204641615509
C           -4.82617965800088       -1.39228978090841        5.46901303780036
C           -3.67144193418464       -1.98914944386360        5.67265433266067
O           -3.75568638935321        2.07705011038914        5.52067969627343
O           -2.94192434743730        1.91263938797883        3.01658762327703
C            0.21273512614467        5.50086066357994        2.34765104514621
C           -6.06660304520411       -2.17604633098929        5.80641622556876
H            1.41756699010566        4.38133362238595        4.66974005703471
H           -1.82880610647429        4.11982501512100        2.06992133318584
H            3.26888037378556        0.32655662585251        6.31721410015598
H            0.87146188387207       -3.08471526305024        6.57830423410869
H           -3.67716811065157       -3.05999292755990        5.83019634570050
H           -5.77379677507622        0.43595144608221        4.71017130754348
O            1.34459852619901        5.82615848916894        2.44941456579099
O           -0.74718748219123        6.07961784856304        1.59848183464284
C           -0.21473095568964        7.24015934882472        1.05753806029483
C            3.53228080814219       -2.00967610361154        7.02506769044485
O            3.64093082622715       -3.14437803815732        7.50071391725347
O            4.56565258381079       -1.22937033368332        6.69086985080897
C            5.72579357310716       -1.80692399125161        7.22246151275881
O           -7.04801223588612       -1.95726935745904        5.14194115322235
O           -6.01514389321278       -2.93743591896022        6.94765316328794
C           -7.21292732384718       -3.62681918543340        7.15115816329978
C           -4.95459780685163        2.65960679932188        5.86868674392943
C           -3.68284113682406        2.59129188358641        2.05479246020704
H           -7.43119628931628       -4.22607794725959        6.20622607140901
H           -8.06548455146707       -2.91765848248592        7.29781126410398
H           -7.07314693247270       -4.33087306029711        7.91223421050944
H            6.57332189837178       -1.29353136199234        6.78341268688262
H            5.74663761932316       -2.84282155125561        6.88089468184451
H            5.69426191474290       -1.72781984964892        8.29460302186842
H           -4.10481209541493        3.44288266176275        2.60483747673152
H           -4.49244774344916        1.87419893016926        1.82433103764650
H           -3.18901540870812        2.85154642679373        1.06781919454921
H           -5.55414326821421        2.76698137191684        4.93950725322359
H           -4.78658370641210        3.62090640967288        6.25983200635257
H           -5.43485580473958        1.97242995129449        6.65265772412460
H            0.89164886030839        7.38838561720231        1.13776105146914
H           -0.62894889903848        8.04195665205089        1.64837664327952
H           -0.59282546386754        7.45699159724320        0.03719083132488
116
 energy: -22.710362719946 gnorm: 0.492480311513 xtb: 6.6.1 (8d0f1dd)
C           -2.78269828025781        0.02367227997981       -1.63065594593901
C           -2.32750171804979       -0.82011272958018       -0.63943907819513
C           -1.28784062469706       -0.28868134166388        0.17228309091374
C           -0.90462686838036        1.04863114801543       -0.07786706932496
C           -1.46981626999786        1.96686331549289       -1.02214410461980
C           -2.47687923462067        1.44822255661402       -1.77717714933896
C           -0.37489594078293       -1.03933517324741        1.15883807346802
C            0.86846216880479       -0.50141686663863        1.38321555234115
C            1.24776457540209        0.85407937792762        1.06553777388801
N            0.30505320897927        1.59113712465991        0.38906719680697
C           -0.84979205877239       -2.03248440218081        1.96837204019428
C            0.16107053686831       -2.77909303117239        2.68369682197628
N            1.40706944596355       -2.31040276745133        2.82097102868595
C            1.75644338068243       -1.15337028834764        2.27361637637148
C            3.07566369230975       -0.58712575663463        2.56036527430467
C            3.38537683538005        0.69426756111188        2.10196441866678
C            2.48439315314291        1.40896588525395        1.39904648210211
C           -2.18221767849850       -2.18047981392028        2.20679274553055
C           -2.62346599511319       -3.23697353300639        3.01128610289555
C           -1.63884865137735       -4.06686323925714        3.64225630652381
C           -0.23814753553085       -3.87337434555737        3.42349922932547
O           -3.01198836493485       -1.09390175085389        1.81650281957987
O           -2.76058363179798       -2.26273410560500       -0.69815050484161
C           -3.12395004851563        2.19025367830839       -2.81001602268019
C           -1.70678754596221       -4.76985555014986        5.02909631356976
H           -0.86486321909089        2.83033613376668       -1.52133800684402
H           -3.40814595174850       -0.36290829598358       -2.42496456884571
H            2.54251597838201        2.43217630020716        1.31329433647360
H            3.49981177938839       -0.98906160852274        3.44745112619520
H            0.53299191045130       -4.36673520395003        3.83734667030059
H           -3.61830846766826       -3.14120551606165        3.27047732022992
O           -3.38142999965197        3.34768912971805       -2.63249505158322
O           -3.61887152765688        1.50278082485141       -3.91330064723244
C           -4.19274905320662        2.21417287518644       -4.99244579381390
C            4.49742568185808        1.39592262277705        2.71618570122897
O            5.43826973595166        0.76306176700774        3.16484653125607
O            4.55636337159634        2.77160673860930        2.64576510121322
C            5.49223888881110        3.37768625836600        3.60498032654313
O           -0.61741449929108       -5.18794358269095        5.51427290054256
O           -2.91204273143425       -4.94759487723060        5.53029196019500
C           -2.91330214293636       -5.46836482479583        6.79313188210286
C           -4.28098812536905       -1.12023056746737        2.38544801932589
C           -1.69357906809313       -3.14796535567208       -1.08586862511455
H           -2.03852388594069       -4.86213740569449        7.27896861950112
H           -2.67314170099847       -6.49537302536777        6.73027630516713
H           -3.88488851092079       -5.45457234723430        7.47697081168305
H            4.92037629020159        3.83233975152095        4.38530993067824
H            5.86813482606267        4.26406807251478        3.02426663174122
H            6.09381254077474        2.58708927746587        4.05248670582943
H           -2.17991221963493       -4.10500192822252       -1.35319892691546
H           -0.82166630503824       -3.04570109927023       -0.39881194279877
H           -1.24713282416287       -2.70547985163313       -2.03606644719437
H           -4.52286328768928       -2.09559474616640        2.81917529739499
H           -5.04518187071018       -0.70207309590195        1.70308353062336
H           -4.16510197714654       -0.41095552621044        3.11921906056218
H           -4.60008264266523        3.26066366539510       -4.65215273704806
H           -4.79137079289004        1.58440205044272       -5.61189189962813
H           -3.29277798854512        2.50330497140471       -5.56607384888750
C           -1.99877515654900        4.38171121799753        4.16796807728303
C           -2.20806950738715        3.09883970064579        4.58426816050911
C           -1.30153670646393        2.46364438968885        5.40942180168575
C            0.03363550131786        2.90030497838955        5.33368162004673
C            0.32698206228396        4.22333267009606        4.88112695202236
C           -0.74318237162797        4.96452647840772        4.36106547310692
C           -1.49412364295377        1.24144930611071        6.02290007981116
C           -0.40722715955917        0.36031093703151        6.09510466228853
C            0.88878310525616        0.89423922307262        5.95349977951043
N            1.16421675326936        2.13805500209124        5.59933894571193
C           -2.72490606178694        0.57922159232482        6.39980584853524
C           -2.77486183040968       -0.80592283329787        6.24411323909622
N           -1.78492498018011       -1.64251279289787        6.39046091655322
C           -0.53240294408911       -1.06005564760387        6.50857824016278
C            0.64020186095004       -1.85578468224789        6.62096775697956
C            1.90540380305615       -1.24706022846635        6.53987215939465
C            1.98765613779864        0.08731626392292        6.26688082932174
C           -3.97747409232338        1.26930856082711        6.73467896391529
C           -5.15632801141548        0.53579096904111        6.32907164042664
C           -5.14975496751236       -0.81794504546356        6.01375484472004
C           -4.05088729669678       -1.51449154255267        6.18196641028605
O           -3.75298727979026        2.60477353418433        7.13411836924409
O           -3.06601277795713        2.14330056581641        4.02271289475099
C           -0.67084858486214        6.39031729651145        3.87981487827329
C           -6.40975367549288       -1.44587547605222        5.58592161586336
H            1.34144494689790        4.52503197276444        5.01257772218173
H           -2.78028705222919        4.71286940437095        3.63840875230788
H            2.97849312618158        0.43586477334064        6.06733605306994
H            0.73235627063218       -2.94245455346863        6.67925815631234
H           -4.07118080185981       -2.59549940568528        5.91681990878089
H           -6.04026042196871        1.21579554018358        6.38996553309377
O            0.38458751657397        6.97848298634345        4.12764118581988
O           -1.55736866941992        6.95623419965223        3.15079225538458
C           -1.24574397167494        8.22794379229029        2.74520735347439
C            3.05832734524890       -2.19458615641185        6.61316248359721
O            3.10270986857301       -3.17113181544111        7.37345198077998
O            3.94109520008461       -1.95752886597723        5.50464177720080
C            4.35309325554213       -3.19145235017880        5.10319855115099
O           -7.40562813363928       -1.34610770057573        6.27968466168424
O           -6.42839751815948       -2.27378325775423        4.51069769270536
C           -7.62710083909155       -2.94020474205157        4.07929633642332
C           -4.74475472526604        3.61342971470331        7.44065177500002
C           -3.43199190423307        2.16012319094171        2.73457225739936
H           -7.65269006393221       -3.96792495105437        4.62747310742225
H           -7.94171374009361       -3.08003847137006        3.06913870561224
H           -8.38863977170222       -2.11325607806885        4.49556327151694
H            5.27311800836404       -3.11090700252671        4.43581358305354
H            3.58199921172918       -3.72067997355540        4.51397983500958
H            4.54539469996210       -3.75638561186852        6.05097740382577
H           -4.35903607792380        2.91923335454160        2.67773015302217
H           -3.98765509781486        1.33058859128863        2.40031820864293
H           -2.49756410066404        2.38396560811698        2.16769530653417
H           -4.55682430039219        4.62621613008634        7.20832443486155
H           -5.18739263613892        3.38251649758354        8.43321388608946
H           -5.62496048294205        3.60735222492218        6.69278158797345
H           -1.50317760882791        8.43026163683790        1.65191377481470
H           -0.02587372078231        8.26137673447020        2.68194182016197
H           -1.86814082724425        8.91801583685664        3.44922976391603
116
 energy: -22.723153621144 gnorm: 0.502871862927 xtb: 6.6.1 (8d0f1dd)
C           -2.74431873380360       -0.64190468982969       -1.71869544761611
C           -2.25540679132808       -0.94342003616353       -0.46088151154839
C           -1.31036223822821        0.10657356880405        0.17597720783506
C           -0.80970797400447        1.09829954689978       -0.63014074174494
C           -1.40709477885986        1.29869141309648       -1.91042615718360
C           -2.21029391373963        0.39423336991251       -2.48190499499414
C           -0.70672955446605       -0.12328632696168        1.45889628894708
C            0.55804824312071        0.35942575282979        1.56069226181403
C            0.93274990218735        1.39304591557638        0.74929256872877
N            0.25978440380535        1.88565223807378       -0.29454946015445
C           -1.19739567021215       -0.93551553404289        2.56021274193052
C           -0.19932689415420       -1.75369479544531        3.11930524320094
N            1.08181931231029       -1.35522613663861        3.33622905310433
C            1.41364265862323       -0.18197284253554        2.64151455978751
C            2.63299499663761        0.50852932252790        2.79931894432795
C            3.07936795371062        1.49510631567406        1.94743105243545
C            2.17834706936370        2.00870470608555        0.95577855903558
C           -2.58588142173426       -1.42160712202083        2.54604148229064
C           -2.91382042385555       -2.79163730187883        2.99738658732469
C           -1.89382261289171       -3.62075641785338        3.42824782967233
C           -0.59248360219882       -3.08273945490798        3.45457533514270
O           -3.55796872340555       -0.56233064949071        1.98838970029437
O           -2.45603134536054       -2.28558747306552       -0.01592607126322
C           -3.22248823122941        0.88735042392165       -3.50838539560962
C           -2.18296569268505       -5.02905795886462        4.00122571058393
H           -1.12184030293911        2.38321152039775       -2.24334598432648
H           -3.75435727676384       -1.00081207424539       -2.00564017223234
H            2.43335598257828        2.99795013663936        0.55781101041874
H            2.92522769720263        0.53747217282530        3.81325643037340
H            0.19099649519445       -3.50882674682355        3.93831375090772
H           -3.87673350711643       -2.97209731105371        3.22605080987260
O           -2.85298858680601        1.78249291395305       -4.33791333109030
O           -4.44867005501534        0.34116340554285       -3.27801273065446
C           -5.43929571931990        0.53665203091915       -4.32609548124644
C            4.40990238655060        2.14583907259959        1.93799143841842
O            5.24060851617969        1.91882062728777        2.81368245906922
O            4.61780883226989        2.84367279979611        0.87559366132186
C            5.91219782740087        3.23219182918407        0.79265761666538
O           -1.55898520400119       -5.95808089677888        3.53116470223865
O           -3.10042252269356       -4.95470039096293        5.06390644259553
C           -3.41151132494907       -6.28307541984409        5.64084385789791
C           -4.69197923806309       -1.23853363740796        1.59178496692330
C           -1.33432290712387       -3.01497383839650        0.04863748814163
H           -2.66803099228299       -6.35702700901474        6.45138636130696
H           -3.20140969337750       -7.08623851807265        4.87839195752599
H           -4.38927109756628       -6.21898635077444        5.96553451103915
H            6.13868249913073        4.30583156068813        0.96390467532118
H            6.18515194769563        3.07592231280429       -0.29725143537291
H            6.52797618752978        2.42396862535149        1.49658933312387
H           -1.41196826568514       -3.92813921653281        0.56735910083305
H           -0.69779259598992       -2.57207552420614        0.84695368329522
H           -0.75604291196886       -2.74058552205331       -0.84973220617366
H           -5.29667694783254       -1.21335093598326        2.49222884698548
H           -4.68321464382261       -2.30405304800206        1.36311799331781
H           -5.28068564807215       -0.71660344849693        0.80766696983125
H           -5.86712659959843        1.49619548245786       -4.32951775532960
H           -6.17509951642053       -0.33076299151124       -4.26750568024810
H           -4.93337237317092        0.36140372984340       -5.24619867896253
C           -1.53555608496881        4.49969542440282        4.13779791161601
C           -1.74828485490867        3.10919141358762        4.15973237138434
C           -0.88226826770203        2.26337546767372        4.96300302061477
C            0.51955401850586        2.70040047466496        5.14712398167801
C            0.79545741237673        4.07658487349315        5.03873817278323
C           -0.28167411913649        4.92605851349066        4.64665455379573
C           -1.22530286227032        0.90356761127845        5.38151233360399
C           -0.18901677323430        0.09164377028381        5.91332094383323
C            1.13731641427420        0.65509309982322        6.12819285521011
N            1.48344417736198        1.89462039072580        5.73345109265633
C           -2.53439085631245        0.32796941605334        5.64902727901351
C           -2.59833463403949       -1.06623833139579        5.82164359631999
N           -1.60808830430251       -1.82456907151958        6.25389401470229
C           -0.32112178877434       -1.30316352014515        6.32994258373257
C            0.62529516134347       -1.98391031854627        7.13511435385927
C            1.89993921338324       -1.35181375016602        7.33096053687171
C            2.13744931339280       -0.12042776677725        6.69874746239720
C           -3.72330901571541        1.07217478334175        6.00626034589549
C           -4.98561954961019        0.39297089513328        5.96637981933978
C           -5.04372072598570       -0.99481969069117        5.79483993318822
C           -3.83436347826068       -1.76841857277137        5.60943141691417
O           -3.62480963081824        2.45269520192264        6.39355438523033
O           -2.89021847800376        2.77030617884697        3.62837351443411
C           -0.03610832930384        6.32821873439056        4.81643906113261
C           -6.34368959038936       -1.61755756582302        5.43172463016539
H            1.69542956346452        4.40267731416994        5.34125807476857
H           -2.18562107046425        5.28899696082389        3.77036652323239
H            3.14756500284061        0.30206050033925        6.69967529820250
H            0.48410344803825       -3.02929841617241        7.31863865645827
H           -3.78286160554063       -2.82437835763731        5.55893895937173
H           -5.99870739497905        0.85444395496573        6.17371180027014
O            1.04554534481229        6.65210013621311        5.14046059201432
O           -1.07966868670330        7.23231187565687        4.81333064151096
C           -0.65745675109362        8.32695203031413        5.65224683119594
C            2.99334916473953       -2.33892114583463        7.64682845665839
O            2.83891647385721       -3.63133610682418        7.59438203507156
O            4.14413164113904       -1.76634540372580        8.23265290242592
C            5.12984413925369       -2.76197387833614        8.31943819441887
O           -6.29218781108910       -2.69842880834892        4.91547227202259
O           -7.57912040628293       -0.99120459203006        5.77421050019837
C           -8.61781211075393       -1.60064893277474        5.21840863130995
C           -4.82133523856631        3.16873342794055        6.03814011716597
C           -2.86574306913720        2.33160680384806        2.35893496223873
H           -9.47011058348624       -1.40669486991977        6.03508272263151
H           -8.38726331761603       -2.67891633025099        5.15005574050297
H           -8.67160818703651       -1.20654818031429        4.15195784941305
H            5.96655375162411       -2.27042280908154        8.72972551793285
H            5.22158785152647       -3.19460079959241        7.27324652081158
H            4.77221003951489       -3.54779947972299        8.98920169580124
H           -2.60169272911800        1.19035601384032        2.34482738828684
H           -1.93018501293254        2.56849439236510        1.89523292182818
H           -3.63831725723564        2.64335272730524        1.65501035559813
H           -4.58854576592254        4.14012658381717        6.24540693957708
H           -5.76761840892421        2.88718631315362        6.40796392022645
H           -4.69743697106022        3.22197767462835        4.92674802598920
H           -1.39511242684989        8.18854003021130        6.59469682569884
H           -0.85859400171803        9.23424780657129        5.05825650241539
H            0.41772771047034        8.07600662238378        5.88811115131004
116
 energy: -22.725059598450 gnorm: 0.482216100174 xtb: 6.6.1 (8d0f1dd)
C           -3.21440994488111       -0.85221740265736       -2.72596781075185
C           -2.48412388778121       -1.44810585580185       -1.73415280382436
C           -1.61935601729606       -0.77649615224489       -0.78985928039090
C           -1.55327930131072        0.58060286779123       -1.14141597966460
C           -2.35848549082549        1.19253277654506       -2.04965658574817
C           -3.28006475536307        0.48592521622027       -2.92025790383632
C           -0.73691199721052       -1.26910179200758        0.35960760108702
C            0.42968805200052       -0.44478904245091        0.60722192766360
C            0.42987188199406        0.88867432437240        0.17766056752669
N           -0.50410673223526        1.40308505913575       -0.68945311666769
C           -1.14115518091001       -2.03546282479341        1.42960362318079
C           -0.12680943888319       -2.55876589320029        2.19169893034984
N            1.19292385043435       -2.01856836290706        2.20735409257805
C            1.31311037557631       -0.83427922599041        1.71731219795726
C            2.37508944178167        0.00756681000772        2.01906284906472
C            2.51164305869698        1.22954683406739        1.26572954972492
C            1.51508328633229        1.71722891202998        0.51577473217575
C           -2.61989693260490       -2.29310769893163        1.71018728093654
C           -2.94527439411846       -3.04273335458777        2.86924093365506
C           -1.85847339194543       -3.64972841561834        3.57036225250339
C           -0.50748020641052       -3.42264177648081        3.21842671839023
O           -3.63822868509212       -1.76027361120905        0.88605176461037
O           -2.92061548762326       -2.75335908296489       -1.47013977488217
C           -4.16571728498813        1.22030643752066       -3.96206244262791
C           -2.11846909402699       -4.58823090845208        4.71674290303739
H           -2.27840559441975        2.23952143302906       -2.36831405970434
H           -3.70398990151651       -1.54983378047037       -3.32468339596947
H            1.41918876500935        2.77158220735662        0.38649414707200
H            3.15419795185437       -0.35170112020788        2.75235454405319
H            0.17187174721497       -3.82485962783775        3.88715875630533
H           -3.89541066096205       -3.23662605344313        3.19925261396092
O           -3.80984804060334        2.33515174035857       -4.04481294125735