116
 energy: -22.928061455056 gnorm: 0.329736929581 xtb: 6.6.1 (8d0f1dd)
C           -3.31122850772930        0.79849766164622       -0.92477639677520
C           -2.44380812530352       -0.12270372891954       -0.27661132624697
C           -1.41337090092821        0.39579727573559        0.56335275196199
C           -0.89266158675590        1.65801491088749        0.27377586709581
C           -1.72665675402493        2.51431363229076       -0.49448366572522
C           -2.95444148494349        2.13954154133227       -1.01494489940871
C           -0.74098268209890       -0.43411532818871        1.49825021926784
C            0.56872586496315        0.03782116815119        1.86248088067890
C            1.03782416582094        1.29402317993033        1.50887470833621
N            0.31238977034758        2.07067427098208        0.65193736800696
C           -1.29695700510141       -1.39996043042223        2.41574187746061
C           -0.38243517664656       -2.18060797534842        3.13232615520648
N            0.91308504082021       -1.90366887689689        3.30325166013478
C            1.37712470144904       -0.74872102533751        2.81811050966982
C            2.52149331701875       -0.17739833758153        3.39379298866852
C            2.95849061756259        1.02681208890480        2.95105897606587
C            2.24288949469137        1.78498308775960        2.03503020483770
C           -2.74860936222260       -1.74497937691422        2.38401158947411
C           -3.09416315450955       -2.91614440870436        3.00571134491758
C           -2.16786021984049       -3.77788778654213        3.63251872101904
C           -0.85708937311598       -3.40495313382985        3.68547234358092
O           -3.71994433332149       -0.94984598373544        1.67726658385724
O           -2.55702603277562       -1.47241711578389       -0.57241635275616
C           -3.84297843593025        3.13357444054366       -1.60938954875544
C           -2.68769581069131       -5.03867041417370        4.30484659386931
H           -1.39666850744143        3.51251503834900       -0.76806311868865
H           -4.27662633836220        0.55105838579656       -1.33106614114542
H            2.66329581305412        2.73912661909249        1.72562431984580
H            3.05775395548473       -0.69369546277216        4.16536137542516
H           -0.24710966264510       -4.12034095424229        4.22946223699121
H           -4.11477991332403       -3.04712728052358        3.03244694615357
O           -4.21824883374556        4.03433712717988       -0.87713382485991
O           -4.44510595673734        2.90643496899600       -2.81853501752979
C           -5.44216520282800        3.83300025693726       -3.02488532025093
C            4.23586651889298        1.50004220933226        3.59165660008449
O            5.05927614697201        0.66079890002952        3.91714215179376
O            4.47001334453535        2.86385149488593        3.72605651435371
C            5.79457498613219        3.08584475587818        4.15829123132174
O           -3.82227255313510       -5.27347675879771        4.16636005494405
O           -1.85023202017753       -5.79767454267276        5.06656077253571
C           -2.55119635829503       -6.86252441382958        5.62930343183426
C           -5.07197156564436       -1.42399175670916        1.58830531863830
C           -1.33089900128490       -2.23622472573986       -0.99264499351172
H           -2.54510546830388       -7.76426885143998        4.99136022291012
H           -3.57194749219491       -6.44405511486021        5.74196173723541
H           -2.09133598235598       -7.02043774843818        6.64022264233588
H            5.72707967266424        3.46798026205549        5.10135971236643
H            6.34060091246885        3.78468702308830        3.50069950143490
H            6.17933064298187        2.03010500085905        4.19342358084693
H           -0.91862729772622       -2.57650129080332       -0.01361370304871
H           -0.49769766914251       -1.60651221708571       -1.34094446550576
H           -1.52632419730509       -2.94569707152159       -1.75361447637286
H           -5.11788846557077       -2.41810833635233        1.17520213188926
H           -5.67929807973498       -0.69619639428435        1.04301666067831
H           -5.57598832326623       -1.42383358739762        2.57928294206544
H           -6.13050215934830        3.76035386975488       -2.23272855695873
H           -5.86615610071888        3.45938329385866       -4.02668959924245
H           -5.13479557532099        4.87790991548477       -2.98314551356402
C           -1.38192942069774        3.73616555005018        2.91232598411686
C           -1.84821468128685        2.59982427735607        3.49755545445181
C           -1.05946531454833        2.05730632010638        4.60922730982276
C            0.19893954712228        2.69376791964407        4.86302140881997
C            0.50425395911860        3.94630308659851        4.28768785650746
C           -0.26031777722226        4.46998310053134        3.25072669343212
C           -1.20488993561782        0.74454293276906        5.14851520323437
C           -0.06287609782692        0.02744069315890        5.60930570802864
C            1.19208754369866        0.71421540266195        5.78882868583885
N            1.19428660993148        2.06344359410476        5.62744624321596
C           -2.41361422770794        0.07928500213936        5.25249410304426
C           -2.45851584031083       -1.32662100968547        5.60237876023992
N           -1.29466212405906       -1.98318595734370        5.89916817085159
C           -0.14475655767527       -1.32117560077092        5.98824682881008
C            0.97209270935794       -1.98958449505532        6.53157704134458
C            2.21982707914082       -1.36973967291181        6.68703967237737
C            2.30561929262884       -0.09745313075593        6.26436900324455
C           -3.73018485967715        0.71367583494582        5.25810242262992
C           -4.89964478833448       -0.06184623426677        5.21204641615509
C           -4.82617965800088       -1.39228978090841        5.46901303780036
C           -3.67144193418464       -1.98914944386360        5.67265433266067
O           -3.75568638935321        2.07705011038914        5.52067969627343
O           -2.94192434743730        1.91263938797883        3.01658762327703
C            0.21273512614467        5.50086066357994        2.34765104514621
C           -6.06660304520411       -2.17604633098929        5.80641622556876
H            1.41756699010566        4.38133362238595        4.66974005703471
H           -1.82880610647429        4.11982501512100        2.06992133318584
H            3.26888037378556        0.32655662585251        6.31721410015598
H            0.87146188387207       -3.08471526305024        6.57830423410869
H           -3.67716811065157       -3.05999292755990        5.83019634570050
H           -5.77379677507622        0.43595144608221        4.71017130754348
O            1.34459852619901        5.82615848916894        2.44941456579099
O           -0.74718748219123        6.07961784856304        1.59848183464284
C           -0.21473095568964        7.24015934882472        1.05753806029483
C            3.53228080814219       -2.00967610361154        7.02506769044485
O            3.64093082622715       -3.14437803815732        7.50071391725347
O            4.56565258381079       -1.22937033368332        6.69086985080897
C            5.72579357310716       -1.80692399125161        7.22246151275881
O           -7.04801223588612       -1.95726935745904        5.14194115322235
O           -6.01514389321278       -2.93743591896022        6.94765316328794
C           -7.21292732384718       -3.62681918543340        7.15115816329978
C           -4.95459780685163        2.65960679932188        5.86868674392943
C           -3.68284113682406        2.59129188358641        2.05479246020704
H           -7.43119628931628       -4.22607794725959        6.20622607140901
H           -8.06548455146707       -2.91765848248592        7.29781126410398
H           -7.07314693247270       -4.33087306029711        7.91223421050944
H            6.57332189837178       -1.29353136199234        6.78341268688262
H            5.74663761932316       -2.84282155125561        6.88089468184451
H            5.69426191474290       -1.72781984964892        8.29460302186842
H           -4.10481209541493        3.44288266176275        2.60483747673152
H           -4.49244774344916        1.87419893016926        1.82433103764650
H           -3.18901540870812        2.85154642679373        1.06781919454921
H           -5.55414326821421        2.76698137191684        4.93950725322359
H           -4.78658370641210        3.62090640967288        6.25983200635257
H           -5.43485580473958        1.97242995129449        6.65265772412460
H            0.89164886030839        7.38838561720231        1.13776105146914
H           -0.62894889903848        8.04195665205089        1.64837664327952
H           -0.59282546386754        7.45699159724320        0.03719083132488
116
 energy: -22.610724570452 gnorm: 0.547229986477 xtb: 6.6.1 (8d0f1dd)
C           -3.29351822618761        0.77339917583087       -1.47957552699005
C           -2.81551880316246       -0.04514126255468       -0.47527146669174
C           -1.68177851570763        0.39757834960170        0.35517887695389
C           -1.17147083163541        1.66833652055752        0.00135476240318
C           -1.79907442574103        2.54993389257724       -0.79394768450364
C           -2.96955639327226        2.16714278449977       -1.37303312575967
C           -1.00318049357906       -0.58562240836139        1.15415579161901
C            0.35162268804575       -0.20615379000598        1.26639813128078
C            0.80493168880667        1.16982601884138        0.99390641375668
N            0.03812664629154        2.15187733020552        0.40520514123043
C           -1.37038494799391       -1.97181007102295        1.68208798590747
C           -0.25693583076412       -2.85462155845007        2.02666704174333
N            1.02915801829774       -2.49669844247900        1.98893977659657
C            1.37234575143704       -1.12197750421123        1.80137446191900
C            2.61435632218675       -0.63925936786183        2.10379634277971
C            3.05692854298478        0.58017136889591        1.56979930970355
C            2.14593254016691        1.47331658472704        0.92081812937093
C           -2.73443013808329       -2.39554014514047        1.99691357749774
C           -3.02061602535792       -3.83927449071216        2.17768425137543
C           -1.94047749719470       -4.60338288292524        2.53003438571038
C           -0.61657788927103       -4.15885831861784        2.46115440735653
O           -3.72308421597628       -1.41160614646961        2.29648299182699
O           -3.22613467853297       -1.37822075247297       -0.65986584582311
C           -3.57322420568802        3.18457166569143       -2.26887763842954
C           -2.27689801764010       -5.94788685296420        3.14747322617767
H           -1.28275097651039        3.47203118346996       -1.17664588353999
H           -3.90926910899661        0.25569146677831       -2.26963918750267
H            2.42806240542848        2.33985168818959        0.47287902201100
H            3.21550609673273       -1.01836795587260        2.90151069842543
H            0.12816985114246       -4.84653222034688        2.83473137311759
H           -4.06162815781364       -4.00581435777064        2.36238991670398
O           -2.87804713256577        4.18323919909074       -2.44902045069466
O           -4.78726403077191        2.89246542073262       -2.77781415150488
C           -5.34170314303246        3.94692956234780       -3.52863905672933
C            4.50225259742043        0.88375372128430        2.10717497638516
O            4.89828915809829        0.37722062152011        3.11377620537384
O            5.20203026325642        1.51747810551727        1.24549443829020
C            6.48150075965578        1.83673087066611        1.67602163394996
O           -1.72892304976111       -6.98761444262899        2.84644630121613
O           -3.14514327480274       -5.90361075303373        4.15329397361575
C           -3.18877088812370       -7.21091925136339        4.70824308081904
C           -4.67139633905053       -1.45914319945880        1.22131846929267
C           -2.23898230144514       -2.05471110588050       -1.34952652155241
H           -2.45953840272013       -7.13577552482047        5.62387467515208
H           -2.83853099768389       -8.07686603968896        4.26779182912536
H           -4.12735877964574       -7.28413243370671        5.23479804318220
H            6.96769567576197        2.35071785939682        0.85841089403665
H            6.99703426732885        1.30999460605064        2.43244421550090
H            6.28218895822814        2.76666416967151        2.32404000051787
H           -2.00654251935734       -3.06477413295765       -0.91616873565274
H           -1.45898163018750       -1.49799985529263       -1.00247120276127
H           -2.36304339867340       -2.13875086731819       -2.39417687221526
H           -4.43585118260168       -2.37244289358523        0.65504051359870
H           -4.48003072344800       -0.46124823153125        0.65247496696144
H           -5.71117241302772       -1.15333695505572        1.56643708782862
H           -5.20274504315559        3.90433527423977       -4.59224107139931
H           -5.01197656781039        4.94032021541695       -2.96252466333456
H           -6.39953213596976        3.70182523087313       -3.27862853220682
C           -1.62571579905899        3.93057576764946        3.58242399483172
C           -1.89815664811670        2.69795212155020        4.26933242439214
C           -1.00673151306216        2.31167384462286        5.27467502682851
C            0.32756724500518        2.83942994727238        5.19732363687539
C            0.58576046230012        4.20203212840319        4.78885765302633
C           -0.45283588087543        4.55772621083198        3.97975825043433
C           -1.24677249250351        1.25172255176700        6.26976632517402
C           -0.02159796208328        0.52478647940987        6.44323138833466
C            1.20902612564107        1.08492845675841        6.19251457334626
N            1.39910303807736        2.33105541382962        5.75319831327885
C           -2.48448430537884        0.46140905888649        6.50936296479366
C           -2.35785432156129       -0.93563283105450        6.53309596764962
N           -1.24607335421496       -1.49474873763471        6.82918144988968
C           -0.18802293407769       -0.75437205865486        6.91782390331361
C            0.95048752054772       -1.35701118646015        7.40632712825436
C            2.18282485159614       -0.80793083808429        7.17995083056835
C            2.30666924416635        0.47133436998854        6.65059111357306
C           -3.73543582111505        1.02097720544783        6.85824716839076
C           -4.85242510014584        0.15414597709028        6.64412583108436
C           -4.66907868476624       -1.16952431872737        6.34064833191866
C           -3.49405413793905       -1.80191285181615        6.32052983818479
O           -3.88491187725195        2.39464907634551        7.06745145847256
O           -3.02503983916434        1.98221525725254        4.05322651257594
C           -0.15276461381766        5.92316675419388        3.29885471976140
C           -5.89627592023936       -1.81188469503010        5.94329348260608
H            1.52030246399110        4.68639226232592        4.69963827776724
H           -2.25948807100822        4.00512798132582        2.68275768505068
H            3.26102343719252        0.98670567581073        6.39611086504045
H            0.91732042009299       -2.33974603412059        7.71474741212767
H           -3.42712506562286       -2.85273923970868        6.24672986325326
H           -5.67661921606279        0.71855903828898        6.44577498772663
O           -0.24385597070451        6.86748194165175        3.97150536265522
O            0.16873641352794        5.95363603145883        1.95044621808259
C            0.30415411346819        7.16074363612553        1.50621403335024
C            3.11713668715093       -1.10653658907264        8.31574195761963
O            3.27803089313482       -2.26078484566439        8.92509726165876
O            4.04368297743548       -0.12600584305786        8.74378720964250
C            5.06679729928624       -0.55730981418809        9.57537661847489
O           -6.83031246806508       -0.99578595579207        5.65324141713763
O           -5.80187914984767       -3.13739290298990        5.71295987545276
C           -7.07409413253360       -3.59589842630138        5.57497726191306
C           -4.90924713348798        2.69661736975673        8.12142044651139
C           -3.72752541788799        2.07305683429608        2.90003910133666
H           -7.77070971999799       -2.71547534965505        5.72113992637305
H           -7.39617139918145       -4.27893643280754        6.49408482089376
H           -7.34372827895375       -4.34235884361494        4.92698514530431
H            5.25944045806788        0.31779541080287       10.12755862303313
H            5.97451842179877       -0.77626579171192        8.99333659650045
H            4.92942220847391       -1.47415408042330       10.20956948971138
H           -4.60989566738509        1.42065229403415        2.78351369800284
H           -3.24818216573551        2.07153538626124        1.99013343410468
H           -4.12832617901707        3.19459636592101        3.19602844693002
H           -5.87002365241597        2.53678158945276        7.70140652359643
H           -4.72461069956608        3.71017271810746        8.21716942785767
H           -4.63996445127574        1.94676162299635        8.95357271105198
H            0.74007645300997        7.19695840493368        0.49231778518214
H            1.13743246264673        7.52065956550795        2.11945443919263
H           -0.72072916986268        7.50452564894381        1.57713450104563
116
 energy: -22.614819317788 gnorm: 0.558798552955 xtb: 6.6.1 (8d0f1dd)
C           -3.52223820443697        0.36473507660215       -1.31498195218055
C           -2.64299889712910       -0.67666167266427       -0.79449878358652
C           -1.54037771143549       -0.18983903034905       -0.03184985075525
C           -0.92909129222560        1.09631639469007       -0.37878905541881
C           -1.86257315631370        2.08590941668019       -0.78699399628049
C           -3.12686408851756        1.78028671308713       -1.25282734384996
C           -0.93517709944580       -0.87317438287658        1.08458526290127
C            0.33120195494026       -0.44072535052361        1.38342732715075
C            0.88383366849013        0.72134274941127        0.71236397893890
N            0.28063684582754        1.57562665499110       -0.03128324413877
C           -1.45227247197206       -1.98321913374677        1.89393060852388
C           -0.41824979085051       -2.80635823009093        2.65397622401448
N            0.74789841335901       -2.38457450366094        2.85058858159922
C            1.08817631994636       -1.24934971712458        2.17365731801066
C            2.37255526866032       -0.64395913365966        2.47428595980453
C            3.04744045741482        0.42195922291162        1.87340175019101
C            2.16645188056278        1.30832750689182        1.14313509703937
C           -2.81230192665672       -2.26992837509007        1.88628911835924
C           -3.09072592876529       -3.61430031810864        2.21727442944222
C           -2.05075235258881       -4.58701142096928        2.57122899960308
C           -0.74162840621764       -4.17573134054895        2.80202716515212
O           -3.67010342680583       -1.13239758590973        1.86221535219785
O           -2.91842222103494       -2.05852449607747       -1.03927187127327
C           -4.14530997782574        2.67514102077770       -1.64816107516840
C           -2.30259090257977       -6.15907471423108        2.45430566548300
H           -1.40210626046222        3.10854528122483       -0.66077107725705
H           -4.57394999081008        0.21783774886608       -1.54681477240566
H            2.13487966016629        2.29608549521265        1.04323249412111
H            2.82055954859325       -1.06818937886071        3.30125741766260
H           -0.02603372416373       -4.72195332867312        3.41716236552375
H           -4.04384211927078       -4.14982444113476        1.96611435390760
O           -4.19718834242971        3.81619990538450       -1.14064697536159
O           -5.07471069093977        2.22634258552202       -2.62670680960368
C           -6.21048301792124        3.02417816841509       -2.71738002357533
C            4.52428445898369        0.67018622040431        2.03795717478821
O            5.05727692068061        0.63481167848721        3.18352646966474
O            5.23954733879887        0.94258348766826        0.92207361766111
C            6.54834283881260        1.13666531608253        1.10149378641284
O           -1.28193878792119       -6.75347279815746        2.76146618656015
O           -3.32063799714953       -6.58700827748576        1.71826472420019
C           -3.16772911238416       -7.93889349147791        1.20332709447924
C           -5.01572987182896       -1.21920165238897        2.36432687287381
C           -1.70377028397027       -2.87375106137356       -0.97870524481902
H           -3.60646824953861       -8.74502280172086        1.92357835465045
H           -2.12545043245691       -8.04556390919424        1.08372908860222
H           -3.75736775636912       -8.11251786061105        0.37753612305386
H            6.87837784636684        0.62905464110420        0.11095820065434
H            6.98630684609202        0.94195379865759        2.03995903356418
H            6.55721902050648        2.24731944013851        0.92543004423912
H           -1.99743579666129       -3.92012684632247       -1.35047674070271
H           -1.29205341106603       -3.11292303417424        0.01063365476323
H           -0.89059654864248       -2.44544578471655       -1.54186279801419
H           -5.43771681720145       -0.40852596199878        3.03748790663072
H           -5.07923464213218       -2.18339854369770        3.04038304650194
H           -5.66843267584270       -1.38261447891419        1.54700095856544
H           -6.92118158770604        2.81997898574728       -3.53395231675831
H           -5.82860935062887        4.23548902384473       -2.75607066110906
H           -6.74981034054522        2.88758197169413       -1.58584785392789
C           -1.27118077772406        4.44994022952456        3.70997450041179
C           -1.57073847581625        3.19040993855632        4.37037525778817
C           -0.93331442516189        2.80203033261269        5.54454668787404
C            0.22866515635515        3.54200742534276        5.85044408177746
C            0.53049510234220        4.82376550454780        5.28707082088406
C           -0.22676413628747        5.27806763148929        4.26674760831639
C           -1.37764930594305        1.79989040099662        6.56388017639380
C           -0.19660217659555        1.13594040867376        6.95631690592356
C            1.14320436754030        1.68733611765894        6.64853863244572
N            1.26278874977519        3.00378811518599        6.39721303756067
C           -2.51854000304435        0.98771352854471        6.54220236507432
C           -2.39693414406694       -0.44295941042747        6.39706754111797
N           -1.24827726161160       -1.10531074368858        6.62851431482638
C           -0.24639592696218       -0.30217323964271        7.11253147424490
C            0.90711357084961       -0.95740643321203        7.67074221364220
C            2.09685123965188       -0.21637936513578        7.84689032348394
C            2.24031086515792        1.05702120780239        7.19122333478867
C           -3.76393878773242        1.63771298437160        6.20724568519177
C           -4.83649258544646        0.70450499564699        5.96687911418319
C           -4.75105695280476       -0.72939396771751        6.11611684624028
C           -3.54488662213652       -1.23883666311970        6.42592890531403
O           -3.83648879052497        3.04229258465564        6.20177802502732
O           -2.60389666056052        2.31862274293230        3.83085237020836
C            0.19684041754364        6.51925737407066        3.45664047137644
C           -5.94443972111584       -1.66424835381677        5.83387356535020
H            1.35537071303604        5.27281425928326        5.65184422643498
H           -1.69020686504789        4.84197074465042        2.79565154972753
H            3.22722128581635        1.54035723171151        7.35047703515790
H            0.72821461202910       -1.84651504566575        8.24621464942558
H           -3.31524169315926       -2.24871713862540        6.46085158612528
H           -5.90128426639004        0.93091907159625        5.82737363733746
O            1.20527406157373        7.10794658675341        3.55527262318217
O           -0.76338813692791        6.82981065881939        2.51432291845648
C           -0.16051874683236        7.86745952460120        1.73401537231220
C            3.18498556934803       -1.02250051600895        8.51436131925094
O            3.46704785594428       -2.20065725367841        8.30477884465922
O            4.13194460840011       -0.38572055547120        9.32461615024256
C            5.01630872008587       -1.36059039014177        9.69321480877905
O           -7.06683210252750       -1.21228685116415        5.57273514454720
O           -5.70934505470354       -3.00928203600199        6.20606669800314
C           -6.88426892378827       -3.65845036438352        6.07220053415179
C           -4.86859460817772        3.56075101349155        6.94717594829645
C           -2.18375095883478        1.07907244828891        3.14511649457868
H           -6.65300482481242       -4.68106862347679        6.33451094767643
H           -7.62867107844916       -3.29969332098103        5.27143148069332
H           -7.39169180430368       -3.23207296737183        6.87048772469014
H            6.05533627264760       -1.07176471219492        9.62706898798815
H            5.14957012038320       -2.18431693733966        8.83466016660230
H            4.95830292207456       -1.88472234393467       10.69187224979904
H           -3.12524179093961        0.61528539080758        2.88307046452916
H           -1.81002788781825        0.59848198593069        3.92048304693444
H           -1.63705816702597        1.51345534223644        2.14749268277493
H           -5.63786550750213        3.85285160526767        6.32717459770904
H           -4.52130718629776        4.40034761447001        7.68291636950469
H           -5.39370045996128        2.78876050835889        7.39651442094021
H           -0.81781939810168        8.25881903738069        0.98272981018338
H            0.70981256752767        7.34685725128326        1.33142953078476
H            0.19786481141290        8.53652404014522        2.61880476654267
116
 energy: -22.584836463207 gnorm: 0.625708404966 xtb: 6.6.1 (8d0f1dd)
C           -3.41467583180692        0.24326326968568       -1.59661421605797
C           -2.71558749400732       -0.82010385460153       -0.84129168998333
C           -1.60977019562512       -0.38742041448534       -0.09494110482651
C           -1.19569537709057        1.00928083867342       -0.26156020184956
C           -1.94950958187001        2.02269474939733       -0.87008447556466
C           -2.97517397825397        1.58269473928084       -1.59590025646996
C           -0.87669350568858       -1.20584693688220        0.74379939740874
C            0.51963976668596       -0.74942108780944        0.90164021418367
C            0.86166478541729        0.65632802701896        0.88465293820676
N           -0.08841615469000        1.49800544953705        0.43926421458420
C           -1.22636076257309       -2.42875248440361        1.39112697505633
C           -0.14398450748325       -3.43805574525985        1.60289464053569
N            1.17674397546692       -3.02135925812144        1.42534511628135
C            1.41895567621315       -1.64259529562159        1.36582763023341
C            2.53138062904762       -1.25183987904482        1.96020900449346
C            2.96880543829756        0.11345826854155        1.79505801387656
C            2.07875101067416        1.06471592086722        1.32427188986209
C           -2.55464821610097       -2.72691304429074        1.95870686924171
C           -2.88158105492404       -4.05607893176798        2.32672197871807
C           -1.91457343341066       -5.00768722545681        2.46949187696648
C           -0.67412890167992       -4.64107868594402        2.16050969527604
O           -3.41888027617507       -1.60782901004430        2.06589796166445
O           -3.26755742903233       -2.04689725944903       -0.55439824014133
C           -3.93324908025148        2.67696796586545       -1.93847633751112
C           -2.05056409527400       -6.39652966102392        2.96263321397627
H           -1.52261426361761        3.04808508529022       -0.71749285678832
H           -3.86627163832003        0.03892144530539       -2.45423825740272
H            2.60930113128375        2.05096279684704        1.21521003366243
H            3.15318671305477       -1.84462019584415        2.49638795539113
H            0.07368297028666       -5.36268376296858        2.41587772292675
H           -3.90259224135903       -4.35440564957308        2.54124031271886
O           -3.72180074446742        3.79829866927690       -1.65927457502149