116
 energy: -220.390481853816 gnorm: 0.244665717387 xtb: 6.7.1 (edcfbbe)
C           -1.98120000000000        2.48290000000000       -0.10340000000000
C           -1.82600000000000        1.30860000000000        0.62330000000000
C           -1.03190000000000        1.34750000000000        1.82210000000000
C           -0.20630000000000        2.48270000000000        2.06340000000000
C           -0.39670000000000        3.62770000000000        1.27470000000000
C           -1.28520000000000        3.63180000000000        0.23740000000000
C           -0.94190000000000        0.25570000000000        2.74220000000000
C            0.18120000000000        0.22640000000000        3.57330000000000
C            1.02780000000000        1.37030000000000        3.65770000000000
N            0.78500000000000        2.50750000000000        2.98010000000000
C           -1.88480000000000       -0.80800000000000        2.91260000000000
C           -1.43170000000000       -1.99650000000000        3.55800000000000
N           -0.27090000000000       -2.06860000000000        4.24850000000000
C            0.46270000000000       -0.94280000000000        4.33940000000000
C            1.58310000000000       -0.92350000000000        5.17740000000000
C            2.39760000000000        0.18280000000000        5.25200000000000
C            2.13210000000000        1.31450000000000        4.51490000000000
C           -3.28410000000000       -0.68050000000000        2.60090000000000
C           -4.06290000000000       -1.82890000000000        2.62050000000000
C           -3.55090000000000       -3.03740000000000        3.06090000000000
C           -2.27500000000000       -3.12200000000000        3.55030000000000
O           -3.81220000000000        0.59170000000000        2.40030000000000
O           -2.33080000000000        0.08250000000000        0.20070000000000
S           -1.52740000000000        5.15130000000000       -0.71460000000000
S           -4.59430000000000       -4.51400000000000        3.01410000000000
H            0.16400000000000        4.52020000000000        1.49230000000000
H           -2.62270000000000        2.51170000000000       -0.96420000000000
H            2.77710000000000        2.17190000000000        4.59040000000000
H            1.81720000000000       -1.78930000000000        5.77110000000000
H           -1.91030000000000       -4.05070000000000        3.95160000000000
H           -5.08850000000000       -1.80420000000000        2.30210000000000
O           -0.63430000000000        6.06770000000000        0.09550000000000
O           -3.04080000000000        5.53780000000000       -0.08900000000000
C           -2.97710000000000        5.94060000000000        1.23730000000000
S            3.85910000000000        0.16760000000000        6.31260000000000
O            3.73550000000000       -1.23350000000000        6.86850000000000
O            4.99940000000000       -0.07000000000000        5.10170000000000
C            4.88200000000000       -1.31240000000000        4.49250000000000
O           -5.72190000000000       -3.96810000000000        2.16200000000000
O           -3.69580000000000       -5.35570000000000        1.86950000000000
C           -3.73670000000000       -4.75150000000000        0.62020000000000
C           -5.20600000000000        0.64130000000000        2.21160000000000
C           -3.12590000000000        0.12660000000000       -0.95790000000000
H           -3.23220000000000       -5.39910000000000       -0.10220000000000
H           -3.23270000000000       -3.78190000000000        0.66080000000000
H           -4.78410000000000       -4.61690000000000        0.33150000000000
H            5.73300000000000       -1.45710000000000        3.82130000000000
H            3.95230000000000       -1.35770000000000        3.91950000000000
H            4.88380000000000       -2.08650000000000        5.26660000000000
H           -3.49230000000000       -0.88030000000000       -1.16080000000000
H           -2.52760000000000        0.46470000000000       -1.80480000000000
H           -3.97770000000000        0.78810000000000       -0.79560000000000
H           -5.50180000000000        1.68700000000000        2.11680000000000
H           -5.71450000000000        0.20750000000000        3.07330000000000
H           -5.47370000000000        0.11030000000000        1.29770000000000
H           -3.96610000000000        6.28070000000000        1.55630000000000
H           -2.25070000000000        6.75530000000000        1.32510000000000
H           -2.66180000000000        5.09590000000000        1.85410000000000
C           -2.92340000000000        1.06210000000000        5.46440000000000
C           -2.36790000000000        0.38730000000000        6.54150000000000
C           -1.28350000000000        1.01390000000000        7.24690000000000
C           -0.62440000000000        2.13160000000000        6.65890000000000
C           -1.23840000000000        2.76040000000000        5.56240000000000
C           -2.37600000000000        2.24680000000000        5.00410000000000
C           -0.74980000000000        0.49460000000000        8.46660000000000
C            0.56440000000000        0.85220000000000        8.77690000000000
C            1.20090000000000        1.90470000000000        8.05530000000000
N            0.58440000000000        2.58270000000000        7.06640000000000
C           -1.42440000000000       -0.34220000000000        9.41170000000000
C           -0.62320000000000       -1.07760000000000       10.33300000000000
N            0.69600000000000       -0.84490000000000       10.51920000000000
C            1.24680000000000        0.16970000000000        9.82550000000000
C            2.55360000000000        0.56730000000000       10.12260000000000
C            3.15960000000000        1.59820000000000        9.44310000000000
C            2.50340000000000        2.26260000000000        8.42800000000000
C           -2.85520000000000       -0.36590000000000        9.56070000000000
C           -3.40900000000000       -1.33910000000000       10.38090000000000
C           -2.61190000000000       -2.17840000000000       11.13990000000000
C           -1.25070000000000       -2.03810000000000       11.14510000000000
O           -3.60900000000000        0.63280000000000        8.95140000000000
O           -2.75590000000000       -0.89450000000000        6.91790000000000
S           -3.18230000000000        3.08150000000000        3.61760000000000
S           -3.38870000000000       -3.45910000000000       12.15290000000000
H           -0.79890000000000        3.64840000000000        5.14350000000000
H           -3.76410000000000        0.65370000000000        4.93610000000000
H            2.99430000000000        3.06260000000000        7.90370000000000
H            3.09400000000000        0.06500000000000       10.90560000000000
H           -0.64630000000000       -2.66260000000000       11.77880000000000
H           -4.47400000000000       -1.46130000000000       10.44960000000000
O           -2.51060000000000        4.43120000000000        3.72780000000000
O           -4.64960000000000        3.39280000000000        4.37070000000000
C           -4.50560000000000        4.22990000000000        5.46980000000000
S            4.84630000000000        2.07070000000000        9.89850000000000
O            5.07900000000000        1.02640000000000       10.97140000000000
O            5.59340000000000        1.35400000000000        8.57040000000000
C            5.75840000000000       -0.01660000000000        8.73000000000000
O           -4.69330000000000       -3.58850000000000       11.39320000000000
O           -2.51420000000000       -4.75310000000000       11.53200000000000
C           -2.83900000000000       -5.01960000000000       10.20860000000000
C           -4.99320000000000        0.56890000000000        9.18950000000000
C           -3.84620000000000       -1.41880000000000        6.20740000000000
H           -2.30820000000000       -5.92060000000000        9.88870000000000
H           -2.54730000000000       -4.17530000000000        9.57790000000000
H           -3.92010000000000       -5.17910000000000       10.14050000000000
H            6.30330000000000       -0.41120000000000        7.86740000000000
H            4.77650000000000       -0.49600000000000        8.79490000000000
H            6.32190000000000       -0.19810000000000        9.65070000000000
H           -4.07660000000000       -2.40650000000000        6.60790000000000
H           -3.57590000000000       -1.51180000000000        5.15720000000000
H           -4.71500000000000       -0.77070000000000        6.32730000000000
H           -5.46960000000000        1.39700000000000        8.66350000000000
H           -5.18910000000000        0.66540000000000       10.25820000000000
H           -5.39150000000000       -0.37130000000000        8.80640000000000
H           -5.49780000000000        4.50770000000000        5.83580000000000
H           -3.96020000000000        5.12730000000000        5.16040000000000
H           -3.95470000000000        3.71390000000000        6.26100000000000
116
 energy: -220.430581228262 gnorm: 0.148291146818 xtb: 6.7.1 (edcfbbe)
C           -1.97650793819666        2.47627152189186       -0.10704270918774
C           -1.82719242932115        1.31095196686994        0.62463904363086
C           -1.04180416613078        1.34068234870922        1.81496827535990
C           -0.21287282111075        2.47727514756512        2.06537628476644
C           -0.39208468000674        3.63152868022599        1.28112662420649
C           -1.27967684228460        3.62959708675804        0.24670415230713
C           -0.95200311021376        0.25912733513740        2.74139005803486
C            0.17403411010320        0.22883694068755        3.57269045126038
C            1.02385531534811        1.37188473308578        3.65280305601668
N            0.77020050179573        2.49440571112089        2.97670869784608
C           -1.89749684517244       -0.79580758985911        2.91801791589708
C           -1.43408105461945       -1.98715677793140        3.55860684395134
N           -0.27542880701340       -2.05519108674418        4.23354587118763
C            0.45447520093040       -0.94038858968195        4.33995398257027
C            1.57969952146430       -0.92606816732012        5.18307464093912
C            2.38983169259657        0.18743729317032        5.25478379268775
C            2.13248531772085        1.32465053782044        4.51708262464048
C           -3.28200444439416       -0.68269690739277        2.59836023397483
C           -4.06269656413702       -1.82268116872547        2.62428763630225
C           -3.53893149183582       -3.03631733020046        3.05837890078262
C           -2.26758324563133       -3.12640095173454        3.55403768406780
O           -3.80195991127871        0.57528683554648        2.39379088950474
O           -2.33477500256327        0.10134576469252        0.21392142829176
S           -1.51785852348697        5.16587934900963       -0.69484098186054
S           -4.60490534424312       -4.50527113073873        2.99091618947926
H            0.17783489054254        4.52082848227614        1.49454222033467
H           -2.62058754989160        2.51325915649228       -0.96921930241283
H            2.77787974543410        2.18378606074097        4.58948926659137
H            1.81819209213544       -1.79542683308343        5.77496779076243
H           -1.90017181217887       -4.05201056734205        3.96424490658934
H           -5.09176259671826       -1.81058596759096        2.30627684887182
O           -0.60692399619840        6.09260301604483        0.03185132871134
O           -3.04346608123582        5.52974925749094       -0.09959550938321
C           -2.98813897296230        5.94853666523608        1.23396947496721
S            3.85663791243906        0.14372826977255        6.31914901414643
O            3.72510912256530       -1.21460548424085        6.91526214822009
O            4.98672152348288       -0.06362901743906        5.09805285415017
C            4.88657259741625       -1.31394063391293        4.48476285840597
O           -5.75799317757032       -3.98269781221566        2.20220810015061
O           -3.68854433422342       -5.35137277453870        1.87069549249235
C           -3.73016673075628       -4.75550979556792        0.60943299455691
C           -5.19947992299343        0.64092142084119        2.20886617637013
C           -3.12455823611147        0.12788496605555       -0.95262365372171
H           -3.22825120545678       -5.41233722737410       -0.09861196878359
H           -3.22607475711397       -3.78373208259712        0.63690559644605
H           -4.77449185508697       -4.61326454244431        0.31297264296146
H            5.74244652812089       -1.44529329575912        3.82403119549811
H            3.96011691739966       -1.37543795344885        3.90524096032376
H            4.88472237750493       -2.09497831257515        5.25180241983953
H           -3.47818512230835       -0.88636934361378       -1.13849672877442
H           -2.53421815280680        0.45978328505043       -1.81111534597887
H           -3.98599524589916        0.78581353862831       -0.81135223026343
H           -5.47376214391735        1.69206883110826        2.12051401508410
H           -5.72310885031213        0.21093230512335        3.06724247823382
H           -5.48886543607525        0.11346353947609        1.29690736054891
H           -3.97708682556728        6.28613744904907        1.53703935412833
H           -2.26599118989093        6.76338292931926        1.33583963263273
H           -2.67102657286899        5.11994906003218        1.86851928003863
C           -2.91669382965679        1.04827089080709        5.46058550115141
C           -2.36593949701677        0.38496250226430        6.53971752815108
C           -1.28662029016257        0.99634307704541        7.24015323888736
C           -0.62330569085883        2.11843967588357        6.65608918251899
C           -1.22962612680944        2.76063469267320        5.55726413646216
C           -2.36596588586143        2.24278072658728        5.00809496008536
C           -0.75872008292502        0.49211233035829        8.46467297905923
C            0.55805601198646        0.84916546895549        8.77407860471263
C            1.19731071896969        1.89540403204034        8.04458538074632
N            0.57263411695068        2.56799184199386        7.07152459638606
C           -1.43734272669693       -0.33060258552862        9.41330345500867
C           -0.62742910715073       -1.07018598739504       10.32960050422841
N            0.68344762330498       -0.84056083655692       10.50267926402031
C            1.23819153512583        0.16864892914429        9.82593112311889
C            2.55109802690631        0.56320427252509       10.12807033246355
C            3.14974239962451        1.59779940000613        9.44280963075610
C            2.50475344563501        2.26222642398901        8.41690394367898
C           -2.85414774724160       -0.36643160518420        9.56242784186056
C           -3.40919289386842       -1.32820603464539       10.38589445003079
C           -2.60238771148687       -2.17366714033693       11.13916836408987
C           -1.24258275626474       -2.03759860101436       11.15095274643997
O           -3.59914022822163        0.61323974401340        8.95235835924220
O           -2.75688777898452       -0.87409096688140        6.92233056880444
S           -3.16806619958006        3.09626673536236        3.62930115208955
S           -3.40389779490801       -3.46587980942488       12.13185771055967
H           -0.78996848220796        3.65246672854680        5.14167116130515
H           -3.77069785664662        0.65496975335879        4.93872450907453
H            2.99184616298334        3.07077683085307        7.89687741124616
H            3.09416735169873        0.06107667360550       10.91285752720253
H           -0.63284095064251       -2.65653395826419       11.78780473126369
H           -4.47517548571910       -1.46389612402084       10.45731099615378
O           -2.48751195422623        4.41730583855752        3.70217030843002
O           -4.64208415280850        3.37337649331946        4.37987577335469
C           -4.51355218005115        4.22985705743146        5.47682776737370
S            4.84802872122552        2.04897940423032        9.90579141554107
O            5.10844340171968        1.08335706434275       11.01058560429028
O            5.58968775016200        1.35553737253366        8.56661297284309
C            5.76610333514589       -0.02310386925468        8.72738191281544
O           -4.72089091974124       -3.57589965552682       11.43964440728353
O           -2.51007968426231       -4.74968446269982       11.52963081854116
C           -2.83446476793642       -5.02871707389389       10.20108889662513
C           -4.98793744759491        0.56609931372153        9.18817782409612
C           -3.84527440496720       -1.41519302101573        6.21426011133418
H           -2.30161698009430       -5.92827319956398        9.89843115966101
H           -2.54411825440070       -4.19045871996131        9.55920844501380
H           -3.91473318474064       -5.18673109978052       10.12046998662250
H            6.30944908136079       -0.39950964317874        7.86288494161320
H            4.79489358882253       -0.52093685205355        8.79311239386201
H            6.33037470104985       -0.21698205014342        9.64332778749298
H           -4.05817989007306       -2.40041698073886        6.62783140702320
H           -3.59076265488172       -1.52134329234810        5.15894111907790
H           -4.72767231158164       -0.77945247224621        6.32522814967269
H           -5.44375065269953        1.40171662127358        8.65648802704211
H           -5.19966719729124        0.66638967992256       10.25608702956066
H           -5.40806748955638       -0.36947843530837        8.81031431682650
H           -5.50885257211275        4.50280861471828        5.82553335364144
H           -3.96616216062978        5.12804898875320        5.17345785997065
H           -3.96332136732727        3.72885915719375        6.27938106119694
116
 energy: -220.450655587757 gnorm: 0.026787411169 xtb: 6.7.1 (edcfbbe)
C           -1.97336924153835        2.48056316657337       -0.11105994857445
C           -1.82883598716053        1.31851488595875        0.62221088878754
C           -1.05253688943977        1.33736603677361        1.80817986137022
C           -0.21847289603363        2.47517736067717        2.06773472558276
C           -0.39052580664369        3.64116718754742        1.29017780149218
C           -1.27823893286353        3.63643401719463        0.25853360808199
C           -0.96197029353679        0.26413159462542        2.74267251049762
C            0.16671987330898        0.23213901734524        3.57552295447599
C            1.01909533782542        1.37493211832567        3.65249293883430
N            0.75516602843321        2.48213223231985        2.97463042567436
C           -1.91188169826710       -0.78420008302933        2.92309484731534
C           -1.43934861996001       -1.97929396256720        3.56002895130793
N           -0.28354647947118       -2.04201598679283        4.22027540161945
C            0.44588615514948       -0.93906749991779        4.34085554458699
C            1.57736948374239       -0.92839495727191        5.18607331800066
C            2.38094615877579        0.19159193222361        5.25544780729132
C            2.13319757710026        1.33396452388046        4.52155932277227
C           -3.28521619161381       -0.68448249429463        2.59800338770578
C           -4.06295708179457       -1.82260442187640        2.62183934857842
C           -3.52667473941824       -3.04049457972660        3.04976691216288
C           -2.26303085659596       -3.13332912528739        3.55683923199058
O           -3.79676194345222        0.55746919397374        2.38585494996649
O           -2.34034486992230        0.12646089014360        0.22351343146103
S           -1.50236298189224        5.18987085636248       -0.68663402133316
S           -4.62426467484744       -4.50245458424029        2.97168705027164
H            0.19206178778477        4.52336657304871        1.50013259314710
H           -2.61302553861804        2.52743013396514       -0.97720855144336
H            2.77763772699265        2.19426504237098        4.59088220839465
H            1.81727805552795       -1.79830244382872        5.77898311968626
H           -1.88935764949798       -4.05271104531203        3.97566834667881
H           -5.09588439083074       -1.82676405451583        2.31119188388348
O           -0.58761650187619        6.09753436472603       -0.02167389348789
O           -3.03647861899241        5.51814323680326       -0.11413929654866
C           -2.99987964794292        5.95875152799888        1.22689894520186
S            3.85137570810202        0.11878073980095        6.33441978892473
O            3.70313222993035       -1.19350926458151        6.94653252244021
O            4.96164191275925       -0.05650259155986        5.09721051773556
C            4.88813501169300       -1.31490058018202        4.47647425842631
O           -5.77632697582434       -3.99083030482696        2.24175440315319
O           -3.68407170397229       -5.34144063144271        1.87587837835633
C           -3.72180041038812       -4.75829118238700        0.59874915765018
C           -5.19567046865540        0.64492605967947        2.20455913241248
C           -3.12529198777579        0.12598706209448       -0.94908893181072
H           -3.22390973733070       -5.42953228885377       -0.09380424024776
H           -3.21313441721295       -3.78705082615301        0.61012885963407
H           -4.76330768167042       -4.60936644080375        0.29424995710110
H            5.75423358106434       -1.42809870990403        3.82993536755962
H            3.96922650340997       -1.39373571965820        3.88449406707645
H            4.88483885688577       -2.10230491330682        5.23732698458940
H           -3.46106154275612       -0.89827384606598       -1.10991337900168
H           -2.54121285669274        0.45020790403125       -1.81716723913385
H           -3.99658751649566        0.77908842875798       -0.83076565496374
H           -5.43966117993161        1.70296472402451        2.12431410226737
H           -5.73128429587393        0.21881580048661        3.06049107834097
H           -5.50608118595739        0.12223016249619        1.29452680870133
H           -3.99339474156623        6.29466226099461        1.50636413855623
H           -2.28437034412555        6.77775779601643        1.33564427369772
H           -2.68422167578710        5.14692298839152        1.88146391281040
C           -2.91196397256199        1.03856386974305        5.45457428338334
C           -2.36376738786643        0.37957733606060        6.53344869221534
C           -1.28716477913200        0.97696674103556        7.23189281121228
C           -0.61837107840222        2.10414146910327        6.65319136056547
C           -1.21966446875228        2.76084192386383        5.55363380509415
C           -2.35559810253907        2.24051063370996        5.01326321005455
C           -0.76376260560041        0.48829967232064        8.46329825532457
C            0.55662966081757        0.84478756495403        8.77231696269934
C            1.19830166402848        1.88633387771773        8.03699916261418
N            0.56525712327806        2.54998001698134        7.07608648469581
C           -1.45078801228139       -0.31969333124160        9.41666786529198
C           -0.63325766723251       -1.06283055069293       10.33088584117927
N            0.66936374804341       -0.83575645314733       10.49014681132941
C            1.23313729120078        0.16532254208156        9.82806334963182
C            2.55417263460807        0.55546368394015       10.13073860227878
C            3.14639892555682        1.59153594033166        9.43904141814504
C            2.51218663213750        2.25935393745199        8.40801132806206
C           -2.85647700923509       -0.36535690067114        9.56779174031171
C           -3.40988980419517       -1.32608520290866       10.38900132684588
C           -2.59357547539806       -2.17773086412174       11.13541855418032
C           -1.23666038767780       -2.04027300083763       11.15887420342822
O           -3.59364076788937        0.59288035184218        8.95577195191369
O           -2.76093577775523       -0.85454186746890        6.92275180592027
S           -3.14924785218504        3.11132588286069        3.63618034582507
S           -3.42760959219624       -3.47513372361501       12.11986450082038
H           -0.77686063351885        3.65362894233103        5.14245719864174
H           -3.77700220674891        0.66438338773673        4.93598359214674
H            2.99387403140873        3.07355230697922        7.89043597225931
H            3.09620667677816        0.05853621380402       10.92093318259526
H           -0.61897128434472       -2.64996568759117       11.79707962341529
H           -4.47487075245987       -1.47283687985776       10.47181840509161
O           -2.46375707258536        4.39351253988426        3.67921757748391
O           -4.62593471620151        3.34788531456283        4.39307406580500
C           -4.52012363627963        4.22824543748954        5.48598141087261
S            4.85721662439436        2.03445894293663        9.92185464037193
O            5.11733826534918        1.13578909913284       11.03281042954315
O            5.58054372878549        1.35752072996029        8.57089242162754
C            5.77544547634280       -0.03025214457227        8.72810875064087
O           -4.73449724191808       -3.55922935896035       11.48030991791046
O           -2.50998280919477       -4.73833274656406       11.52769617832737
C           -2.82882614858034       -5.03591846086123       10.19236262161083
C           -4.98624758182544        0.56711120091230        9.18489513886969
C           -3.84791869505395       -1.41723716152714        6.22455941581272
H           -2.29407100550138       -5.93771936161030        9.91117231398579
H           -2.53530299684534       -4.20714315107381        9.53752797530638
H           -3.90841607608230       -5.19343214814732       10.09970668027889
H            6.32066437106741       -0.38492410259004        7.85913286199674
H            4.81601115746676       -0.54796398554724        8.79424027038709
H            6.34412460338978       -0.22890117906231        9.63930670817694
H           -4.03659934007022       -2.39842248432441        6.65700474059859
H           -3.60853178739459       -1.53613808810882        5.16536473165535
H           -4.74259596760476       -0.79357852663954        6.32776397542308
H           -5.41370459893917        1.41176446929387        8.64508702356419
H           -5.21075744743449        0.67126799577510       10.25171929244280
H           -5.42760722646741       -0.36318120579374        8.81225554001268
H           -5.52233046932423        4.49565627929821        5.81013993028224
H           -3.97298383441621        5.12712679799990        5.18444731653657
H           -3.97557507922048        3.74455618421759        6.30433055359568
116
 energy: -220.456721003998 gnorm: 0.018280210403 xtb: 6.7.1 (edcfbbe)
C           -1.96998765904412        2.49766246832155       -0.10952114377893
C           -1.83589721434174        1.33366761459478        0.62498474061811
C           -1.06185794891391        1.34874341402859        1.81418642991961
C           -0.22365079602402        2.48443398895734        2.07394700693935
C           -0.38641457988708        3.65167470275410        1.29547742387459
C           -1.27141764668814        3.64956094934174        0.26180740654075
C           -0.97090949772048        0.27220386709899        2.74741858021247
C            0.15755962455423        0.23854784559865        3.58158773663399
C            1.01160550800562        1.37981115192444        3.65924915192684
N            0.74928257006017        2.48672717624091        2.98009200946435
C           -1.91890755763569       -0.78085294901690        2.92268204686532
C           -1.44471097742391       -1.97612006972275        3.55821387213392
N           -0.28997159167195       -2.03806587011748        4.21820389364172
C            0.43736704166466       -0.93435778378764        4.34385494259217
C            1.56645883759690       -0.92358653097310        5.19133231533663
C            2.36719066091748        0.19645712741333        5.26235367240878
C            2.12536226340075        1.33804532328154        4.52822147848316
C           -3.29353049704616       -0.68655233652596        2.59363591478767
C           -4.06732518254856       -1.82888987982517        2.61958699465504
C           -3.52564077155251       -3.04443863723447        3.04617970372204
C           -2.26308527297628       -3.13373740727012        3.55343674032087
O           -3.80033207660302        0.55451502724455        2.37423527798773
O           -2.35025799113372        0.14193738619352        0.23073027526878
S           -1.49847286331794        5.19481818199245       -0.70691683933231
S           -4.62072452667792       -4.51413201339266        2.97248070158734
H            0.20603328285551        4.52660555711145        1.50747677428456
H           -2.59923732717396        2.54753782494836       -0.98259848061931
H            2.76920098793435        2.19873708036931        4.59789578793788
H            1.80633628550594       -1.79425985094989        5.78261064425380
H           -1.88325756241383       -4.04763081595299        3.97862594444515
H           -5.10118764022551       -1.84018779286485        2.31433115999653
O           -0.56997493828228        6.12002371161685       -0.09378729996394