116
 energy: -22.928061455056 gnorm: 0.329736929581 xtb: 6.6.1 (8d0f1dd)
C           -3.31122850772930        0.79849766164622       -0.92477639677520
C           -2.44380812530352       -0.12270372891954       -0.27661132624697
C           -1.41337090092821        0.39579727573559        0.56335275196199
C           -0.89266158675590        1.65801491088749        0.27377586709581
C           -1.72665675402493        2.51431363229076       -0.49448366572522
C           -2.95444148494349        2.13954154133227       -1.01494489940871
C           -0.74098268209890       -0.43411532818871        1.49825021926784
C            0.56872586496315        0.03782116815119        1.86248088067890
C            1.03782416582094        1.29402317993033        1.50887470833621
N            0.31238977034758        2.07067427098208        0.65193736800696
C           -1.29695700510141       -1.39996043042223        2.41574187746061
C           -0.38243517664656       -2.18060797534842        3.13232615520648
N            0.91308504082021       -1.90366887689689        3.30325166013478
C            1.37712470144904       -0.74872102533751        2.81811050966982
C            2.52149331701875       -0.17739833758153        3.39379298866852
C            2.95849061756259        1.02681208890480        2.95105897606587
C            2.24288949469137        1.78498308775960        2.03503020483770
C           -2.74860936222260       -1.74497937691422        2.38401158947411
C           -3.09416315450955       -2.91614440870436        3.00571134491758
C           -2.16786021984049       -3.77788778654213        3.63251872101904
C           -0.85708937311598       -3.40495313382985        3.68547234358092
O           -3.71994433332149       -0.94984598373544        1.67726658385724
O           -2.55702603277562       -1.47241711578389       -0.57241635275616
C           -3.84297843593025        3.13357444054366       -1.60938954875544
C           -2.68769581069131       -5.03867041417370        4.30484659386931
H           -1.39666850744143        3.51251503834900       -0.76806311868865
H           -4.27662633836220        0.55105838579656       -1.33106614114542
H            2.66329581305412        2.73912661909249        1.72562431984580
H            3.05775395548473       -0.69369546277216        4.16536137542516
H           -0.24710966264510       -4.12034095424229        4.22946223699121
H           -4.11477991332403       -3.04712728052358        3.03244694615357
O           -4.21824883374556        4.03433712717988       -0.87713382485991
O           -4.44510595673734        2.90643496899600       -2.81853501752979
C           -5.44216520282800        3.83300025693726       -3.02488532025093
C            4.23586651889298        1.50004220933226        3.59165660008449
O            5.05927614697201        0.66079890002952        3.91714215179376
O            4.47001334453535        2.86385149488593        3.72605651435371
C            5.79457498613219        3.08584475587818        4.15829123132174
O           -3.82227255313510       -5.27347675879771        4.16636005494405
O           -1.85023202017753       -5.79767454267276        5.06656077253571
C           -2.55119635829503       -6.86252441382958        5.62930343183426
C           -5.07197156564436       -1.42399175670916        1.58830531863830
C           -1.33089900128490       -2.23622472573986       -0.99264499351172
H           -2.54510546830388       -7.76426885143998        4.99136022291012
H           -3.57194749219491       -6.44405511486021        5.74196173723541
H           -2.09133598235598       -7.02043774843818        6.64022264233588
H            5.72707967266424        3.46798026205549        5.10135971236643
H            6.34060091246885        3.78468702308830        3.50069950143490
H            6.17933064298187        2.03010500085905        4.19342358084693
H           -0.91862729772622       -2.57650129080332       -0.01361370304871
H           -0.49769766914251       -1.60651221708571       -1.34094446550576
H           -1.52632419730509       -2.94569707152159       -1.75361447637286
H           -5.11788846557077       -2.41810833635233        1.17520213188926
H           -5.67929807973498       -0.69619639428435        1.04301666067831
H           -5.57598832326623       -1.42383358739762        2.57928294206544
H           -6.13050215934830        3.76035386975488       -2.23272855695873
H           -5.86615610071888        3.45938329385866       -4.02668959924245
H           -5.13479557532099        4.87790991548477       -2.98314551356402
C           -1.38192942069774        3.73616555005018        2.91232598411686
C           -1.84821468128685        2.59982427735607        3.49755545445181
C           -1.05946531454833        2.05730632010638        4.60922730982276
C            0.19893954712228        2.69376791964407        4.86302140881997
C            0.50425395911860        3.94630308659851        4.28768785650746
C           -0.26031777722226        4.46998310053134        3.25072669343212
C           -1.20488993561782        0.74454293276906        5.14851520323437
C           -0.06287609782692        0.02744069315890        5.60930570802864
C            1.19208754369866        0.71421540266195        5.78882868583885
N            1.19428660993148        2.06344359410476        5.62744624321596
C           -2.41361422770794        0.07928500213936        5.25249410304426
C           -2.45851584031083       -1.32662100968547        5.60237876023992
N           -1.29466212405906       -1.98318595734370        5.89916817085159
C           -0.14475655767527       -1.32117560077092        5.98824682881008
C            0.97209270935794       -1.98958449505532        6.53157704134458
C            2.21982707914082       -1.36973967291181        6.68703967237737
C            2.30561929262884       -0.09745313075593        6.26436900324455
C           -3.73018485967715        0.71367583494582        5.25810242262992
C           -4.89964478833448       -0.06184623426677        5.21204641615509
C           -4.82617965800088       -1.39228978090841        5.46901303780036
C           -3.67144193418464       -1.98914944386360        5.67265433266067
O           -3.75568638935321        2.07705011038914        5.52067969627343
O           -2.94192434743730        1.91263938797883        3.01658762327703
C            0.21273512614467        5.50086066357994        2.34765104514621
C           -6.06660304520411       -2.17604633098929        5.80641622556876
H            1.41756699010566        4.38133362238595        4.66974005703471
H           -1.82880610647429        4.11982501512100        2.06992133318584
H            3.26888037378556        0.32655662585251        6.31721410015598
H            0.87146188387207       -3.08471526305024        6.57830423410869
H           -3.67716811065157       -3.05999292755990        5.83019634570050
H           -5.77379677507622        0.43595144608221        4.71017130754348
O            1.34459852619901        5.82615848916894        2.44941456579099
O           -0.74718748219123        6.07961784856304        1.59848183464284
C           -0.21473095568964        7.24015934882472        1.05753806029483
C            3.53228080814219       -2.00967610361154        7.02506769044485
O            3.64093082622715       -3.14437803815732        7.50071391725347
O            4.56565258381079       -1.22937033368332        6.69086985080897
C            5.72579357310716       -1.80692399125161        7.22246151275881
O           -7.04801223588612       -1.95726935745904        5.14194115322235
O           -6.01514389321278       -2.93743591896022        6.94765316328794
C           -7.21292732384718       -3.62681918543340        7.15115816329978
C           -4.95459780685163        2.65960679932188        5.86868674392943
C           -3.68284113682406        2.59129188358641        2.05479246020704
H           -7.43119628931628       -4.22607794725959        6.20622607140901
H           -8.06548455146707       -2.91765848248592        7.29781126410398
H           -7.07314693247270       -4.33087306029711        7.91223421050944
H            6.57332189837178       -1.29353136199234        6.78341268688262
H            5.74663761932316       -2.84282155125561        6.88089468184451
H            5.69426191474290       -1.72781984964892        8.29460302186842
H           -4.10481209541493        3.44288266176275        2.60483747673152
H           -4.49244774344916        1.87419893016926        1.82433103764650
H           -3.18901540870812        2.85154642679373        1.06781919454921
H           -5.55414326821421        2.76698137191684        4.93950725322359
H           -4.78658370641210        3.62090640967288        6.25983200635257
H           -5.43485580473958        1.97242995129449        6.65265772412460
H            0.89164886030839        7.38838561720231        1.13776105146914
H           -0.62894889903848        8.04195665205089        1.64837664327952
H           -0.59282546386754        7.45699159724320        0.03719083132488
116
 energy: -22.787688996885 gnorm: 0.449678198140 xtb: 6.6.1 (8d0f1dd)
C           -2.98830703961880        0.76153147572477       -1.58702605277977
C           -2.20536406236188       -0.04476227158596       -0.69041722231710
C           -1.28828023210804        0.56858646887984        0.20059951528081
C           -1.03356486303942        1.93208508277205        0.08511779795575
C           -1.84990370676402        2.68252269080862       -0.76126922630433
C           -2.84976903369877        2.19395634129147       -1.55687871450859
C           -0.64562584748453       -0.13589066089562        1.33599693964931
C            0.53878625189028        0.37517116867177        1.77468060589310
C            0.94620892853274        1.68008540375045        1.28613165601709
N            0.06905084015380        2.48223007799892        0.64767390788390
C           -1.21697933385155       -1.22557806138799        2.07533548033646
C           -0.35107705156240       -1.94822189607569        3.03427113281034
N            0.87063486632512       -1.46321949414350        3.35262224469378
C            1.33636836350621       -0.30397187470814        2.71811530474159
C            2.63602237026601        0.26229684399457        3.02420043638099
C            3.05280741063977        1.48452395312101        2.51365093031473
C            2.21540735761804        2.18230325903051        1.66772739661764
C           -2.53221199090583       -1.74461364663070        1.90911408391946
C           -2.76086308332896       -3.16651210542312        2.25718400053670
C           -1.84743450724216       -3.85893152725305        3.16617795424937
C           -0.64136609364373       -3.18429743881552        3.44991508758999
O           -3.64095026856453       -0.83132286576011        1.72790512464250
O           -2.42948976233149       -1.46301419754780       -0.70581587238636
C           -3.75531426990351        2.87293998785596       -2.52729497853506
C           -1.95544053543795       -5.25391511978459        3.61065245541496
H           -1.54258288097986        3.71205026599932       -0.88011419804120
H           -3.90480852015955        0.32882817978901       -2.08317725526246
H            2.71655696189819        3.12123842373811        1.30716471650672
H            3.21082495832680        0.01501089454898        3.92984004149564
H            0.05308161798286       -3.69289396250126        4.10691329347357
H           -3.62123703385252       -3.53321804194508        1.83212712347712
O           -3.36662793120540        3.77956119014502       -3.18821109186376
O           -5.04658289071692        2.36382530699503       -2.67747095105498
C           -5.82279874028553        2.96346753720046       -3.64927510317824
C            4.21306356585088        2.22933081478632        3.13684624390124
O            4.69641709045470        2.25740555262179        4.24863900161836
O            4.76557048821969        3.08228662392966        2.21866465526909
C            6.00349756465195        3.55335347536942        2.78169170033322
O           -3.00577802765386       -5.93290923115693        3.64258148127939
O           -0.88362120528548       -5.75761921045223        4.31907750344749
C           -1.14447140298093       -6.94796316808588        5.06782551447882
C           -4.70771602496128       -1.06310088057641        2.71923707496744
C           -2.08032350599405       -2.12240211767221       -1.91307081542599
H           -0.74167980887675       -7.74308507938115        4.50812163087107
H           -2.25379295021749       -7.00443342207012        5.14397411562247
H           -0.61972577231761       -7.09124475713938        6.01149840854240
H            6.75850806164197        2.77620726249345        2.41752487756421
H            6.02571524820334        3.83907268820843        3.88896036598207
H            6.21659854638780        4.43876423277227        2.18577684414449
H           -1.83507680328950       -1.36400614922372       -2.61497728363751
H           -2.94781220033420       -2.68120858364897       -2.21761278920594
H           -1.32252681049783       -2.85361125100982       -1.75500021975832
H           -4.89724605011310       -2.20089467149455        2.54319423346347
H           -5.43891061587963       -0.34215489411224        2.49277233243771
H           -4.11004471933105       -1.07563591104854        3.59616018276892
H           -5.43100908678843        3.96363376142606       -3.70132253577734
H           -6.80007493661900        2.75764772543074       -3.39714748393265
H           -5.45748843137044        2.48362367439011       -4.63051268045840
C           -1.39699975392665        3.41027576832142        3.35321189044797
C           -1.80346624688239        2.33929472660571        4.10917965705287
C           -0.96550156575585        1.91971565155073        5.20437783183247
C            0.39857986779812        2.34470194955302        5.25309465630976
C            0.66096564298747        3.57458113241667        4.64531713616275
C           -0.22387800994531        4.03862221224873        3.56683973661818
C           -1.31654913708921        0.70903123709426        5.89513572927573
C           -0.20594757988644       -0.13845335771723        6.29941547099897
C            1.05429421105786        0.34211102073805        6.07686226287640
N            1.47154073340449        1.58050761775138        5.69865858622492
C           -2.63122599312417        0.12557514068427        6.18845558960394
C           -2.69719275866764       -1.26601672444431        6.26027628688378
N           -1.62900505084941       -2.09122538787817        6.55934660472732
C           -0.41460059536560       -1.50280789999133        6.73339232234391
C            0.71785270402561       -2.25476021536544        7.09038630634166
C            1.94182861209074       -1.73665379166750        7.05579661459219
C            2.10110096491344       -0.47508284903774        6.56034914781987
C           -3.77057728864017        1.00957168862350        6.55510201348037
C           -5.04405485174472        0.39275120089037        6.60238847752926
C           -5.16108930456804       -0.93520591629961        6.20097485349462
C           -4.06539895325897       -1.78363241018409        6.24018524270284
O           -3.55129845532681        2.35252506585438        6.87308488154482
O           -2.99695825043813        1.70282676591773        3.92645970308403
C            0.03602469631612        5.13978518471025        2.73196015327015
C           -6.54664024509404       -1.43803630475916        6.08793367564146
H            1.58535366478377        4.02383594340855        4.63986408722953
H           -1.92047225137484        3.53495807846343        2.44494555846407
H            3.16429395010503       -0.11332244572254        6.50959678110384
H            0.83156185146607       -3.23916936564410        7.64030425036977
H           -4.16073577981522       -2.81272971381872        5.90569287164741
H           -5.88939168770978        0.98008827605375        6.70493713784524
O            1.24950476912686        5.40551126949790        2.59587742992966
O           -0.94629077603261        5.71490580330137        1.93447270023863
C           -0.32374680665247        5.90491993296873        0.62586397564404
C            3.18216986119913       -2.39529151469199        7.66204823587659
O            3.23832742298096       -3.37892235847527        8.43948801281596
O            4.39881595278477       -1.86388212129648        7.16401855500373
C            5.35261228441171       -2.44212097607204        7.96165298838956
O           -7.36673674991441       -0.89180594960784        6.72133552805357
O           -6.66184103157882       -2.63456053081446        5.36514934718547
C           -8.00776907083272       -2.83104763810290        5.16324809705620
C           -4.59579098626196        3.30050161801183        6.87945267271242
C           -3.82171176563485        2.05962332978473        2.83614125690972
H           -8.34500635351663       -3.31464429194349        4.14715563490611
H           -8.40448065453255       -1.79032381675668        5.19363396286901
H           -8.45809828932345       -3.50874761495221        6.07153144860411
H            6.31238896602487       -1.94335372934519        7.83457275050696
H            5.63502888711552       -3.38108310546127        7.55328574163481
H            5.22094907202071       -2.50348466549823        9.13678343576692
H           -3.78668744540914        3.21237265600196        2.59334668365947
H           -4.89580023382174        1.69114468113471        2.97962754041795
H           -3.47873506082617        1.33611261531702        2.10062830455642
H           -4.74149543640467        3.56791309954467        5.87801311771343
H           -4.28379754964967        4.32894163292952        7.22673867657894
H           -5.44992439708576        3.02947954672345        7.47447496126392
H            0.78492693671396        5.99956217616337        0.72556513262691
H           -0.69177916878101        6.73111803683985        0.05554048041312
H           -0.37241083398839        4.82996404771930        0.12255288515683
116
 energy: -22.807622660949 gnorm: 0.444592333153 xtb: 6.6.1 (8d0f1dd)
C           -3.22448845944007        0.22121791367935       -1.16291370753639
C           -2.45691004629914       -0.45723782785503       -0.25932552463987
C           -1.41807718191440        0.26406111929258        0.43741396197267
C           -1.37107685856698        1.68543982076252        0.11826766246903
C           -2.44005822371276        2.36476426409423       -0.54820328899217
C           -3.33673074128038        1.55990302607802       -1.21210258834346
C           -0.54493359149757       -0.29587568275361        1.43163316891796
C            0.62955265413613        0.40327905634698        1.61507407668502
C            0.70132451922725        1.74346118922384        1.03786595788871
N           -0.26317996272106        2.30974816198359        0.30742345692295
C           -0.79612070047296       -1.33896111299935        2.33826185060773
C            0.28051344917158       -1.93146426720739        3.07020158806187
N            1.52942806241140       -1.46061167091985        2.97180096380335
C            1.64214403258932       -0.31157360843299        2.27599816247318
C            2.86636827118352        0.37794322460145        2.32840178686243
C            3.01602172903529        1.62390028629961        1.82508189227712
C            1.99157341872161        2.30467594758399        1.08252282490051
C           -2.18074875972643       -1.61790837737610        2.71926022009229
C           -2.35917954515914       -2.81930721706067        3.33852680016913
C           -1.32507065500244       -3.60193077552812        3.76594965308106
C           -0.03108977258962       -3.18916254882106        3.63166888539005
O           -3.33556532632250       -0.88278185560799        2.22468578691660
O           -2.46131604385892       -1.86277390090066       -0.13057890806614
C           -4.14776577877560        2.19699875710566       -2.35045376686775
C           -1.66020208223392       -4.90956111098584        4.41877510091794
H           -2.32987520905175        3.39176983765841       -0.93928847308272
H           -3.81681598922278       -0.44285887015887       -1.74314178423853
H            2.25852955543484        3.32128472501099        0.71171226318685
H            3.68189959499085        0.09920377388101        2.99566872882280
H            0.75673017107267       -3.80725862521874        4.04639547526349
H           -3.30432151627430       -3.18616101262778        3.49988734929947
O           -4.55648891731246        3.34978644577609       -2.26388606757651
O           -4.36824755553106        1.38641899763164       -3.36190211617371
C           -5.30343569658325        2.06206272091242       -4.29770496935261
C            4.07169241734725        2.49826389857659        2.32419643847376
O            5.02077466444509        2.11430667834601        3.02750164088366
O            4.03477903582299        3.77040672798632        1.88423897974678
C            5.19510765011721        4.40267455568766        2.01780872842263
O           -2.75319741191069       -5.42617795136170        4.38112696015134
O           -0.54730626459176       -5.47347527995214        5.03726691875434
C           -0.80046255794864       -6.56314035164039        5.76377296096441
C           -4.62120636930133       -1.11789307829367        2.74234094861711
C           -3.59537337549037       -2.53792876993852       -0.59982298983846
H           -1.90739428134084       -6.60787677105896        6.09256563332457
H           -0.02141118933302       -6.83241805218556        6.55147966764869
H           -0.68177426725516       -7.34179567367474        5.02263475978283
H            5.92070214701748        3.84576858931075        1.43592677247016
H            5.57216500861955        4.32120953741974        3.07954871853391
H            5.14476514498730        5.44576529639724        1.69689171129660
H           -4.07815808748653       -2.06399381602393       -1.32583744595020
H           -4.35610119893485       -2.43779355560359        0.18054215067196
H           -3.52302463484297       -3.62634974823663       -0.50922279774207
H           -5.23038536446839       -0.71030829699887        1.97938156970540
H           -4.45059216874746       -0.47277518305856        3.67016828108760
H           -4.82658501030970       -2.13868757644240        2.99383236315605
H           -6.32761093342713        1.65174930079656       -3.89510373903112
H           -5.22809325505176        1.81016235326314       -5.28230844240026
H           -5.43544908100938        3.07577479524531       -4.00163189443279
C           -0.83368698782967        3.67740524747775        3.26367739873051
C           -1.40184188640115        2.49794673662371        3.61860857955739
C           -0.64608608885263        1.67738639051062        4.66375975931608
C            0.67774199870866        2.06470004616911        5.04656277442144
C            1.09562730281374        3.34493523015482        4.68184569588160
C            0.30705355861229        4.21137901003256        3.86556204353974
C           -1.19217852938433        0.59726298255825        5.34483541493229
C           -0.15936059162666       -0.20099125235243        5.97000416930051
C            1.21372325840345        0.16263311585960        5.99825716370987
N            1.65825545970988        1.32221723574137        5.52879432701505
C           -2.55320922160543        0.09928081355736        5.62406427593451
C           -2.75109135800356       -1.22629212751644        6.00099928716124
N           -1.78144862819562       -2.02677162065192        6.43758940797228
C           -0.50880951177621       -1.56743931946677        6.26569629197969
C            0.41470119097218       -2.46854303795117        6.76911761450773
C            1.79685546401124       -2.04258892241718        6.75470736900883
C            2.23078214874566       -0.77149106489986        6.35173342065236
C           -3.63906480022752        1.02673591635780        5.84524927653703
C           -4.93570308865479        0.38874983034883        5.91152179306718
C           -5.12983773919376       -1.00016165693404        5.84831074706871
C           -4.03086064119107       -1.76487670025769        6.05177622194898
O           -3.40170913980175        2.33741284461749        6.05093523078872
O           -2.56196373409136        2.02464271718114        3.04905319982138
C            0.43034425261797        5.69319139840342        3.68190766766105
C           -6.30065596832867       -1.69151175398303        5.36011447614265
H            2.09462458238859        3.51124332905473        4.85262547465837
H           -1.34074617846914        4.37120711808110        2.70942004223396
H            3.23708471096008       -0.50509097911474        6.35211885347793
H            0.02052241586636       -3.48743747449208        7.03437496043102
H           -4.18532579332432       -2.84604455694891        6.05639679072323
H           -5.87491754496164        0.83961619689942        6.24578046804185
O            1.29092605225297        6.16707496527243        4.29949334831748
O           -0.41172039273408        6.34876978257100        2.80390795415839
C            0.17507847434952        7.62329330880872        2.78287880236940
C            2.87571112982591       -3.12018852284654        7.36420105400344
O            2.71661809643727       -4.36083409077032        7.09379102247867
O            3.79814028552424       -2.51950722162087        8.23430402240352
C            4.44165664158297       -3.55711553636441        8.81976942000179
O           -6.35286193741587       -2.91561949383389        5.27697072066837
O           -7.36165250904930       -0.83809833676669        5.05523809865252
C           -8.52470172622814       -1.54414651823476        4.89527587090092
C           -4.58872504317071        3.00325556108026        6.01531232224158
C           -3.51935869878589        3.00250885408408        2.54287925938819
H           -9.34336553633337       -0.91774873496609        5.05945524815821
H           -8.32038408550924       -2.53232918921748        5.54849159211217
H           -8.56466988694411       -2.05475116336087        3.90153261608873
H            5.06411339968452       -4.11895025209214        8.06235411814457
H            3.65523936915376       -4.30439761436448        9.07413782596365
H            5.03505437406196       -3.04639585181777        9.56880817902206
H           -3.77862140768246        3.78087268834367        3.24249404721522
H           -4.39998937264444        2.48396073759435        2.15968385402965
H           -2.91660621601190        3.33493732662554        1.72584154104968
H           -5.28492504814868        2.72912171500366        5.17022255817716
H           -4.39829073855252        4.05618461457349        5.81429857513703
H           -5.03845296183137        3.02972694226651        6.99448507716805
H           -0.14172950905367        8.16639682648001        3.69251686505165
H           -0.35321399083761        8.26621070483946        1.99416337935717
H            1.25400001094083        7.54463776766393        2.75846306824534
116
 energy: -22.822633805795 gnorm: 0.392955873789 xtb: 6.6.1 (8d0f1dd)
C           -3.02055892145264       -0.64759659427900       -1.96171393458436
C           -2.14260421729690       -1.21553722245507       -1.07333670425231
C           -1.43288776715947       -0.36609493158120       -0.18974315538348
C           -1.41582500261065        1.07396254836545       -0.40156372563851
C           -2.30086730553563        1.51805542709816       -1.37246056953182
C           -3.20659122091279        0.78881815573441       -2.07738805199431
C           -0.63731727102629       -0.83848472244917        0.87011498350564
C            0.38081800516469        0.08156643551641        1.28490352649620
C            0.48792472445349        1.35191785775649        0.80287977337711
N           -0.46095253313369        1.93554144602751        0.07589129984088
C           -0.93548714804505       -1.81007795934070        1.85419219223315
C            0.08759415292030       -2.11571304194341        2.70069886514140
N            1.24087029406080       -1.45207792324761        2.89866768917581
C            1.36250395426724       -0.26797495362224        2.24593547735634
C            2.39052884015991        0.62703922569754        2.68532592071048
C            2.39512296463766        1.95063843174678        2.18706453272305
C            1.58612963245473        2.16522583375441        1.10113088806768
C           -2.24841570047072       -2.30180982668584        2.06832089798376
C           -2.48363422009775       -3.24735250057103        3.05648737813375
C           -1.34687054730350       -3.82086427401284        3.73236930445004
C           -0.12047614703594       -3.18299150167655        3.64668958629770
O           -3.38558948878154       -1.83557176705629        1.33707921347628
O           -1.69725486856664       -2.45959585674138       -1.29487498002211
C           -4.37360788550836        1.54236538534522       -2.68953444612354
C           -1.63429255577056       -5.03606607582541        4.43315720739636
H           -2.28581387048628        2.55403150954538       -1.46746111727810
H           -3.69289589327195       -1.34984220256718       -2.37622744565898
H            1.67685174215415        3.03504875532376        0.51510290978821
H            2.68104994021949        0.40527352327210        3.67350707578545
H            0.56639957750131       -3.70834308932283        4.35070239593311
H           -3.46681427160622       -3.41521864077991        3.45028617593751
O           -4.25775757941894        2.69095794413583       -3.09749935288760