116
 energy: -22.928061455056 gnorm: 0.329736929581 xtb: 6.6.1 (8d0f1dd)
C           -3.31122850772930        0.79849766164622       -0.92477639677520
C           -2.44380812530352       -0.12270372891954       -0.27661132624697
C           -1.41337090092821        0.39579727573559        0.56335275196199
C           -0.89266158675590        1.65801491088749        0.27377586709581
C           -1.72665675402493        2.51431363229076       -0.49448366572522
C           -2.95444148494349        2.13954154133227       -1.01494489940871
C           -0.74098268209890       -0.43411532818871        1.49825021926784
C            0.56872586496315        0.03782116815119        1.86248088067890
C            1.03782416582094        1.29402317993033        1.50887470833621
N            0.31238977034758        2.07067427098208        0.65193736800696
C           -1.29695700510141       -1.39996043042223        2.41574187746061
C           -0.38243517664656       -2.18060797534842        3.13232615520648
N            0.91308504082021       -1.90366887689689        3.30325166013478
C            1.37712470144904       -0.74872102533751        2.81811050966982
C            2.52149331701875       -0.17739833758153        3.39379298866852
C            2.95849061756259        1.02681208890480        2.95105897606587
C            2.24288949469137        1.78498308775960        2.03503020483770
C           -2.74860936222260       -1.74497937691422        2.38401158947411
C           -3.09416315450955       -2.91614440870436        3.00571134491758
C           -2.16786021984049       -3.77788778654213        3.63251872101904
C           -0.85708937311598       -3.40495313382985        3.68547234358092
O           -3.71994433332149       -0.94984598373544        1.67726658385724
O           -2.55702603277562       -1.47241711578389       -0.57241635275616
C           -3.84297843593025        3.13357444054366       -1.60938954875544
C           -2.68769581069131       -5.03867041417370        4.30484659386931
H           -1.39666850744143        3.51251503834900       -0.76806311868865
H           -4.27662633836220        0.55105838579656       -1.33106614114542
H            2.66329581305412        2.73912661909249        1.72562431984580
H            3.05775395548473       -0.69369546277216        4.16536137542516
H           -0.24710966264510       -4.12034095424229        4.22946223699121
H           -4.11477991332403       -3.04712728052358        3.03244694615357
O           -4.21824883374556        4.03433712717988       -0.87713382485991
O           -4.44510595673734        2.90643496899600       -2.81853501752979
C           -5.44216520282800        3.83300025693726       -3.02488532025093
C            4.23586651889298        1.50004220933226        3.59165660008449
O            5.05927614697201        0.66079890002952        3.91714215179376
O            4.47001334453535        2.86385149488593        3.72605651435371
C            5.79457498613219        3.08584475587818        4.15829123132174
O           -3.82227255313510       -5.27347675879771        4.16636005494405
O           -1.85023202017753       -5.79767454267276        5.06656077253571
C           -2.55119635829503       -6.86252441382958        5.62930343183426
C           -5.07197156564436       -1.42399175670916        1.58830531863830
C           -1.33089900128490       -2.23622472573986       -0.99264499351172
H           -2.54510546830388       -7.76426885143998        4.99136022291012
H           -3.57194749219491       -6.44405511486021        5.74196173723541
H           -2.09133598235598       -7.02043774843818        6.64022264233588
H            5.72707967266424        3.46798026205549        5.10135971236643
H            6.34060091246885        3.78468702308830        3.50069950143490
H            6.17933064298187        2.03010500085905        4.19342358084693
H           -0.91862729772622       -2.57650129080332       -0.01361370304871
H           -0.49769766914251       -1.60651221708571       -1.34094446550576
H           -1.52632419730509       -2.94569707152159       -1.75361447637286
H           -5.11788846557077       -2.41810833635233        1.17520213188926
H           -5.67929807973498       -0.69619639428435        1.04301666067831
H           -5.57598832326623       -1.42383358739762        2.57928294206544
H           -6.13050215934830        3.76035386975488       -2.23272855695873
H           -5.86615610071888        3.45938329385866       -4.02668959924245
H           -5.13479557532099        4.87790991548477       -2.98314551356402
C           -1.38192942069774        3.73616555005018        2.91232598411686
C           -1.84821468128685        2.59982427735607        3.49755545445181
C           -1.05946531454833        2.05730632010638        4.60922730982276
C            0.19893954712228        2.69376791964407        4.86302140881997
C            0.50425395911860        3.94630308659851        4.28768785650746
C           -0.26031777722226        4.46998310053134        3.25072669343212
C           -1.20488993561782        0.74454293276906        5.14851520323437
C           -0.06287609782692        0.02744069315890        5.60930570802864
C            1.19208754369866        0.71421540266195        5.78882868583885
N            1.19428660993148        2.06344359410476        5.62744624321596
C           -2.41361422770794        0.07928500213936        5.25249410304426
C           -2.45851584031083       -1.32662100968547        5.60237876023992
N           -1.29466212405906       -1.98318595734370        5.89916817085159
C           -0.14475655767527       -1.32117560077092        5.98824682881008
C            0.97209270935794       -1.98958449505532        6.53157704134458
C            2.21982707914082       -1.36973967291181        6.68703967237737
C            2.30561929262884       -0.09745313075593        6.26436900324455
C           -3.73018485967715        0.71367583494582        5.25810242262992
C           -4.89964478833448       -0.06184623426677        5.21204641615509
C           -4.82617965800088       -1.39228978090841        5.46901303780036
C           -3.67144193418464       -1.98914944386360        5.67265433266067
O           -3.75568638935321        2.07705011038914        5.52067969627343
O           -2.94192434743730        1.91263938797883        3.01658762327703
C            0.21273512614467        5.50086066357994        2.34765104514621
C           -6.06660304520411       -2.17604633098929        5.80641622556876
H            1.41756699010566        4.38133362238595        4.66974005703471
H           -1.82880610647429        4.11982501512100        2.06992133318584
H            3.26888037378556        0.32655662585251        6.31721410015598
H            0.87146188387207       -3.08471526305024        6.57830423410869
H           -3.67716811065157       -3.05999292755990        5.83019634570050
H           -5.77379677507622        0.43595144608221        4.71017130754348
O            1.34459852619901        5.82615848916894        2.44941456579099
O           -0.74718748219123        6.07961784856304        1.59848183464284
C           -0.21473095568964        7.24015934882472        1.05753806029483
C            3.53228080814219       -2.00967610361154        7.02506769044485
O            3.64093082622715       -3.14437803815732        7.50071391725347
O            4.56565258381079       -1.22937033368332        6.69086985080897
C            5.72579357310716       -1.80692399125161        7.22246151275881
O           -7.04801223588612       -1.95726935745904        5.14194115322235
O           -6.01514389321278       -2.93743591896022        6.94765316328794
C           -7.21292732384718       -3.62681918543340        7.15115816329978
C           -4.95459780685163        2.65960679932188        5.86868674392943
C           -3.68284113682406        2.59129188358641        2.05479246020704
H           -7.43119628931628       -4.22607794725959        6.20622607140901
H           -8.06548455146707       -2.91765848248592        7.29781126410398
H           -7.07314693247270       -4.33087306029711        7.91223421050944
H            6.57332189837178       -1.29353136199234        6.78341268688262
H            5.74663761932316       -2.84282155125561        6.88089468184451
H            5.69426191474290       -1.72781984964892        8.29460302186842
H           -4.10481209541493        3.44288266176275        2.60483747673152
H           -4.49244774344916        1.87419893016926        1.82433103764650
H           -3.18901540870812        2.85154642679373        1.06781919454921
H           -5.55414326821421        2.76698137191684        4.93950725322359
H           -4.78658370641210        3.62090640967288        6.25983200635257
H           -5.43485580473958        1.97242995129449        6.65265772412460
H            0.89164886030839        7.38838561720231        1.13776105146914
H           -0.62894889903848        8.04195665205089        1.64837664327952
H           -0.59282546386754        7.45699159724320        0.03719083132488
116
 energy: -22.586295162223 gnorm: 0.544653082846 xtb: 6.6.1 (8d0f1dd)
C           -3.28130638477921        0.25618770854200       -0.99241905819515
C           -2.35658162276042       -0.67714041499436       -0.59470804366425
C           -1.35430327493044       -0.32478576006112        0.32744742149777
C           -0.99322028415405        1.14224798498376        0.63381060032172
C           -2.05780985014572        1.99893302677458        0.12592433489310
C           -3.07330316090702        1.67807360602493       -0.67418808283308
C           -0.50831920493350       -1.20056919980765        1.07194302398097
C            0.72109503332180       -0.61288750613906        1.64393446783197
C            0.99717820325720        0.80765433474084        1.69113843648767
N            0.23140906393651        1.74934458910728        1.04553550684966
C           -1.03452353797225       -2.37333005900430        1.75816437620291
C           -0.03049641605025       -3.14081559679618        2.51089847124992
N            1.20986093408600       -2.80778512960488        2.81955903980566
C            1.51189760026402       -1.53092178558611        2.48417062622066
C            2.75550131083290       -1.03754604283996        2.83423961102152
C            2.92829017581061        0.33323325874786        2.84292571358396
C            2.06966780379783        1.33603214962361        2.41118245571441
C           -2.44693149008507       -2.70074222449258        1.88237552411911
C           -2.82574536090287       -3.92194497417749        2.36506025814545
C           -1.85519783363346       -4.80734434045455        2.74076976688279
C           -0.54410857955575       -4.39796614144179        3.07333049082923
O           -3.24749109910058       -1.67117847554326        1.58510105529524
O           -2.44479671563018       -2.10311541580593       -1.10309644797750
C           -4.14446699876369        2.71573972073070       -0.96533356491545
C           -2.34453046896267       -5.81481239943931        3.69946890841627
H           -2.24145327431598        3.06909464965188        0.57284410518411
H           -4.01327245488057        0.04183858565519       -1.64400292241642
H            2.62230268980692        2.22870050098395        2.45181846023797
H            3.58906921416229       -1.75189773392533        3.05612324507610
H           -0.01746620912392       -5.25114010194884        3.56929695499803
H           -3.88120482770477       -4.07875478931511        2.72498509520917
O           -4.58718047242589        3.65568329792805       -0.24579719169967
O           -4.40741256405095        2.72144144336589       -2.36966790360021
C           -5.74952107266747        3.33374923540761       -2.49239950874315
C            4.31930645157627        0.57913878009343        3.46274193906132
O            4.84991220997540       -0.27772409485581        4.32940809873706
O            4.93301772148986        1.56304905634667        2.78048866131340
C            6.17800492844297        1.86967961701407        3.35154956030531
O           -3.33756708813864       -6.46833825903891        3.44600332514264
O           -1.80665226944398       -5.96383942074309        4.93920436686218
C           -2.72646103794673       -6.34334191106600        5.90162259323399
C           -4.80354384760732       -1.87800047918893        1.55096698341141
C           -2.13473728974092       -1.89398846837677       -2.44203312187845
H           -2.69461819626985       -7.36241054087127        5.78020750098585
H           -3.63106753262845       -5.98087488008629        5.61313756916047
H           -2.35424955532512       -5.85848438718308        6.77304719440271
H            6.80147077274030        0.98215670938207        3.11392659453099
H            6.01194564036671        1.62430327706198        4.50688842166924
H            6.60741888311085        2.79402091426138        3.02730251285348
H           -2.90901596870244       -1.34962488598430       -3.01879046354424
H           -1.92727441431031       -2.80641616677876       -2.93073383101303
H           -1.25533541639539       -1.20766927907206       -2.28532094892136
H           -4.99366925760433       -2.80413428252687        2.19359315276955
H           -5.07816917536837       -2.11362757507408        0.49907737844390
H           -5.49166815836374       -1.12022169431249        1.94147982612863
H           -6.50227764916038        3.05029192564108       -1.75623349280189
H           -6.41933677450040        3.38217580050349       -3.41912566603814
H           -5.75447115261838        4.40343429823917       -2.03747581919666
C           -1.88000551628773        4.48925716425487        3.57455957080933
C           -1.95635543816147        3.27566687991349        4.10624506715549
C           -0.95804763351783        2.83335144293118        5.04080726859969
C            0.27773392384390        3.45135953462815        5.05753872690372
C            0.52529876077066        4.74665636013756        4.42193492069518
C           -0.61939403661671        5.17039166935058        3.69169459440300
C           -0.99131658100204        1.41245255496165        5.30982561109734
C            0.20008075700991        0.69206776923887        5.65759455938238
C            1.32825114140443        1.47961800538572        5.86587894988843
N            1.44938630904199        2.76201743894344        5.53560265691722
C           -2.23877396600129        0.66426699034505        5.44756053924718
C           -2.17764620398245       -0.76290751651530        5.27970246609004
N           -1.03627693698169       -1.42362265686137        5.52006221663861
C            0.07346454047949       -0.68706644971241        5.88322443334029
C            1.31235894143250       -1.23563584848234        6.31686044053586
C            2.39808250118603       -0.58804247693900        6.49287632479945
C            2.39392537622993        0.75771009942274        6.24315733910455
C           -3.40667376871488        1.33951047194629        5.96374356863247
C           -4.58074966886662        0.58703466868087        6.10051242534000
C           -4.63120794414550       -0.67507404629533        5.54032998882868
C           -3.44538207016456       -1.44551592932225        5.19526258699343
O           -3.19691783703495        2.72606707449358        6.47207126929674
O           -2.90331137773459        2.43733943839556        3.67969272369162
C           -0.42179247901208        6.22593427441449        2.71798152408631
C           -5.88273308126321       -1.33865145397740        5.41035615096105
H            1.57765314886733        5.26520696998830        4.35983333444378
H           -2.69872532775010        4.80453197376524        2.98290232336306
H            3.33604684104471        1.22994382799660        6.24599354513139
H            1.46128078797269       -2.33331521514165        6.39403428165078
H           -3.45285701584413       -2.58600653378573        5.18699880101588
H           -5.33250897649948        1.24097272553289        6.33263763662353
O            0.66910914679549        6.90450108218980        2.61214347665666
O           -1.30933260831288        6.15650196354957        1.70209602110194
C           -1.01487216000476        7.23967296456320        0.94276873797947
C            3.42299126715641       -1.35704699355455        7.33326045990354
O            3.23911956921411       -2.53069127299027        7.66110353199265
O            4.43879843207884       -0.77730682332166        7.92945922337409
C            4.84282744591244       -1.55615889250828        9.04523707715645
O           -6.90009750926759       -0.80547895718568        5.78637398383147
O           -6.08857789839777       -2.49160856904903        4.57124756453753
C           -7.34497535563418       -2.98816368062565        4.77038475869177
C           -4.33324801504267        3.29244777716486        7.07324121398860
C           -4.04287874165079        2.92404890689212        2.93474254096635
H           -7.37199492754682       -3.99091382444667        4.53353499573223
H           -8.07908280031675       -2.14183313966208        4.38734446296521
H           -7.42745249175697       -3.18058984338091        5.91245407820105
H            4.32526308536088       -1.14810871393129        9.95018478810737
H            5.93856778405416       -1.76446418139054        9.04484458734578
H            4.51758593460559       -2.76721306941572        9.07251059038823
H           -4.39462103870078        3.86298822253095        3.43142216363341
H           -4.78526953976562        2.16972484905146        2.82618225365747
H           -3.94872127812191        3.50924318440009        2.05351292585919
H           -4.97089922858519        2.70737749445732        7.78159278969174
H           -4.76894926929388        3.72216813359799        6.12072516528440
H           -4.39411471531942        4.13435015449216        7.75066386757275
H            0.08642158047670        7.43311397327258        0.72299418813720
H           -1.33922740752561        8.17408461160579        1.51946344866260
H           -1.65252656325173        7.31786475237116        0.12983442916378
116
 energy: -22.562745399858 gnorm: 0.620055470297 xtb: 6.6.1 (8d0f1dd)
C           -2.80069989479711        0.31175632881316       -0.63257661403933
C           -1.99796272833458       -0.67739866912998       -0.12433042580876
C           -0.90652418607436       -0.18413382070208        0.68520399632050
C           -0.36938666203282        1.12244695526655        0.36915582872484
C           -1.15126475761336        2.01781216551356       -0.49524085245494
C           -2.47585876920109        1.60087280516320       -0.76347710194433
C           -0.23168630011129       -1.10057251880587        1.58425100057583
C            1.04051112978014       -0.72832249802069        1.97860844672155
C            1.58006221261733        0.45525125020744        1.50735291389306
N            0.78617778325616        1.39341817447373        0.86406449631830
C           -0.88139767528116       -2.27553560886292        2.13282247308971
C            0.01991692383332       -3.26135733073263        2.70633872584078
N            1.32404107678381       -3.02226705462580        2.92410719521735
C            1.81923387423280       -1.69771179138215        2.66868184315494
C            3.03844581595482       -1.30426182972154        3.23748601123820
C            3.67441748067854       -0.17757607707501        2.57480555849485
C            3.00302724188921        0.76336107906151        1.78555144422500
C           -2.31444964342165       -2.26431438964634        2.46722664269680
C           -2.85364712605401       -3.56691948948668        2.64746502562942
C           -2.03391288762298       -4.66207281243156        2.86817309648891
C           -0.69504693700658       -4.48546183913398        2.98868724060291
O           -3.05385643361148       -1.16205180208280        2.13775181230083
O           -2.33950363915595       -2.01269349725179       -0.15407277387715
C           -3.46590183055803        2.74758409897224       -1.26356344749845
C           -2.54720668764887       -6.01538116857750        3.48828982681854
H           -0.98347524200160        3.00431531921343       -1.08043217436651
H           -3.53755371435377        0.04133527656236       -1.27024295989585
H            3.41778244299911        1.67155999811765        1.46858883342058
H            3.66163891127997       -2.02915259551695        3.58514261587888
H           -0.12368459376211       -5.31441927651340        3.37204484228553
H           -4.01655057642263       -3.77760057962759        2.48924291889766
O           -3.05918415567338        3.74733643806787       -1.81393586329942
O           -4.82485554507639        2.62893143906779       -0.99413592447448
C           -5.62072952228344        3.61732116994405       -1.47260579524370
C            5.04211837483651        0.08137857170509        3.16251489123804
O            5.51405081058990       -0.58798868803363        4.04852407175938
O            5.37317876905224        1.50237168289527        3.09060012312445
C            6.70455970953081        1.58032850199248        3.66467464318090
O           -3.61847306366190       -6.32942425572147        2.93084185115234
O           -1.60980728437663       -6.56045916020152        4.34449276318867
C           -1.69961653357082       -7.99387645427216        4.40645245164451
C           -4.45906189523832       -1.21744469157085        2.30781975599741
C           -3.35909503415810       -2.28419122967638       -0.95658393957858
H           -2.23970912033375       -8.33174825451655        3.55898894582802
H           -2.18704726611804       -8.38149421148926        5.39886057907571
H           -0.68523812984045       -8.34442219798209        4.23882300441144
H            7.09408951534846        0.61096191823740        3.48046445530062
H            6.63510345455364        1.41117629058441        4.68250298873498
H            7.07110911874146        2.64819362722705        3.26253525097688
H           -4.15758673505956       -1.55462905324706       -0.70083130618229
H           -3.78469153890589       -3.39965207221925       -0.95245109962749
H           -2.76779501365217       -1.92150692426247       -1.83924914926680
H           -4.57415493796978       -1.09710660230528        3.39294598652656
H           -4.90550287879265       -2.05266089428422        1.74330602103708
H           -4.96585520190373       -0.26508421549695        1.97110559955211
H           -5.46431988389524        4.62529982092991       -1.10314135073708
H           -6.59147476859831        3.33341226096120       -0.69281900679295
H           -5.62852861035050        3.53448874275762       -2.47300666499894
C           -2.05956088684246        4.93560949369677        3.35359785496578
C           -2.25735351675718        3.53949745335312        3.68079267389751
C           -1.33227251577948        2.74558282701728        4.38102918589773
C            0.00861811159424        3.37826985565032        4.60435287803537
C            0.21123891904502        4.61744868792135        4.02820756712097
C           -0.72706646181569        5.44050824105703        3.48510099150760
C           -1.64152906215974        1.41829079500408        5.08181749323113
C           -0.37991722493821        0.91403532823394        5.53831991041244
C            0.82295200683285        1.56497772985499        5.51663887557458
N            1.05959367561138        2.77225056859537        5.12118901555615
C           -2.77118630059206        0.72304921066223        5.57143596186291
C           -2.71327766352065       -0.62438203883389        5.85130017556797
N           -1.51315598490148       -1.19044612686766        6.15027614724749
C           -0.45868974099675       -0.46599884542633        6.02300114569513
C            0.66813788362855       -1.05792692764648        6.69764077080410
C            1.83004076074434       -0.30948221544638        6.69673939184423
C            2.05507342621123        0.91255552894719        6.03619544315927
C           -4.12728623816833        1.25744784917397        5.49764895028948
C           -5.21507630373333        0.36944211131219        5.48746300228674
C           -5.05020815595661       -1.05844194422905        5.75246899909703
C           -3.82125187714078       -1.44291803136347        6.02154606801740
O           -4.06052020380215        2.74482411432736        5.64946253939160
O           -3.40390405022351        2.95144301730177        3.18510988104336
C           -0.34932777028406        6.80582389571781        3.03204138624053
C           -6.29722698488298       -1.93709951429278        5.51379135163748
H            1.20610756096355        5.01891665328498        4.27200452558497
H           -2.71478024956229        5.39859482112974        2.69523054410647
H            3.01416970561339        1.32536470155523        5.69426618914867
H            0.61710773241817       -1.99960626990845        7.35321500770807
H           -3.65569158317420       -2.41662856015748        6.27304996851529
H           -6.09905066457753        0.68862252107271        5.56684969136824
O            0.74635654370924        7.04856319434160        2.68029972347436
O           -1.37169172640724        7.61824018674197        3.15586869651746
C           -1.15347784081756        9.04117615530002        2.98384302961872
C            2.93130037194396       -1.00598373746671        7.28955309408396
O            2.78196034448610       -1.77584902781563        8.25582027282406
O            4.09472390910737       -1.11548444987778        6.36911334406923
C            5.23760511845298       -1.82678077774638        6.74925656773980
O           -7.42876977957603       -1.43031712025749        5.58404456469395
O           -6.07882812504982       -3.36860873352861        5.49243013427375
C           -7.32792431904982       -3.93311622201727        5.34740976077363
C           -5.21217286526427        3.67316376974122        6.09134507934574
C           -3.63401152002520        3.13533491668294        1.92861814162411
H           -7.93674592741047       -3.74705796454484        6.42960148492018
H           -7.29076934973527       -5.04326333049016        5.56937595232367
H           -7.75355983582981       -3.35975682721320        4.48221656330963
H            5.96498024192812       -1.41941229488218        5.98261718150844
H            4.97568402220960       -3.07691584266759        6.68126716370192
H            5.35805684496067       -1.57634349808420        7.89493477184770
H           -4.22123060262254        4.03255372370779        1.89890731519978
H           -4.06870511243630        2.32117495935571        1.40938326381396
H           -2.60577862378928        3.45010247450313        1.64171328747587
H           -4.59436928650305        4.27568353011721        6.76999501841527
H           -6.15318559151802        3.16550028644330        6.52442288037612
H           -5.47077979957878        4.29585012934245        5.35393831898765
H           -1.21091813892345        9.43962349732337        3.91789981747641
H           -1.55224660424873        9.57620898505878        2.15977737601804
H           -0.01855121634593        9.03095467019581        2.70304717210142
116
 energy: -22.635281197440 gnorm: 0.561621449326 xtb: 6.6.1 (8d0f1dd)
C           -2.41738609935094        1.10320889077431       -0.53449897689882
C           -1.93249186931131        0.06819914268427        0.21206390975807
C           -0.89638486716035        0.30356739887468        1.24069824853991
C           -0.19894358868273        1.59647884365423        1.23224737884528
C           -0.87920111407270        2.60688950473806        0.50171548298175
C           -1.88282980737149        2.33968379012288       -0.39374246471077
C           -0.27364520413665       -0.80297349039084        1.81254705113253
C            1.06972508885002       -0.66731403763384        2.21795404188346
C            1.70738056183932        0.59184303657549        1.95963593517162
N            1.05500362373599        1.77882914011699        1.63574727797184
C           -0.85241389730178       -2.09742804932372        2.08757990095917
C            0.12453215143741       -3.01245597634288        2.65960912694313
N            1.46761218131348       -3.01292605911262        2.81036623000498
C            1.86251532071648       -1.81123728357108        2.51857536237299
C            3.21796859663421       -1.54674887120743        2.74904057758299
C            3.82272332314913       -0.37971330512488        2.40210281704980
C            3.06650472777700        0.70275687684561        2.08744237534342
C           -2.26687559232505       -2.06800584016560        2.39710479299171
C           -2.76682609785581       -3.39387147460854        2.72913260303265
C           -1.98985627016812       -4.39268091669176        3.29995868623873
C           -0.57459681163820       -4.19071959852431        3.22452793778413
O           -3.09383538241208       -1.04359662625105        2.18025538526578
O           -2.37855366721351       -1.27745558241684       -0.15496020943744
C           -2.31446856554826        3.38855133854667       -1.33238135687852
C           -2.36527497753475       -5.49989108542525        4.20401574879069
H           -0.79361124995292        3.69415106054989        0.48378122390132
H           -2.93843338117902        0.83453165193859       -1.35789929789624
H            3.46344117052988        1.52524827041636        1.73266029582594
H            3.98328800856462       -2.11443842353262        3.24295327587011
H            0.11750643745308       -5.00230469530122        3.65373937182130
H           -3.77009794015549       -3.81214801038035        2.49836476124944
O           -2.44646275213559        4.60316718399118       -1.17294042180546