274
energy: -195.865427201300 gnorm: 0.000181095291 xtb: 6.7.1 (edcfbbe)_energy: -195.865427201300 gnorm: 0.000181095291 xtb: 6.7.1 (edcfbbe)
C         -0.87580       -2.02410        1.35500
C         -1.33730       -0.89840        0.67220
C         -2.58060       -0.95140       -0.01960
C         -3.16420       -2.26560       -0.12900
C         -2.60160       -3.39020        0.51890
C         -1.51230       -3.26840        1.34500
C         -3.40130        0.15050       -0.44080
C         -4.72010       -0.16620       -0.83060
C         -5.10580       -1.50890       -1.07820
N         -4.31770       -2.52480       -0.74600
C         -3.12980        1.55880       -0.36430
C         -4.26200        2.43800       -0.21240
N         -5.50550        2.08310       -0.51680
C         -5.71900        0.83840       -0.94600
C         -6.99240        0.50320       -1.43820
C         -7.32050       -0.79360       -1.82480
C         -6.37810       -1.78860       -1.62690
C         -1.87840        2.19840       -0.49480
C         -1.73930        3.51940       -0.07830
C         -2.81520        4.31030        0.33850
C         -4.07410        3.77660        0.20060
O         -0.58870        0.19250        0.83240
O         -0.85630        1.58330       -1.09380
B          0.10500        0.86360       -0.27130
C          1.04480       -2.30870       -1.26090
C          1.52200       -1.07420       -0.82060
C          2.75850       -1.00270       -0.11900
C          3.31740       -2.27540        0.26670
C          2.73890       -3.50060       -0.14130
C          1.65820       -3.53450       -0.98630
C          3.59420        0.15030        0.07450
C          4.90380       -0.09950        0.53740
C          5.26320       -1.36850        1.06190
N          4.46000       -2.41990        0.93780
C          3.34850        1.51550       -0.29830
C          4.49840        2.32410       -0.61600
N          5.73250        2.02000       -0.22740
C          5.91980        0.89000        0.45410
C          7.18680        0.64950        1.02180
C          7.48610       -0.54100        1.66990
C          6.52420       -1.54290        1.66880
C          2.10870        2.19020       -0.32060
C          1.99960        3.39700       -1.00610
C          3.09410        4.06440       -1.56520
C          4.34110        3.54950       -1.30200
O          1.06900        1.73590        0.38280
O          0.79430       -0.02730       -1.20900
C         -1.07150       -4.37360        2.28910
C          0.44300       -4.34560        2.52560
C         -1.47240       -5.76280        1.78170
C         -1.79160       -4.11150        3.62240
C         -2.63370        5.72530        0.86310
C         -3.26950        5.80920        2.25780
C         -1.16080        6.12430        0.98240
C         -3.32920        6.70960       -0.08700
C         -8.69930       -1.06590       -2.40530
C         -8.88620       -2.53090       -2.80680
C         -8.88980       -0.19490       -3.65490
C         -9.76070       -0.71090       -1.35490
C          1.20050       -4.80310       -1.68460
C         -0.31460       -4.80280       -1.92060
C          1.58450       -6.06460       -0.90410
C          1.91950       -4.82920       -3.04360
C          2.94560        5.34100       -2.37660
C          3.59400        5.11900       -3.75020
C          3.65330        6.48980       -1.64550
C          1.48210        5.73290       -2.59450
C          8.82780       -0.79440        2.33980
C          9.75950        0.41740        2.26180
C          8.58460       -1.12120        3.81970
C          9.51550       -1.97970        1.64860
H        -10.75470       -0.91520       -1.74640
H         -9.71210        0.33900       -1.08030
H         -9.61480       -1.30610       -0.45590
H         -9.87520       -2.66320       -3.24040
H         -8.80840       -3.18730       -1.94360
H         -8.15040       -2.82920       -3.54990
H         -9.86710       -0.38220       -4.09420
H         -8.12840       -0.42830       -4.39620
H         -8.82100        0.86280       -3.41710
H         -1.50190       -4.85940        4.35730
H         -2.87030       -4.15460        3.48790
H         -1.53510       -3.12720        4.00740
H          0.75370       -5.25110        3.04280
H          0.73120       -3.50020        3.14410
H          0.98210       -4.27860        1.58420
H         -1.07780       -6.52440        2.45120
H         -1.07750       -5.94420        0.78610
H         -2.55260       -5.87650        1.75490
H         -0.64020       -5.79120       -2.23820
H         -0.59310       -4.10010       -2.70100
H         -0.84910       -4.53370       -1.01340
H          1.61720       -5.70740       -3.61010
H          2.99800       -4.85920       -2.90360
H          1.67540       -3.94090       -3.62160
H          1.17880       -6.94160       -1.40440
H          1.18930       -6.03390        0.10730
H          2.66330       -6.18420       -0.85420
H         -3.15460        6.81250        2.66260
H         -2.78530        5.10670        2.93260
H         -4.32920        5.57320        2.22240
H          3.53610        7.41600       -2.20420
H          4.71500        6.29000       -1.53310
H          3.22460        6.62670       -0.65500
H         -1.08810        7.11370        1.42980
H         -0.68860        6.16630        0.00360
H         -0.61550        5.42640        1.61330
H         -3.18900        7.72970        0.26450
H         -4.39550        6.51190       -0.14700
H         -2.90960        6.62780       -1.08740
H          3.50330        6.01720       -4.35730
H          3.10060        4.29990       -4.26890
H          4.64820        4.87570       -3.65330
H          1.43310        6.60800       -3.23970
H          1.00280        5.98720       -1.65200
H          0.92790        4.92860       -3.07240
H          9.66510       -1.76460        0.59270
H          8.92240       -2.88610        1.73140
H         10.48600       -2.16400        2.10380
H          8.08160       -0.29060        4.31060
H          9.53260       -1.29580        4.32340
H          7.96920       -2.00890        3.93490
H          9.31230        1.28610        2.73910
H         10.00100        0.66140        1.23010
H         10.68980        0.19130        2.77860
H          7.90770        1.44270        0.91960
H          6.71270       -2.50940        2.10810
H          3.26400       -4.38580        0.17600
H          5.25000        4.06290       -1.56960
H         -4.97040        4.35260        0.36320
H         -3.14440       -4.31220        0.39550
H         -7.70730        1.30810       -1.49940
H         -6.57750       -2.82220       -1.85340
H          0.14850       -2.26230       -1.85830
H          0.02740       -1.87150        1.92370
H         -0.73930        3.91470       -0.09010
H          1.00760        3.80420       -1.08930
C         -0.87580       -2.02410        9.35500
C         -1.33730       -0.89840        8.67220
C         -2.58060       -0.95140        7.98040
C         -3.16420       -2.26560        7.87100
C         -2.60160       -3.39020        8.51890
C         -1.51230       -3.26840        9.34500
C         -3.40130        0.15050        7.55920
C         -4.72010       -0.16620        7.16940
C         -5.10580       -1.50890        6.92180
N         -4.31770       -2.52480        7.25400
C         -3.12980        1.55880        7.63570
C         -4.26200        2.43800        7.78760
N         -5.50550        2.08310        7.48320
C         -5.71900        0.83840        7.05400
C         -6.99240        0.50320        6.56180
C         -7.32050       -0.79360        6.17520
C         -6.37810       -1.78860        6.37310
C         -1.87840        2.19840        7.50520
C         -1.73930        3.51940        7.92170
C         -2.81520        4.31030        8.33850
C         -4.07410        3.77660        8.20060
O         -0.58870        0.19250        8.83240
O         -0.85630        1.58330        6.90620
B          0.10500        0.86360        7.72870
C          1.04480       -2.30870        6.73910
C          1.52200       -1.07420        7.17940
C          2.75850       -1.00270        7.88100
C          3.31740       -2.27540        8.26670
C          2.73890       -3.50060        7.85870
C          1.65820       -3.53450        7.01370
C          3.59420        0.15030        8.07450
C          4.90380       -0.09950        8.53740
C          5.26320       -1.36850        9.06190
N          4.46000       -2.41990        8.93780
C          3.34850        1.51550        7.70170
C          4.49840        2.32410        7.38400
N          5.73250        2.02000        7.77260
C          5.91980        0.89000        8.45410
C          7.18680        0.64950        9.02180
C          7.48610       -0.54100        9.66990
C          6.52420       -1.54290        9.66880
C          2.10870        2.19020        7.67940
C          1.99960        3.39700        6.99390
C          3.09410        4.06440        6.43480
C          4.34110        3.54950        6.69800
O          1.06900        1.73590        8.38280
O          0.79430       -0.02730        6.79100
C         -1.07150       -4.37360       10.28910
C          0.44300       -4.34560       10.52560
C         -1.47240       -5.76280        9.78170
C         -1.79160       -4.11150       11.62240
C         -2.63370        5.72530        8.86310
C         -3.26950        5.80920       10.25780
C         -1.16080        6.12430        8.98240
C         -3.32920        6.70960        7.91300
C         -8.69930       -1.06590        5.59470
C         -8.88620       -2.53090        5.19320
C         -8.88980       -0.19490        4.34510
C         -9.76070       -0.71090        6.64510
C          1.20050       -4.80310        6.31540
C         -0.31460       -4.80280        6.07940
C          1.58450       -6.06460        7.09590
C          1.91950       -4.82920        4.95640
C          2.94560        5.34100        5.62340
C          3.59400        5.11900        4.24980
C          3.65330        6.48980        6.35450
C          1.48210        5.73290        5.40550
C          8.82780       -0.79440       10.33980
C          9.75950        0.41740       10.26180
C          8.58460       -1.12120       11.81970
C          9.51550       -1.97970        9.64860
H        -10.75470       -0.91520        6.25360
H         -9.71210        0.33900        6.91970
H         -9.61480       -1.30610        7.54410
H         -9.87520       -2.66320        4.75960
H         -8.80840       -3.18730        6.05640
H         -8.15040       -2.82920        4.45010
H         -9.86710       -0.38220        3.90580
H         -8.12840       -0.42830        3.60380
H         -8.82100        0.86280        4.58290
H         -1.50190       -4.85940       12.35730
H         -2.87030       -4.15460       11.48790
H         -1.53510       -3.12720       12.00740
H          0.75370       -5.25110       11.04280
H          0.73120       -3.50020       11.14410
H          0.98210       -4.27860        9.58420
H         -1.07780       -6.52440       10.45120
H         -1.07750       -5.94420        8.78610
H         -2.55260       -5.87650        9.75490
H         -0.64020       -5.79120        5.76180
H         -0.59310       -4.10010        5.29900
H         -0.84910       -4.53370        6.98660
H          1.61720       -5.70740        4.38990
H          2.99800       -4.85920        5.09640
H          1.67540       -3.94090        4.37840
H          1.17880       -6.94160        6.59560
H          1.18930       -6.03390        8.10730
H          2.66330       -6.18420        7.14580
H         -3.15460        6.81250       10.66260
H         -2.78530        5.10670       10.93260
H         -4.32920        5.57320       10.22240
H          3.53610        7.41600        5.79580
H          4.71500        6.29000        6.46690
H          3.22460        6.62670        7.34500
H         -1.08810        7.11370        9.42980
H         -0.68860        6.16630        8.00360
H         -0.61550        5.42640        9.61330
H         -3.18900        7.72970        8.26450
H         -4.39550        6.51190        7.85300
H         -2.90960        6.62780        6.91260
H          3.50330        6.01720        3.64270
H          3.10060        4.29990        3.73110
H          4.64820        4.87570        4.34670
H          1.43310        6.60800        4.76030
H          1.00280        5.98720        6.34800
H          0.92790        4.92860        4.92760
H          9.66510       -1.76460        8.59270
H          8.92240       -2.88610        9.73140
H         10.48600       -2.16400       10.10380
H          8.08160       -0.29060       12.31060
H          9.53260       -1.29580       12.32340
H          7.96920       -2.00890       11.93490
H          9.31230        1.28610       10.73910
H         10.00100        0.66140        9.23010
H         10.68980        0.19130       10.77860
H          7.90770        1.44270        8.91960
H          6.71270       -2.50940       10.10810
H          3.26400       -4.38580        8.17600
H          5.25000        4.06290        6.43040
H         -4.97040        4.35260        8.36320
H         -3.14440       -4.31220        8.39550
H         -7.70730        1.30810        6.50060
H         -6.57750       -2.82220        6.14660
H          0.14850       -2.26230        6.14170
H          0.02740       -1.87150        9.92370
H         -0.73930        3.91470        7.90990
H          1.00760        3.80420        6.91070
