274
energy: -391.781376575667 gnorm: 0.000650369855 xtb: 6.7.1 (edcfbbe)
C         -2.36660       -2.60700        1.29730
C         -2.68390       -1.32940        0.83160
C         -3.80060       -1.15220       -0.03620
C         -4.40340       -2.37240       -0.51970
C         -3.99790       -3.64030       -0.04980
C         -3.04490       -3.77330        0.92720
C         -4.49780        0.05920       -0.36950
C         -5.73470       -0.07520       -1.03300
C         -6.12140       -1.31320       -1.60850
N         -5.43730       -2.42400       -1.36020
C         -4.17500        1.41010       -0.01770
C         -5.25110        2.35990        0.07570
N         -6.45290        2.14880       -0.45160
C         -6.65210        1.00730       -1.11540
C         -7.84550        0.85590       -1.84020
C         -8.16080       -0.32020       -2.51400
C         -7.29520       -1.39400       -2.39200
C         -2.87390        1.92330        0.13950
C         -2.70140        3.16590        0.74330
C         -3.76500        4.03620        1.00700
C         -5.02510        3.63660        0.63410
O         -1.93530       -0.34690        1.35460
O         -1.84300        1.25640       -0.39260
B         -1.02990        0.45210        0.51860
C          0.36590       -2.56230       -0.53040
C          0.65080       -1.33310        0.07170
C          1.79800       -1.20960        0.91390
C          2.47260       -2.45010        1.21030
C          2.09220       -3.67460        0.61440
C          1.09980       -3.73250       -0.33270
C          2.48810       -0.01350        1.32080
C          3.78230       -0.16950        1.86410
C          4.26190       -1.44640        2.24200
N          3.58240       -2.54950        1.94690
C          2.14200        1.33550        1.00520
C          3.22600        2.26370        0.81620
N          4.42670        2.08740        1.35690
C          4.68220        0.92570        1.96190
C          5.97000        0.73680        2.50550
C          6.42530       -0.51430        2.90620
C          5.54780       -1.58500        2.80710
C          0.84420        1.84910        0.79750
C          0.70370        2.95460       -0.03870
C          1.79210        3.69720       -0.51360
C          3.02980        3.40860        0.01110
O         -0.20470        1.27110        1.38230
O         -0.14820       -0.34740       -0.34500
C         -2.83300       -5.09620        1.64150
C         -1.49810       -5.12900        2.38770
C         -2.90330       -6.29090        0.68250
C         -3.97590       -5.21730        2.66320
C         -3.53740        5.43780        1.54690
C         -4.58060        5.73920        2.63100
C         -2.13780        5.61580        2.14100
C         -3.70020        6.42660        0.38190
C         -9.45530       -0.38480       -3.30820
C         -9.63640       -1.72490       -4.02400
C         -9.45060        0.73000       -4.36320
C        -10.63160       -0.18510       -2.34210
C          0.91630       -4.96190       -1.20750
C         -0.39000       -4.91260       -2.00530
C          0.95590       -6.25830       -0.39020
C          2.09340       -4.96650       -2.19750
C          1.63760        4.78940       -1.56000
C          2.48150        4.38410       -2.77810
C          2.13980        6.12920       -1.00760
C          0.18780        4.96770       -2.01750
C          7.88340       -0.76580        3.26440
C          8.65250        0.53050        3.53410
C          8.01540       -1.67340        4.49130
C          8.51690       -1.46830        2.05130
H        -11.57320       -0.24130       -2.88380
H        -10.57910        0.78120       -1.84840
H        -10.62560       -0.95980       -1.57820
H        -10.56150       -1.70730       -4.59620
H         -9.69770       -2.54440       -3.31220
H         -8.81690       -1.91190       -4.71380
H        -10.36420        0.68980       -4.95210
H         -8.60260        0.60950       -5.03410
H         -9.38520        1.71250       -3.90480
H         -3.85140       -6.12180        3.25540
H         -4.93650       -5.26720        2.15450
H         -3.97360       -4.35190        3.32240
H         -1.31600       -6.12850        2.77740
H         -1.50900       -4.44130        3.22760
H         -0.67780       -4.85780        1.72800
H         -2.69810       -7.20920        1.22930
H         -2.17320       -6.19810       -0.11560
H         -3.88910       -6.38640        0.23680
H         -0.54660       -5.86250       -2.51280
H         -0.35380       -4.13350       -2.76260
H         -1.24080       -4.72230       -1.35560
H          1.99980       -5.80370       -2.88610
H          3.04010       -5.05410       -1.67010
H          2.10830       -4.04390       -2.77360
H          0.83970       -7.11270       -1.05410
H          0.15350       -6.28150        0.34030
H          1.90100       -6.36960        0.13290
H         -4.31250        6.64640        3.16850
H         -4.63340        4.90960        3.33020
H         -5.56590        5.88690        2.19800
H          2.05580        6.90000       -1.77090
H          3.17930        6.06480       -0.70060
H          1.54360        6.42810       -0.14870
H         -2.05970        6.60450        2.58890
H         -1.36750        5.54120        1.37660
H         -1.94630        4.87270        2.91050
H         -3.55710        7.44590        0.73470
H         -4.69040        6.34810       -0.05930
H         -2.96630        6.22310       -0.39540
H          2.38550        5.12740       -3.56690
H          2.14410        3.42470       -3.16430
H          3.53190        4.29520       -2.51480
H          0.14490        5.72630       -2.79690
H         -0.44580        5.29550       -1.19630
H         -0.21140        4.04220       -2.42500
H          8.42320       -0.84920        1.16160
H          8.03030       -2.42080        1.85670
H          9.57320       -1.65050        2.23640
H          7.56430       -1.20650        5.36010
H          9.06710       -1.84860        4.70790
H          7.54210       -2.63850        4.33750
H          8.15990        1.13250        4.29280
H          8.75550        1.12110        2.62720
H          9.65270        0.29000        3.88850
H          6.60780        1.60470        2.52250
H          5.84140       -2.58480        3.08400
H          2.70860       -4.52500        0.85610
H          3.89990        4.00710       -0.20130
H         -5.87970        4.29010        0.68930
H         -4.54780       -4.47740       -0.44660
H         -8.50770        1.70670       -1.84900
H         -7.49190       -2.34690       -2.85270
H         -0.47050       -2.54070       -1.20990
H         -1.54290       -2.64390        1.99120
H         -1.69600        3.45090        0.99470
H         -0.29280        3.18970       -0.36430
C         -0.24270       -2.07300        8.60700
C         -0.49280       -0.92950        7.84240
C         -1.63870       -0.88780        6.99030
C         -2.35180       -2.13610        6.86680
C         -2.00630       -3.27840        7.62510
C         -1.01220       -3.23650        8.57120
C         -2.29360        0.26130        6.42180
C         -3.59370        0.07180        5.90390
C         -4.11360       -1.22970        5.70550
N         -3.46690       -2.30180        6.15050
C         -1.90550        1.62970        6.54840
C         -2.95990        2.60810        6.60640
N         -4.16720        2.39580        6.09410
C         -4.46020        1.17000        5.65530
C         -5.75520        0.94770        5.14240
C         -6.25000       -0.33210        4.91780
C         -5.40520       -1.40530        5.16420
C         -0.59180        2.12650        6.68530
C         -0.41520        3.33170        7.36180
C         -1.47880        4.16590        7.72810
C         -2.72630        3.84640        7.24630
O          0.33670        0.07930        8.12170
O          0.43680        1.44080        6.18770
B          1.24030        0.72710        7.15890
C          2.49060       -2.44530        6.81400
C          2.84490       -1.12530        7.10020
C          3.96740       -0.86170        7.93810
C          4.53710       -2.02120        8.58510
C          4.09570       -3.33000        8.29170
C          3.13670       -3.56880        7.34130
C          4.69700        0.36490        8.10630
C          5.92930        0.28950        8.78750
C          6.28270       -0.86990        9.52630
N          5.56920       -1.98680        9.42780
C          4.41150        1.66280        7.57110
C          5.51290        2.56180        7.35570
N          6.70700        2.39320        7.91600
C          6.87430        1.34860        8.72940
C          8.06360        1.27350        9.47900
C          8.34440        0.19410       10.30420
C          7.45090       -0.86930       10.31630
C          3.12520        2.18450        7.33740
C          2.98820        3.33580        6.56650
C          4.07590        4.13290        6.19300
C          5.32350        3.75530        6.62640
O          2.07590        1.62670        7.95250
O          2.12310       -0.20410        6.44460
C         -0.86230       -4.33980        9.60580
C          0.44640       -4.21990       10.39200
C         -0.94050       -5.73400        8.97290
C         -2.03710       -4.17570       10.58490
C         -1.28770        5.38610        8.61500
C         -2.13790        5.17620        9.87720
C          0.16870        5.58220        9.04340
C         -1.75270        6.65200        7.88470
C         -7.71640       -0.58550        4.59660
C         -7.88040       -1.64370        3.50130
C         -8.44860        0.68550        4.15690
C         -8.36540       -1.10130        5.89230
C          2.88490       -4.97050        6.81490
C          1.54710       -5.06680        6.07950
C          2.92400       -6.02380        7.92880
C          4.02030       -5.26320        5.81990
C          3.88840        5.45230        5.46370
C          4.93970        5.57080        4.35230
C          4.07990        6.58770        6.48150
C          2.49440        5.58650        4.84550
C          9.60590        0.12360       11.14990
C         10.45190        1.39540       11.04750
C          9.20980       -0.07310       12.61920
C         10.45350       -1.06250       10.67010
H         -9.42780       -1.27240        5.73400
H         -8.24750       -0.37370        6.69260
H         -7.90810       -2.03500        6.21050
H         -8.93800       -1.81960        3.31650
H         -7.42800       -2.59130        3.77820
H         -7.42650       -1.30620        2.57580
H         -9.45590        0.42930        3.83540
H         -7.94040        1.16730        3.32600
H         -8.53210        1.39340        4.97770
H         -1.96550       -4.91250       11.38210
H         -2.98690       -4.30840       10.07270
H         -2.02510       -3.18260       11.02870
H          0.57610       -5.09560       11.02520
H          0.43450       -3.34380       11.03540
H          1.30110       -4.14540        9.72410
H         -0.85060       -6.49280        9.74780
H         -0.13860       -5.88060        8.25640
H         -1.88810       -5.88740        8.46520
H          1.33500       -6.10470        5.83080
H          1.57500       -4.50160        5.15310
H          0.73710       -4.68390        6.69510
H          3.86840       -6.23680        5.35800
H          4.98100       -5.26950        6.33070
H          4.03930       -4.49720        5.04770
H          2.69190       -7.00230        7.51280
H          2.19870       -5.80200        8.70550
H          3.90790       -6.08500        8.38480
H         -2.01710        6.01730       10.55680
H         -1.82700        4.26920       10.39100
H         -3.19160        5.08300        9.62870
H          3.96490        7.55200        5.99080
H          5.06780        6.54360        6.93230
H          3.34110        6.51410        7.27710
H          0.23730        6.43940        9.71070
H          0.80810        5.77460        8.18470
H          0.54210        4.71020        9.57450
H         -1.64260        7.51720        8.53530
H         -2.79510        6.57730        7.58980
H         -1.15190        6.81280        6.99260
H          4.69890        6.40350        3.69470
H          4.96680        4.65200        3.77360
H          5.92920        5.74650        4.76460
H          2.44450        6.50650        4.26630
H          1.72240        5.63890        5.61000
H          2.28190        4.75090        4.18410
H         10.71970       -0.93360        9.62300
H          9.91490       -2.00030       10.77190
H         11.36920       -1.12740       11.25350
H          8.58890        0.75500       12.95460
H         10.09970       -0.11100       13.24350
H          8.65460       -0.99560       12.76180
H          9.88650        2.26770       11.36690
H         10.80550        1.55210       10.03130
H         11.32220        1.30330       11.69390
H          8.73830        2.10580        9.37430
H          7.63200       -1.75570       10.90250
H          4.62320       -4.11990        8.80000
H          6.19560        4.37230        6.48810
H         -3.57710        4.49480        7.37320
H         -2.64930       -4.13460        7.50230
H         -6.36640        1.82410        5.00600
H         -5.73020       -2.42430        5.02790
H          1.66410       -2.55380        6.13110
H          0.59650       -1.98400        9.27750
H          0.58880        3.57810        7.65430
H          1.99170        3.61010        6.27160
