150
 energy: -332.099664765101 gnorm: 0.357430770137 xtb: 6.7.1 (edcfbbe)
C           -1.27660000000000        4.70780000000000       -0.69400000000000
C            1.92560000000000       -1.19770000000000        2.37590000000000
C           -4.24750000000000        0.84170000000000       -1.92610000000000
C           -3.29250000000000        0.26420000000000       -1.09240000000000
C           -2.45550000000000        1.12980000000000       -0.31400000000000
C           -2.43480000000000        2.51480000000000       -0.62540000000000
C           -3.42580000000000        3.01950000000000       -1.46660000000000
C           -4.33120000000000        2.20430000000000       -2.09440000000000
C           -1.53680000000000        0.62780000000000        0.66840000000000
C           -0.40780000000000        1.42340000000000        0.98740000000000
C           -0.38650000000000        2.80380000000000        0.65360000000000
N           -1.39450000000000        3.33130000000000       -0.16100000000000
C           -1.69950000000000       -0.60720000000000        1.39140000000000
C           -0.54800000000000       -1.23260000000000        1.94200000000000
N            0.67080000000000       -0.53550000000000        1.96440000000000
C            0.68600000000000        0.83570000000000        1.67110000000000
C            1.72050000000000        1.66620000000000        2.08370000000000
C            1.65850000000000        3.02920000000000        1.91450000000000
C            0.63440000000000        3.58820000000000        1.18580000000000
C           -2.99150000000000       -1.16170000000000        1.66590000000000
C           -3.05840000000000       -2.41170000000000        2.27450000000000
C           -1.92540000000000       -3.07340000000000        2.68130000000000
C           -0.69570000000000       -2.48540000000000        2.53750000000000
O           -4.13050000000000       -0.41330000000000        1.38570000000000
O           -3.07100000000000       -1.10760000000000       -1.04490000000000
H           -4.93990000000000        0.22280000000000       -2.46880000000000
H           -3.50600000000000        4.07750000000000       -1.63720000000000
H           -4.00910000000000       -2.87920000000000        2.46210000000000
H            0.14650000000000       -3.01620000000000        2.94130000000000
H            2.55830000000000        1.26480000000000        2.62290000000000
H            0.61310000000000        4.65910000000000        1.08600000000000
C            2.87800000000000       -1.46170000000000        1.22020000000000
C            4.17960000000000       -2.10710000000000        1.67880000000000
C           -2.11190000000000        5.70880000000000        0.09460000000000
C           -2.28220000000000        7.05250000000000       -0.59390000000000
C           -5.32260000000000       -1.15600000000000        1.30090000000000
C           -3.72070000000000       -1.86290000000000       -2.03850000000000
S           -5.65290000000000        2.96570000000000       -3.22910000000000
F           -5.06020000000000        4.39810000000000       -2.88850000000000
F           -4.60230000000000        2.81940000000000       -4.41220000000000
F           -6.60230000000000        3.05170000000000       -1.95830000000000
F           -6.74930000000000        3.59900000000000       -4.18260000000000
F           -6.18360000000000        1.49970000000000       -3.52140000000000
S           -2.05580000000000       -4.78750000000000        3.48100000000000
F           -3.43270000000000       -4.98430000000000        2.72440000000000
F           -2.81770000000000       -4.10200000000000        4.68480000000000
F           -2.14680000000000       -6.20310000000000        4.16700000000000
F           -1.27770000000000       -5.35940000000000        2.22350000000000
F           -0.68030000000000       -4.48870000000000        4.19800000000000
S            2.95840000000000        4.12590000000000        2.76150000000000
F            3.99690000000000        3.64100000000000        1.66970000000000
F            2.50510000000000        5.31140000000000        1.81570000000000
F            4.01360000000000        5.03190000000000        3.50750000000000
F            1.81790000000000        4.50130000000000        3.79250000000000
F            3.32870000000000        2.88710000000000        3.67210000000000
H            1.71450000000000       -2.12790000000000        2.89900000000000
H            2.41740000000000       -0.59100000000000        3.13420000000000
H            3.08360000000000       -0.51850000000000        0.69930000000000
H            2.37500000000000       -2.09600000000000        0.47990000000000
H            4.69280000000000       -1.47800000000000        2.40980000000000
H            4.86650000000000       -2.28860000000000        0.85060000000000
H            3.99040000000000       -3.06200000000000        2.17420000000000
H           -3.37150000000000       -2.89360000000000       -1.95930000000000
H           -3.46340000000000       -1.47120000000000       -3.02400000000000
H           -4.79940000000000       -1.83780000000000       -1.87950000000000
H           -6.10280000000000       -0.50060000000000        0.91030000000000
H           -5.60890000000000       -1.51510000000000        2.28960000000000
H           -5.17920000000000       -1.99380000000000        0.61740000000000
H           -1.57940000000000        4.69540000000000       -1.74400000000000
H           -0.22620000000000        5.00590000000000       -0.72030000000000
H           -1.66670000000000        5.84930000000000        1.08840000000000
H           -3.09610000000000        5.26660000000000        0.30360000000000
H           -1.31780000000000        7.52850000000000       -0.77600000000000
H           -2.88200000000000        7.73770000000000        0.00930000000000
H           -2.78140000000000        6.94230000000000       -1.55790000000000
C            1.08210000000000        2.20250000000000        5.20410000000000
C           -0.98860000000000       -4.46520000000000        7.61950000000000
C           -3.91860000000000        1.98240000000000        4.07980000000000
C           -3.65450000000000        0.77980000000000        4.72910000000000
C           -2.36340000000000        0.59640000000000        5.32240000000000
C           -1.33400000000000        1.53490000000000        5.03960000000000
C           -1.67680000000000        2.71620000000000        4.38150000000000
C           -2.95000000000000        2.94470000000000        3.92880000000000
C           -2.04090000000000       -0.57010000000000        6.10370000000000
C           -0.69300000000000       -1.00930000000000        6.08820000000000
C            0.32460000000000       -0.11790000000000        5.66460000000000
N           -0.00040000000000        1.20470000000000        5.33040000000000
C           -2.99080000000000       -1.34470000000000        6.85160000000000
C           -2.66000000000000       -2.68040000000000        7.20130000000000
N           -1.35380000000000       -3.15770000000000        7.02790000000000
C           -0.36880000000000       -2.34080000000000        6.46200000000000
C            0.92580000000000       -2.79170000000000        6.21450000000000
C            1.89740000000000       -1.94570000000000        5.73250000000000
C            1.61630000000000       -0.61400000000000        5.53800000000000
C           -4.20000000000000       -0.77900000000000        7.37490000000000
C           -5.12840000000000       -1.63310000000000        7.96620000000000
C           -4.86570000000000       -2.97070000000000        8.15040000000000
C           -3.64350000000000       -3.47470000000000        7.78940000000000
O           -4.36750000000000        0.60090000000000        7.34120000000000
O           -4.57170000000000       -0.26580000000000        4.75350000000000
H           -4.88880000000000        2.17520000000000        3.65650000000000
H           -0.94390000000000        3.47280000000000        4.17020000000000
H           -6.07670000000000       -1.25440000000000        8.30420000000000
H           -3.46420000000000       -4.51980000000000        7.96450000000000
H            1.17940000000000       -3.82920000000000        6.34250000000000
H            2.41310000000000        0.02300000000000        5.20140000000000
C           -1.29710000000000       -5.63140000000000        6.68830000000000
C           -1.25360000000000       -6.99180000000000        7.36370000000000
C            1.61830000000000        2.68610000000000        6.54250000000000
C            2.75870000000000        3.68360000000000        6.38340000000000
C           -5.43090000000000        1.10290000000000        8.11360000000000
C           -5.90380000000000        0.10560000000000        4.49580000000000
S           -3.35480000000000        4.57930000000000        3.05750000000000
F           -3.08820000000000        5.30510000000000        4.44150000000000
F           -1.82070000000000        4.69580000000000        2.69930000000000
F           -4.87180000000000        4.36390000000000        3.45620000000000
F           -3.66560000000000        5.93470000000000        2.31620000000000
F           -3.58750000000000        3.74670000000000        1.73340000000000
S           -6.15590000000000       -4.11760000000000        8.94640000000000
F           -6.74100000000000       -4.36340000000000        7.49000000000000
F           -7.10740000000000       -2.85930000000000        9.11190000000000
F           -7.22920000000000       -5.07170000000000        9.61770000000000
F           -5.14420000000000       -5.32460000000000        8.74950000000000
F           -5.47230000000000       -3.78220000000000       10.34120000000000
S            3.61390000000000       -2.60900000000000        5.25910000000000
F            3.83170000000000       -1.28630000000000        4.41990000000000
F            4.18550000000000       -1.89040000000000        6.54870000000000
F            5.02430000000000       -3.16170000000000        4.81680000000000
F            3.29560000000000       -3.90340000000000        6.11250000000000
F            2.90350000000000       -3.25160000000000        3.99890000000000
H           -1.52610000000000       -4.57440000000000        8.56480000000000
H            0.06480000000000       -4.45990000000000        7.90810000000000
H           -0.60230000000000       -5.61080000000000        5.83840000000000
H           -2.28330000000000       -5.47150000000000        6.23030000000000
H           -0.27040000000000       -7.18890000000000        7.79280000000000
H           -1.47540000000000       -7.79580000000000        6.65840000000000
H           -1.98370000000000       -7.05510000000000        8.17220000000000
H           -6.54050000000000       -0.75790000000000        4.69520000000000
H           -6.01170000000000        0.40550000000000        3.45320000000000
H           -6.18670000000000        0.92360000000000        5.15970000000000
H           -5.38070000000000        2.19250000000000        8.08670000000000
H           -5.32700000000000        0.76380000000000        9.14570000000000
H           -6.38300000000000        0.77870000000000        7.69200000000000
H            0.75270000000000        3.05260000000000        4.61060000000000
H            1.88990000000000        1.78070000000000        4.60870000000000
H            1.94790000000000        1.82200000000000        7.13240000000000
H            0.79660000000000        3.13100000000000        7.11710000000000
H            3.58580000000000        3.24690000000000        5.81910000000000
H            3.14950000000000        4.02320000000000        7.34390000000000
H            2.43470000000000        4.56330000000000        5.82280000000000
150
 energy: -332.197748846105 gnorm: 0.244809298279 xtb: 6.7.1 (edcfbbe)
C           -1.27652836608904        4.69733597283398       -0.69509836034196
C            1.91311806311843       -1.18743405903506        2.36467121284921
C           -4.24587381636013        0.83589294676617       -1.92766655963419
C           -3.29184528261762        0.27117676660085       -1.08902848598335
C           -2.44788844359295        1.12631704535906       -0.31964356986040
C           -2.42181876259964        2.51150596234322       -0.63076375931165
C           -3.41549307625368        3.02698903757957       -1.46490864381305
C           -4.32513375394818        2.20256875942933       -2.08300501974946
C           -1.54064540427580        0.62535953249927        0.66627029992254
C           -0.41262531003794        1.42243354958200        0.98829664922127
C           -0.39179422073141        2.80242240029134        0.64972644763814
N           -1.39119667665915        3.32782731082646       -0.16308692256695
C           -1.70349378353127       -0.60019449101598        1.39632195996900
C           -0.55046341812976       -1.22010631063231        1.95005151932302
N            0.66545129388492       -0.53407748845105        1.95520605569694
C            0.67764773805922        0.83310577267235        1.67690458561676
C            1.72153134160801        1.65798704312021        2.08643607209034
C            1.65302760205542        3.02250905578939        1.90340675738358
C            0.62695564343960        3.59359648489847        1.18216312071478
C           -2.98552908728707       -1.16172680827814        1.66511553370881
C           -3.06472863119971       -2.40809687676413        2.27426835121399
C           -1.92347747911782       -3.06216170942111        2.67182852112674
C           -0.68692427948055       -2.47864764750351        2.53942687679319
O           -4.11106499337556       -0.42452687330565        1.38020523909738
O           -3.07263732037932       -1.08758073044189       -1.04224423803229
H           -4.93487291878466        0.21587077271837       -2.46885280884057
H           -3.49533695771487        4.08143312626482       -1.63135811309212
H           -4.01287605412735       -2.87504421693265        2.46466727876547
H            0.15569544123617       -3.01245010581705        2.93334359724512
H            2.56501848655565        1.25323701284343        2.60952784280117
H            0.60620274113144        4.66106703717323        1.08051604544299
C            2.87368723361596       -1.45703668952089        1.20797763387746
C            4.17691495108647       -2.10418260411491        1.67295242814370
C           -2.11013662423707        5.70901426902520        0.08871019899591
C           -2.27814217120630        7.05237958743226       -0.60265819807564
C           -5.31608822302658       -1.15667135787290        1.30033411023841
C           -3.71937900679508       -1.85654977105125       -2.03388889873475
S           -5.63385864385824        2.95457363484661       -3.20978361108121
F           -5.06926743270583        4.42775357591869       -2.89888847766064
F           -4.59763959690198        2.82251273685300       -4.43676395439006
F           -6.62667707014456        3.05843880634916       -1.94713070330872
F           -6.73511832445095        3.58907097328576       -4.16918668096631
F           -6.20516737583337        1.48758231989681       -3.53760586399078
S           -2.05573239996095       -4.75711733336807        3.45644303674708
F           -3.45531244321451       -5.00343864307623        2.71046401658861
F           -2.83537181731881       -4.09646897558675        4.69317169797390
F           -2.14937589719563       -6.18686893690512        4.13585377473790
F           -1.26614115890039       -5.37827927149748        2.20230899575251
F           -0.66142097295856       -4.49040000688386        4.20114581442728
S            2.94246692263815        4.11459630460271        2.73273009544676
F            4.02776928867735        3.64258867699203        1.65030133921029
F            2.51725333229595        5.34487848311318        1.79728700123684
F            4.00267040883886        5.02464954881765        3.48474751340901
F            1.81044962557329        4.53481506405140        3.79071761453465
F            3.35654108882942        2.88745086033290        3.67877321785102
H            1.69461476643060       -2.11806920067807        2.87537319221007
H            2.40679262553460       -0.57489142904469        3.11342401644060
H            3.08895929751600       -0.51384161376250        0.69831426907347
H            2.37558442828583       -2.10219290111039        0.47899597832552
H            4.69185467553118       -1.47410611862591        2.39506947270562
H            4.85686625123679       -2.28247477674920        0.84291579461642
H            3.99029843483837       -3.05909699904461        2.15798394508598
H           -3.36341285567853       -2.88408868659077       -1.94610556502035
H           -3.46973329805767       -1.47544987879637       -3.02751896102708
H           -4.80199994468772       -1.84321809634945       -1.88703339675063
H           -6.08875005685036       -0.49199204889852        0.91020011828092
H           -5.61501360460088       -1.51952092923413        2.28591674898210
H           -5.18827208923366       -1.99970701104384        0.61839995875557
H           -1.58743950553808        4.68609747864851       -1.74342428926473
H           -0.22583531028029        4.99563751999619       -0.70904258613169
H           -1.65530946655278        5.86402037112741        1.06660712132151
H           -3.09251015104773        5.27403624972518        0.27849362523334
H           -1.31410267466673        7.52700509780655       -0.77723473094535
H           -2.87733851773402        7.72644663817105        0.00944553595612
H           -2.78152024743593        6.93919952515724       -1.56130282490696
C            1.07071956053073        2.18896288248192        5.21230405638899
C           -0.99169991891158       -4.45509244133216        7.62028690511259
C           -3.92356041729489        1.97712239486618        4.07848432656484
C           -3.64905282836596        0.78135909900121        4.73102248352786
C           -2.36388196929948        0.58868088217208        5.31677407028057
C           -1.33079219336286        1.52249722459950        5.03154888248395
C           -1.66625311225723        2.71230038590968        4.38200840592236
C           -2.94740574506280        2.93419990167505        3.93902731890102
C           -2.04565475501202       -0.56894594942469        6.10467372812124
C           -0.69749611117537       -1.00975805455689        6.08612077104384
C            0.31763148899826       -0.11753689953961        5.65702376002163
N           -0.00692232647875        1.20151619191634        5.33800558761766
C           -2.98618328524605       -1.33956757455618        6.85851723110437
C           -2.65026459165993       -2.67396025383710        7.20929466621463
N           -1.35213651807520       -3.15337406473220        7.03068959606465
C           -0.37494303025301       -2.34117200116343        6.46432948426512
C            0.91959467753546       -2.79919110587785        6.21642888103503
C            1.88781421197891       -1.94119888151311        5.74172402976191
C            1.61573355905878       -0.60572090775770        5.53526491857815
C           -4.19664680753902       -0.78539245246109        7.37196083547367
C           -5.12888822888081       -1.62716206477786        7.96787424578602
C           -4.85771891735880       -2.96685615737825        8.14083842497989
C           -3.63140189340524       -3.47898513137988        7.79060918655322
O           -4.36276568958373        0.58126056945923        7.33879424796112
O           -4.55806559571467       -0.24983929517028        4.76264034781664
H           -4.89055701548385        2.17025230198102        3.65325959156549
H           -0.93605425864070        3.47140190310357        4.18024881853809
H           -6.07417289867121       -1.24646905528148        8.30478577414706
H           -3.45145240943917       -4.52014947269952        7.96247954562578
H            1.17225038340612       -3.83335543707774        6.34612524149119
H            2.41301249058542        0.03542454697076        5.21545714284600
C           -1.29670245882139       -5.63129152895825        6.69458082479419
C           -1.25189812591995       -6.99083127247441        7.37321657237261
C            1.61265626529637        2.68000339111090        6.55350243476343
C            2.75565196176443        3.67987035364972        6.38879007280895
C           -5.42669619754905        1.09745016097702        8.10965120465012
C           -5.89803962486254        0.10801471006364        4.49806547787747
S           -3.35211054255077        4.54940561368552        3.08245783945404
F           -3.08774477766595        5.32581898372427        4.46412771759672
F           -1.80274685495212        4.70269892580507        2.70061133307520
F           -4.90134963571192        4.37537750947178        3.46347972362456
F           -3.67113657220811        5.91749008167737        2.34660673589228
F           -3.60003948632509        3.73711270003695        1.72099621063402
S           -6.13668208931546       -4.10074765227881        8.93194665316927
F           -6.75985600620654       -4.37514256218331        7.47340199281167
F           -7.13411470355680       -2.85404033073056        9.12349364524683
F           -7.21553597209060       -5.05755155056964        9.60793174209742
F           -5.14733745485499       -5.35620597422195        8.75681685849994
F           -5.47236078795869       -3.78588609716928       10.36601953101627
S            3.58907597531775       -2.60374393768908        5.28269130032887
F            3.85963084416119       -1.27847537707492        4.42071511754615
F            4.21000595139089       -1.88413611505939        6.57474965651015
F            5.00691699558193       -3.15852996259790        4.83624074446555
F            3.31185399357628       -3.93286958207406        6.13454635368087
F            2.90578258882590       -3.28590417361539        3.99967704618772
H           -1.53604019642611       -4.56769816910185        8.56202045753414
H            0.06501480222992       -4.44946765561971        7.89686988570916
H           -0.59292324549375       -5.62252221182905        5.86277620793199
H           -2.28384522074163       -5.47875211043096        6.25610833431452
H           -0.26757367366012       -7.18655708223979        7.79489906737012
H           -1.47407491514612       -7.78364034070186        6.65895805947016
H           -1.98543646018762       -7.05228018641561        8.17533169862224
H           -6.52500877830863       -0.76220256856623        4.69953231277453
H           -6.01953656145211        0.40788627672293        3.45510982159396
H           -6.19636068204518        0.92667048993521        5.15626521193875
H           -5.36711297797731        2.18626879310428        8.07634555898523
H           -5.33487929461989        0.76599809165324        9.14730060873046
H           -6.38879449844894        0.78294733110466        7.69832189471133
H            0.73127066599921        3.03703740089450        4.62893641667108
H            1.87958947926660        1.76178401484581        4.62667173730216
H            1.95389205514775        1.81896006154231        7.13479753575072
H            0.79520214263839        3.13702242620708        7.11793961596999
H            3.58251809134827        3.24242828696094        5.83344840987361
H            3.14048303456011        4.01420486567505        7.34956643387414
H            2.43165032837999        4.56000217479776        5.83909442667469
150
 energy: -332.274330185873 gnorm: 0.082003058148 xtb: 6.7.1 (edcfbbe)
C           -1.27434827023666        4.68723139767343       -0.69711496804227
C            1.90243395445199       -1.17920213138055        2.35845750843069
C           -4.24702316610426        0.83035481499397       -1.93245212499580
C           -3.29047598952123        0.27601274973688       -1.08917049912529
C           -2.44191798842926        1.12347795506700       -0.32495501710054
C           -2.41043515639966        2.51033881762033       -0.63489359568662
C           -3.40685754413773        3.03656338798860       -1.46522810913147
C           -4.31540874690490        2.19920235533295       -2.06840435186692
C           -1.54484989249801        0.62346966736104        0.66454084266122
C           -0.41671165395887        1.42336238132966        0.99045396548912
C           -0.39868349183138        2.80254552762326        0.64513786393236
N           -1.38785109245555        3.32508434403989       -0.16614983388893
C           -1.70764554011708       -0.59361465899777        1.40131893336649
C           -0.55074811840623       -1.20841358113917        1.95697763654162
N            0.66195980031778       -0.53359592102156        1.94595117444592
C            0.67099849063670        0.83106463427630        1.68198265868574
C            1.72497358431598        1.65116537623689        2.08940207108901
C            1.64132968344319        3.01257100298791        1.89045888548734
C            0.62036740110412        3.60125259820610        1.17888096663254
C           -2.98298887747108       -1.16057696948294        1.66555499935088
C           -3.07346621049163       -2.40748375834430        2.27515135127144
C           -1.92141585852422       -3.04658393636295        2.66026738518455
C           -0.67745170394165       -2.47382230950271        2.54146202901783
O           -4.09181533866450       -0.43836398292225        1.37476396471440
O           -3.07574639048374       -1.06637472367001       -1.04229176919774
H           -4.93429319774375        0.21279989067903       -2.47217283918487
H           -3.49191651620870        4.08710408354161       -1.62889249213496
H           -4.01603237837287       -2.87691323333334        2.46785337225814
H            0.16151254969869       -3.01380242698935        2.92657062825038
H            2.57492510002674        1.24952549813383        2.59844459838104
H            0.60325503542759        4.66554515670725        1.07937895080780
C            2.86930157255384       -1.45176143338473        1.19498733656699
C            4.17430245426824       -2.10132753930212        1.66735863819241
C           -2.11035200446595        5.70767843991406        0.08704258310632
C           -2.27373394381285        7.05161892456455       -0.61305661049850
C           -5.31224558628104       -1.15707846282464        1.29903442042026
C           -3.71839903966065       -1.85271693940536       -2.03011012271189
S           -5.60046159461164        2.93610507839366       -3.17716059161656
F           -5.07801583835708        4.47014996044167       -2.91006406112590
F           -4.58709055404920        2.82549752333036       -4.47129148084442
F           -6.66104924007420        3.06692842128499       -1.92892105381277
F           -6.71300494168433        3.57510842825387       -4.14922588225698
F           -6.23477732495302        1.46776346654558       -3.55914959935548
S           -2.05295304957634       -4.70807566060462        3.42519522658320
F           -3.48801116725033       -5.02967961303763        2.69720719022655
F           -2.85972963234122       -4.08714620910824        4.71541494998283
F           -2.15215639040536       -6.16246977443559        4.10263907846017
F           -1.24745287745920       -5.40789201022836        2.17756562074538
F           -0.62890529233685       -4.49492273633408        4.21470186450206
S            2.90994600520484        4.08887389242865        2.69590606613299
F            4.06776366327478        3.64214756573273        1.62753441393659
F            2.52885281099973        5.38774379679477        1.77716442685251
F            3.98192474486481        5.00864370817603        3.46073241950887
F            1.79211100484014        4.57541707373135        3.79800061001042
F            3.39366003852397        2.87668800914578        3.69243424251702
H            1.68581464387085       -2.11332042322151        2.85578983621763
H            2.40277991205893       -0.56564759105171        3.09889270647887
H            3.09283518523526       -0.50983193917350        0.69540412625109
H            2.37561946645097       -2.10612992802472        0.47745972869589
H            4.68943835967105       -1.47003364337032        2.38179647006294
H            4.84665271477158       -2.27576632440047        0.83260804760753
H            3.98749832671837       -3.05508494537256        2.14517248134270
H           -3.35342673250090       -2.87501990736529       -1.93091288467163
H           -3.47476662184147       -1.48008919178054       -3.02992017955515
H           -4.80381102613371       -1.84914997612395       -1.89277580322872
H           -6.07397233348219       -0.48100127503749        0.90954171462315
H           -5.62038897330301       -1.52152720680149        2.28234261252865
H           -5.19727871322447       -2.00474200854000        0.61906770158331
H           -1.59117843240392        4.67798730101749       -1.74317353289952
H           -0.22496354536964        4.98646857979043       -0.70234123570866
H           -1.64777882718395        5.87642308699387        1.05033446325923
H           -3.09133159484252        5.28172820725328        0.26448872584337
H           -1.31069910912760        7.52558077464970       -0.78053347092522
H           -2.87220693323645        7.71489486545914        0.00828723535888
H           -2.78082590689013        6.93765674663305       -1.56657322101926
C            1.06160529461141        2.17795667811919        5.21610800240274
C           -0.99292921077884       -4.44479514877343        7.62247096267286
C           -3.93129523154458        1.97407744822488        4.07540444871216
C           -3.64615860758759        0.78088706442346        4.73099143678602
C           -2.36461917002476        0.58133505102656        5.31106362741225
C           -1.32609813334291        1.51146066831518        5.02511500113382