116
 energy: -22.928061455056 gnorm: 0.329736929581 xtb: 6.6.1 (8d0f1dd)
C           -3.31122850772930        0.79849766164622       -0.92477639677520
C           -2.44380812530352       -0.12270372891954       -0.27661132624697
C           -1.41337090092821        0.39579727573559        0.56335275196199
C           -0.89266158675590        1.65801491088749        0.27377586709581
C           -1.72665675402493        2.51431363229076       -0.49448366572522
C           -2.95444148494349        2.13954154133227       -1.01494489940871
C           -0.74098268209890       -0.43411532818871        1.49825021926784
C            0.56872586496315        0.03782116815119        1.86248088067890
C            1.03782416582094        1.29402317993033        1.50887470833621
N            0.31238977034758        2.07067427098208        0.65193736800696
C           -1.29695700510141       -1.39996043042223        2.41574187746061
C           -0.38243517664656       -2.18060797534842        3.13232615520648
N            0.91308504082021       -1.90366887689689        3.30325166013478
C            1.37712470144904       -0.74872102533751        2.81811050966982
C            2.52149331701875       -0.17739833758153        3.39379298866852
C            2.95849061756259        1.02681208890480        2.95105897606587
C            2.24288949469137        1.78498308775960        2.03503020483770
C           -2.74860936222260       -1.74497937691422        2.38401158947411
C           -3.09416315450955       -2.91614440870436        3.00571134491758
C           -2.16786021984049       -3.77788778654213        3.63251872101904
C           -0.85708937311598       -3.40495313382985        3.68547234358092
O           -3.71994433332149       -0.94984598373544        1.67726658385724
O           -2.55702603277562       -1.47241711578389       -0.57241635275616
C           -3.84297843593025        3.13357444054366       -1.60938954875544
C           -2.68769581069131       -5.03867041417370        4.30484659386931
H           -1.39666850744143        3.51251503834900       -0.76806311868865
H           -4.27662633836220        0.55105838579656       -1.33106614114542
H            2.66329581305412        2.73912661909249        1.72562431984580
H            3.05775395548473       -0.69369546277216        4.16536137542516
H           -0.24710966264510       -4.12034095424229        4.22946223699121
H           -4.11477991332403       -3.04712728052358        3.03244694615357
O           -4.21824883374556        4.03433712717988       -0.87713382485991
O           -4.44510595673734        2.90643496899600       -2.81853501752979
C           -5.44216520282800        3.83300025693726       -3.02488532025093
C            4.23586651889298        1.50004220933226        3.59165660008449
O            5.05927614697201        0.66079890002952        3.91714215179376
O            4.47001334453535        2.86385149488593        3.72605651435371
C            5.79457498613219        3.08584475587818        4.15829123132174
O           -3.82227255313510       -5.27347675879771        4.16636005494405
O           -1.85023202017753       -5.79767454267276        5.06656077253571
C           -2.55119635829503       -6.86252441382958        5.62930343183426
C           -5.07197156564436       -1.42399175670916        1.58830531863830
C           -1.33089900128490       -2.23622472573986       -0.99264499351172
H           -2.54510546830388       -7.76426885143998        4.99136022291012
H           -3.57194749219491       -6.44405511486021        5.74196173723541
H           -2.09133598235598       -7.02043774843818        6.64022264233588
H            5.72707967266424        3.46798026205549        5.10135971236643
H            6.34060091246885        3.78468702308830        3.50069950143490
H            6.17933064298187        2.03010500085905        4.19342358084693
H           -0.91862729772622       -2.57650129080332       -0.01361370304871
H           -0.49769766914251       -1.60651221708571       -1.34094446550576
H           -1.52632419730509       -2.94569707152159       -1.75361447637286
H           -5.11788846557077       -2.41810833635233        1.17520213188926
H           -5.67929807973498       -0.69619639428435        1.04301666067831
H           -5.57598832326623       -1.42383358739762        2.57928294206544
H           -6.13050215934830        3.76035386975488       -2.23272855695873
H           -5.86615610071888        3.45938329385866       -4.02668959924245
H           -5.13479557532099        4.87790991548477       -2.98314551356402
C           -1.38192942069774        3.73616555005018        2.91232598411686
C           -1.84821468128685        2.59982427735607        3.49755545445181
C           -1.05946531454833        2.05730632010638        4.60922730982276
C            0.19893954712228        2.69376791964407        4.86302140881997
C            0.50425395911860        3.94630308659851        4.28768785650746
C           -0.26031777722226        4.46998310053134        3.25072669343212
C           -1.20488993561782        0.74454293276906        5.14851520323437
C           -0.06287609782692        0.02744069315890        5.60930570802864
C            1.19208754369866        0.71421540266195        5.78882868583885
N            1.19428660993148        2.06344359410476        5.62744624321596
C           -2.41361422770794        0.07928500213936        5.25249410304426
C           -2.45851584031083       -1.32662100968547        5.60237876023992
N           -1.29466212405906       -1.98318595734370        5.89916817085159
C           -0.14475655767527       -1.32117560077092        5.98824682881008
C            0.97209270935794       -1.98958449505532        6.53157704134458
C            2.21982707914082       -1.36973967291181        6.68703967237737
C            2.30561929262884       -0.09745313075593        6.26436900324455
C           -3.73018485967715        0.71367583494582        5.25810242262992
C           -4.89964478833448       -0.06184623426677        5.21204641615509
C           -4.82617965800088       -1.39228978090841        5.46901303780036
C           -3.67144193418464       -1.98914944386360        5.67265433266067
O           -3.75568638935321        2.07705011038914        5.52067969627343
O           -2.94192434743730        1.91263938797883        3.01658762327703
C            0.21273512614467        5.50086066357994        2.34765104514621
C           -6.06660304520411       -2.17604633098929        5.80641622556876
H            1.41756699010566        4.38133362238595        4.66974005703471
H           -1.82880610647429        4.11982501512100        2.06992133318584
H            3.26888037378556        0.32655662585251        6.31721410015598
H            0.87146188387207       -3.08471526305024        6.57830423410869
H           -3.67716811065157       -3.05999292755990        5.83019634570050
H           -5.77379677507622        0.43595144608221        4.71017130754348
O            1.34459852619901        5.82615848916894        2.44941456579099
O           -0.74718748219123        6.07961784856304        1.59848183464284
C           -0.21473095568964        7.24015934882472        1.05753806029483
C            3.53228080814219       -2.00967610361154        7.02506769044485
O            3.64093082622715       -3.14437803815732        7.50071391725347
O            4.56565258381079       -1.22937033368332        6.69086985080897
C            5.72579357310716       -1.80692399125161        7.22246151275881
O           -7.04801223588612       -1.95726935745904        5.14194115322235
O           -6.01514389321278       -2.93743591896022        6.94765316328794
C           -7.21292732384718       -3.62681918543340        7.15115816329978
C           -4.95459780685163        2.65960679932188        5.86868674392943
C           -3.68284113682406        2.59129188358641        2.05479246020704
H           -7.43119628931628       -4.22607794725959        6.20622607140901
H           -8.06548455146707       -2.91765848248592        7.29781126410398
H           -7.07314693247270       -4.33087306029711        7.91223421050944
H            6.57332189837178       -1.29353136199234        6.78341268688262
H            5.74663761932316       -2.84282155125561        6.88089468184451
H            5.69426191474290       -1.72781984964892        8.29460302186842
H           -4.10481209541493        3.44288266176275        2.60483747673152
H           -4.49244774344916        1.87419893016926        1.82433103764650
H           -3.18901540870812        2.85154642679373        1.06781919454921
H           -5.55414326821421        2.76698137191684        4.93950725322359
H           -4.78658370641210        3.62090640967288        6.25983200635257
H           -5.43485580473958        1.97242995129449        6.65265772412460
H            0.89164886030839        7.38838561720231        1.13776105146914
H           -0.62894889903848        8.04195665205089        1.64837664327952
H           -0.59282546386754        7.45699159724320        0.03719083132488
116
 energy: -22.434014054228 gnorm: 0.649589585551 xtb: 6.6.1 (8d0f1dd)
C           -3.40543338676095        0.00014787417047       -1.21329130640447
C           -2.68555825059338       -0.99475922982333       -0.67853193157083
C           -1.49373694416410       -0.70902687367173        0.16026236109773
C           -0.75683043479298        0.53124772383602       -0.12971427977849
C           -1.31839475809671        1.31569833665728       -1.20730221150732
C           -2.65056559847133        1.20462466792539       -1.48363676821501
C           -0.58533399221664       -1.72836154898095        0.67092644605404
C            0.76467208167046       -1.25335653169024        1.08776161504804
C            1.10395568153199        0.09437067420153        0.96964087233996
N            0.38826244032795        0.96088769182529        0.37458039242077
C           -1.03555137863760       -2.82812216285974        1.57000548948769
C           -0.22837642932522       -3.52949492490935        2.52182020794229
N            1.13481804452563       -3.17520109652264        2.69308486119720
C            1.60673531872592       -2.01561608090593        2.11216356224251
C            2.77019107785497       -1.40525244935983        2.56833298080998
C            3.20260176115769       -0.13742355433462        2.21796424499360
C            2.32072064457040        0.74955004526756        1.55235800886444
C           -2.41956916713195       -2.71483141136073        1.90904008069377
C           -2.96219300478429       -3.69937313697923        2.74978783127172
C           -2.16834208358347       -4.73151075809508        3.29067119780606
C           -0.83490831448719       -4.71823259758201        3.16073471018321
O           -3.00704509929879       -1.34529635175446        1.93400705905640
O           -3.36491733021724       -2.14787829625894       -0.70886746665930
C           -3.37029007556967        2.37684650614644       -1.98560981132172
C           -2.88899913392305       -5.74516172956664        4.11304496680838
H           -0.59139692080306        2.16909807553523       -1.49486667038637
H           -4.19592681040744       -0.27563572154447       -1.94731402423849
H            2.63732149481747        1.82572356531321        1.67736438578394
H            3.07761638102502       -2.22368311790838        3.35133708359615
H           -0.25035547773940       -5.34486894158195        3.88377786527416
H           -3.94843148978673       -3.63663792037675        3.01610633256456
O           -2.97543469572127        3.49346690339394       -2.04702676863525
O           -4.69644887913541        2.28255904212907       -2.31842142314887
C           -5.63438323851080        3.39378581704716       -2.63118437980821
C            4.54938141482803        0.19266195254421        2.79159700144897
O            5.46202109775058       -0.67812538104706        2.98351175087823
O            4.78738189250503        1.47686081945028        3.14592707001805
C            5.88301769580955        1.30206158567363        4.02984144069940
O           -3.94510844263106       -5.53915073210149        4.57791487874420
O           -2.10575478129033       -6.92460978021236        4.17474394153205
C           -2.48545384141515       -7.98313484717969        5.05664720570919
C           -4.36844571294513       -1.33416974304171        2.05833248481537
C           -2.60293573496471       -3.33031386407167       -1.27926062692755
H           -3.28191768398823       -7.49281797734488        5.70250336299439
H           -1.53667895868516       -8.22462043665991        5.38404500679614
H           -2.92040802662232       -8.60694843050328        4.27240046882223
H            6.22899932828334        0.23025626286747        4.14470077158639
H            5.69156135354765        1.75280068495659        5.11691311183500
H            6.69579673696177        2.00933736181107        3.56923832936520
H           -2.67054817129335       -4.23635237770727       -0.56405446268861
H           -1.50272636291197       -3.04626003876310       -1.20794847171043
H           -3.15881762340024       -3.63471300536392       -2.19572074893722
H           -4.95081606423890       -1.95603830915741        2.93621352639577
H           -4.97327641814556       -1.69642760491120        1.16859332730136
H           -4.53302623460249       -0.42544696611960        2.44590734603439
H           -5.32136157368788        4.35705961713776       -1.96058801206378
H           -6.65438376530694        3.33752854044071       -3.04641108560752
H           -5.50436941793234        3.74763850050729       -3.54042546584538
C           -2.01799364488030        4.97512059847189        4.27424393397873
C           -1.95167079227094        3.60334898535191        4.46828956043915
C           -1.01480266748819        2.91607106970450        5.18999481161579
C            0.05630179119060        3.64932817235355        5.68589541088188
C            0.17616843571892        5.12219304333616        5.39601660561003
C           -0.76450008067898        5.62357857306558        4.68618204098414
C           -1.29336368827369        1.71863125971184        5.90900539405273
C           -0.10048195777502        0.94664659787130        6.33694091003928
C            0.96788690402740        1.84865179000136        6.49963660725574
N            0.92638810232539        3.16380674868118        6.55291220657494
C           -2.67553065151193        0.97841298476368        5.89219658593932
C           -2.54789368554313       -0.49205371523317        5.94339887400358
N           -1.31262382997457       -1.04004896678339        6.28360603206899
C           -0.08573562021538       -0.41753669446987        6.47129724099548
C            1.16164511879259       -0.86288199211223        6.69027587399824
C            2.33453148858063       -0.11670895614425        7.01902972146629
C            2.16774683701957        1.21038665318438        6.79018489575806
C           -3.89605660351917        1.63038486341210        5.89663624389934
C           -4.99826610171450        0.77321963885527        5.56840404967664
C           -4.85575883683715       -0.62020453927766        5.16858035755751
C           -3.61784936281928       -1.32910070472914        5.41820143062784
O           -4.15122606171517        2.90360570362014        6.53779049443557
O           -2.87534638850799        2.76398555489434        3.73994510300683
C           -0.81847441160761        6.98127940481513        4.03428724437725
C           -5.95770537170408       -1.31493110787441        4.50506013070201
H            0.92005987537090        5.72935309497834        5.99679477318118
H           -3.03834123315717        5.45744922398358        4.03483760016710
H            3.09317871165989        1.84429970390401        6.88678956731096
H            1.25572579598285       -1.76592645575143        7.15960074687484
H           -3.41250909435325       -2.37204111842632        5.26910386181058
H           -5.83706276694813        1.39892731291061        5.25907421098610
O           -0.39667400640650        8.00625776316386        4.59820730244514
O           -1.46481664804361        6.94888029418706        2.70459508973469
C           -1.31192695731306        8.17198822049319        1.99593439781082
C            3.73311294593228       -0.73638886506333        7.34276605031662
O            3.85224172865781       -1.89407817356774        7.72753589524887
O            4.55735377048867        0.06656303649595        6.58268258703637
C            5.80476388131932       -0.48553312949641        6.67088828354248
O           -6.81167803386712       -0.67483632467107        3.91962553275205
O           -5.73581530642689       -2.69704801872796        4.83720048734745
C           -7.01608655662027       -3.11153426848777        4.43320129015494
C           -2.98050263343910        3.17413924724170        7.38486510033493
C           -3.88019088274024        2.99622438280907        2.85841684391614
H           -7.31157595996384       -4.19377171675790        4.76633245682924
H           -7.07545426949612       -3.09080887655987        3.30021608563284
H           -7.66493552630019       -2.46424867172174        4.81754274467857
H            5.78989523099986       -1.21997959731594        5.76612817322412
H            5.73474538807191       -1.15002757963576        7.57571864115097
H            6.61969982990306        0.15072447447721        6.89184865209862
H           -4.36016080171237        4.04232180818581        2.97083749295636
H           -4.77818592505827        2.26724854486720        2.94137170563795
H           -3.29983384770498        2.67725985892184        1.86554496644925
H           -2.18110347500027        2.56028246696331        7.36300549940278
H           -3.47996933405850        3.16377703631336        8.33459368869621
H           -2.72513921224089        4.14278437737697        7.22510127627126
H           -0.23585930551587        8.40837883743931        2.04952764514739
H           -1.80100956790744        8.88124075288326        2.71773193325325
H           -1.87952475156376        8.36852724162353        0.90957087043953
116
 energy: -22.493887020280 gnorm: 0.529434673189 xtb: 6.6.1 (8d0f1dd)
C           -2.33277874686844       -0.08827804445272       -1.72166771971166
C           -2.02985831209245       -1.12901324488763       -0.80484183195317
C           -1.13200622916791       -0.68439595787914        0.26655233857996
C           -0.40681321142469        0.49775916317436       -0.01003267570153
C           -1.00410001469764        1.64651780892877       -0.69937765411241
C           -2.05525526933192        1.35685152062457       -1.51502384159538
C           -0.65377810309114       -1.30692464559843        1.50388818968333
C            0.62753248587926       -1.10830847243134        1.96909140295887
C            1.25296108401394        0.04190984753025        1.48114680833760
N            0.71244304515110        0.98365279741534        0.64101622316811
C           -1.15910129222080       -2.60843330864471        1.98455342462632
C           -0.56918527405983       -3.43220484357531        2.95006952545884
N            0.75249867518010       -3.24148603403245        3.09141797991652
C            1.32509689860010       -2.10148198353045        2.74271997805429
C            2.68023343200922       -1.84991492011035        2.99411825079828
C            3.22481584000894       -0.56315724988975        2.60121560888741
C            2.59190228590280        0.29986007988128        1.84311127487437
C           -2.57401780505264       -2.75909905266397        1.80692432581453
C           -3.18757056983436       -3.91191384131295        2.24859524829820
C           -2.51689992601712       -4.74024300581182        3.17741962377633
C           -1.22121714756185       -4.61218542583911        3.35885970780609
O           -3.37462016541208       -1.65549644984728        1.43709526308591
O           -2.15333820575703       -2.52139214339099       -1.10362275074704
C           -2.94845290287895        2.30159793745414       -2.34261495593554
C           -3.26807233798294       -5.92227677838819        3.71712540590415
H           -0.49488020136915        2.61377753507008       -0.56779844366278
H           -2.75728283370932       -0.58193835740699       -2.55170146579976
H            2.87806925353627        1.19134227494584        1.35642391318540
H            3.57413796287420       -2.52410143873863        3.31022563304501
H           -0.83801240084662       -5.23257756614194        4.09912212995638
H           -4.11373043315568       -4.39881162493714        1.99393030378262
O           -3.04076152452220        3.47693376011433       -1.93416202488925
O           -3.67892550008560        1.90650000886864       -3.48819614419028
C           -4.21471626272502        3.08806829082423       -3.94556701077251
C            4.69475713453414       -0.63201040437044        2.44747851309355
O            5.39887868577526       -1.39158234609638        3.15040514581775
O            5.16379084945438       -0.16202547842232        1.20375465766688
C            6.27982664353893       -1.02637929842289        0.88847565745445
O           -4.10041411915233       -6.53113920540876        3.00402858097630
O           -2.71538820981917       -6.18955918871968        4.91401692155939
C           -3.08255189296589       -7.42708352715899        5.21229351836519
C           -4.60827897560669       -1.51263210000071        2.00570636326004
C           -1.07625382723336       -3.41123728932748       -0.91210714329472
H           -2.17731286499386       -8.11619023471370        5.21558511136735
H           -3.93881625771858       -7.89739028847667        4.52956532420354
H           -3.50397624276392       -7.29805332233170        6.17413358046967
H            6.73222215366708       -0.52103950383242        0.06418656119158
H            5.60963323701845       -1.87915951433159        0.80264412660649
H            6.93732816792508       -0.88463797879434        1.73301983189417
H           -0.74788009148075       -4.01479702496839       -1.70955596438860
H           -1.51192217293159       -4.15736390115641       -0.24915665892626
H           -0.25479708251203       -2.83588194466606       -0.27796248602997
H           -5.36137066390267       -0.85268869947454        1.48515176227894
H           -4.59118999623452       -0.95298665294165        2.91580243417388
H           -4.95195958389442       -2.55126818270509        1.96217664463116
H           -3.58189503918590        3.97050161549765       -4.22146527874671
H           -5.18507743542293        3.49195281061715       -3.43758143398635
H           -5.08150073471111        2.69275402696178       -4.68091240348516
C           -2.63447351179451        5.48548796374498        4.98591157370148
C           -2.36115525204541        4.18935910773100        4.42695359348371
C           -1.26311243268134        3.43378294335523        4.78939068146070
C           -0.09012623968856        4.21220619657871        4.97122515025365
C           -0.22763725739915        5.74594101436366        4.91438204113229
C           -1.50952108834834        6.26961273262646        5.16646639567617
C           -1.36609951322161        1.91988893001033        5.09120428625004
C           -0.10810559462100        1.22587015017824        4.93224286375020
C            0.89922034101769        2.17201360556875        5.14220455792593
N            1.12468452654356        3.49790722275081        5.10877399606136
C           -2.49116429566281        1.02998285702094        5.28061738303845
C           -2.26052977999159       -0.33608302296391        4.98111189655608
N           -1.03509028533343       -0.89578600744620        4.60062861990329
C           -0.03491786692287       -0.21249642712635        5.18572834286347
C            1.14403447151670       -0.88101476567977        5.50154144830690
C            2.16222214789939        0.08473944188884        5.95581682817304
C            2.08637655584941        1.51989558802912        5.68191422841499
C           -3.81883332666389        1.36486264039554        5.70040277037319
C           -4.82010725723604        0.41118617003721        5.83029118537677
C           -4.45814591279011       -0.97024098541203        5.72188140980178
C           -3.23818803905893       -1.24918729622528        5.10574079938470
O           -3.90393549066359        2.75608844927380        6.11869537248560
O           -3.32967392974369        3.73968601097914        3.63307554164085
C           -1.49037073117205        7.68274784248788        5.18055044649672
C           -5.14329164242841       -2.00864677039894        6.42983088661857
H            0.75318964058234        6.22345888441599        4.91904868327363
H           -3.44978338655644        6.10232834616837        4.65604212103008
H            3.04981552762585        2.03827927968059        5.94167411238202
H            1.30215647533455       -1.95740091254628        5.46951892722446
H           -3.07538727235383       -2.20183702011975        4.63181628416941
H           -5.73166102890177        0.63838504600082        6.32885340921586
O           -0.47740034836726        8.20881333703051        4.71133304361718
O           -2.46634434669186        8.30734803789712        5.75359683509756
C           -2.34580053648813        9.63647674989838        5.44906594203079
C            3.20379669361575       -0.77280258857872        6.83866124299995
O            3.71600950784068       -1.78838106664340        6.34257301512995
O            3.60771281497124       -0.03068979094286        8.15263155816112
C            4.88087190512849       -0.57999618473177        8.64863553932173
O           -6.17384127733722       -1.81467674316079        7.10904437681566
O           -4.57580077051949       -3.25405254672363        6.32101115538880
C           -5.67690182579343       -4.07035926787640        6.51561513805680
C           -5.05764249016658        3.57167383769605        5.95982509205098
C           -4.15076391934918        4.85339003538851        2.94893861584437
H           -6.67666891217828       -3.52014294149269        6.28128981379467
H           -5.98806783424292       -4.01000941317696        7.61482045664279
H           -5.83077293129320       -4.93348322112158        5.81442896998687
H            5.15183497856410       -1.42291962894197        8.05373868791372
H            4.68256803895121       -0.89115622394589        9.67334696383602
H            5.53506504985890        0.40072548123122        8.59018809419286
H           -4.81658910999726        4.60605252501848        1.99089369902500
H           -3.44850746713674        5.65955349509297        2.67742248239395
H           -5.05368322214256        5.23553925746985        3.40488860819791
H           -5.91040149431496        3.07294518606906        6.13125453855267
H           -5.05856120594458        3.98112086606653        4.96345703118018
H           -5.42344451871689        4.37579306970313        6.54226317606250
H           -1.83500312032671        9.85957879695890        4.47493210359547
H           -1.98630669498878       10.37043502215388        6.06760738311553
H           -3.31775260595265        9.98973853313728        5.30794673517746
116
 energy: -22.512146661735 gnorm: 0.609346094789 xtb: 6.6.1 (8d0f1dd)
C           -2.76505802587073        0.31341207456202       -1.23197158732851
C           -2.14569535331803       -0.86641514067860       -0.74239276797357
C           -0.96721967605689       -0.64988943584233        0.16939854483502
C           -0.10080508963562        0.50697477316496       -0.23520805873948
C           -0.81110818131013        1.56995295074981       -0.77359995815637
C           -1.96767712211951        1.37681910774046       -1.37614290632326
C           -0.42585161618367       -1.60520879220786        1.13077068781640
C            0.86485745920453       -1.55788452404702        1.68415822590032
C            1.59710114901733       -0.40763231727592        1.11995458561211
N            1.13411339914691        0.61318284466960        0.37495616351962
C           -1.05497508813088       -2.60853947148353        1.99202745475776
C           -0.39854049589076       -3.61313644512903        2.70279606704766
N            0.87302431963285       -3.62285123991674        2.87060999704880
C            1.56025458718432       -2.54022197909949        2.59670087700098
C            2.88861303627922       -2.42579869962509        2.68944002849767
C            3.59648628094194       -1.33097487834684        2.16453512712892
C            2.91688370386571       -0.36050657482274        1.49702349571884
C           -2.48496657886207       -2.36215119961734        2.23595108017688
C           -3.14798175528640       -3.34358642664048        3.00437715371700
C           -2.49004416340187       -4.43397511377284        3.61334532264289
C           -1.11063101711669       -4.53412483131362        3.50894933641274
O           -3.14237517019383       -1.43715137100557        1.44451415719818
O           -3.04082908545383       -2.13284107362609       -0.92875541584260
C           -2.57477904030613        2.58873345902658       -2.10577679901198
C           -3.18487865227186       -5.32387599671750        4.54896114329821
H           -0.54255998540219        2.67155244943203       -0.69604967218020
H           -3.71839404099634        0.28069513215958       -1.74373830142829
H            3.50081839704431        0.50104024790598        1.21234709876299
H            3.45165290268681       -2.95277620457803        3.38270166147628
H           -0.63303398021612       -5.24624718327344        4.17310121956841
H           -4.23291264814300       -3.12704264887553        3.02770963627208
O           -3.45451146922936        3.22027404547466       -1.62020881630245