116
 energy: -22.928061455056 gnorm: 0.329736929581 xtb: 6.6.1 (8d0f1dd)
C           -3.31122850772930        0.79849766164622       -0.92477639677520
C           -2.44380812530352       -0.12270372891954       -0.27661132624697
C           -1.41337090092821        0.39579727573559        0.56335275196199
C           -0.89266158675590        1.65801491088749        0.27377586709581
C           -1.72665675402493        2.51431363229076       -0.49448366572522
C           -2.95444148494349        2.13954154133227       -1.01494489940871
C           -0.74098268209890       -0.43411532818871        1.49825021926784
C            0.56872586496315        0.03782116815119        1.86248088067890
C            1.03782416582094        1.29402317993033        1.50887470833621
N            0.31238977034758        2.07067427098208        0.65193736800696
C           -1.29695700510141       -1.39996043042223        2.41574187746061
C           -0.38243517664656       -2.18060797534842        3.13232615520648
N            0.91308504082021       -1.90366887689689        3.30325166013478
C            1.37712470144904       -0.74872102533751        2.81811050966982
C            2.52149331701875       -0.17739833758153        3.39379298866852
C            2.95849061756259        1.02681208890480        2.95105897606587
C            2.24288949469137        1.78498308775960        2.03503020483770
C           -2.74860936222260       -1.74497937691422        2.38401158947411
C           -3.09416315450955       -2.91614440870436        3.00571134491758
C           -2.16786021984049       -3.77788778654213        3.63251872101904
C           -0.85708937311598       -3.40495313382985        3.68547234358092
O           -3.71994433332149       -0.94984598373544        1.67726658385724
O           -2.55702603277562       -1.47241711578389       -0.57241635275616
C           -3.84297843593025        3.13357444054366       -1.60938954875544
C           -2.68769581069131       -5.03867041417370        4.30484659386931
H           -1.39666850744143        3.51251503834900       -0.76806311868865
H           -4.27662633836220        0.55105838579656       -1.33106614114542
H            2.66329581305412        2.73912661909249        1.72562431984580
H            3.05775395548473       -0.69369546277216        4.16536137542516
H           -0.24710966264510       -4.12034095424229        4.22946223699121
H           -4.11477991332403       -3.04712728052358        3.03244694615357
O           -4.21824883374556        4.03433712717988       -0.87713382485991
O           -4.44510595673734        2.90643496899600       -2.81853501752979
C           -5.44216520282800        3.83300025693726       -3.02488532025093
C            4.23586651889298        1.50004220933226        3.59165660008449
O            5.05927614697201        0.66079890002952        3.91714215179376
O            4.47001334453535        2.86385149488593        3.72605651435371
C            5.79457498613219        3.08584475587818        4.15829123132174
O           -3.82227255313510       -5.27347675879771        4.16636005494405
O           -1.85023202017753       -5.79767454267276        5.06656077253571
C           -2.55119635829503       -6.86252441382958        5.62930343183426
C           -5.07197156564436       -1.42399175670916        1.58830531863830
C           -1.33089900128490       -2.23622472573986       -0.99264499351172
H           -2.54510546830388       -7.76426885143998        4.99136022291012
H           -3.57194749219491       -6.44405511486021        5.74196173723541
H           -2.09133598235598       -7.02043774843818        6.64022264233588
H            5.72707967266424        3.46798026205549        5.10135971236643
H            6.34060091246885        3.78468702308830        3.50069950143490
H            6.17933064298187        2.03010500085905        4.19342358084693
H           -0.91862729772622       -2.57650129080332       -0.01361370304871
H           -0.49769766914251       -1.60651221708571       -1.34094446550576
H           -1.52632419730509       -2.94569707152159       -1.75361447637286
H           -5.11788846557077       -2.41810833635233        1.17520213188926
H           -5.67929807973498       -0.69619639428435        1.04301666067831
H           -5.57598832326623       -1.42383358739762        2.57928294206544
H           -6.13050215934830        3.76035386975488       -2.23272855695873
H           -5.86615610071888        3.45938329385866       -4.02668959924245
H           -5.13479557532099        4.87790991548477       -2.98314551356402
C           -1.38192942069774        3.73616555005018        2.91232598411686
C           -1.84821468128685        2.59982427735607        3.49755545445181
C           -1.05946531454833        2.05730632010638        4.60922730982276
C            0.19893954712228        2.69376791964407        4.86302140881997
C            0.50425395911860        3.94630308659851        4.28768785650746
C           -0.26031777722226        4.46998310053134        3.25072669343212
C           -1.20488993561782        0.74454293276906        5.14851520323437
C           -0.06287609782692        0.02744069315890        5.60930570802864
C            1.19208754369866        0.71421540266195        5.78882868583885
N            1.19428660993148        2.06344359410476        5.62744624321596
C           -2.41361422770794        0.07928500213936        5.25249410304426
C           -2.45851584031083       -1.32662100968547        5.60237876023992
N           -1.29466212405906       -1.98318595734370        5.89916817085159
C           -0.14475655767527       -1.32117560077092        5.98824682881008
C            0.97209270935794       -1.98958449505532        6.53157704134458
C            2.21982707914082       -1.36973967291181        6.68703967237737
C            2.30561929262884       -0.09745313075593        6.26436900324455
C           -3.73018485967715        0.71367583494582        5.25810242262992
C           -4.89964478833448       -0.06184623426677        5.21204641615509
C           -4.82617965800088       -1.39228978090841        5.46901303780036
C           -3.67144193418464       -1.98914944386360        5.67265433266067
O           -3.75568638935321        2.07705011038914        5.52067969627343
O           -2.94192434743730        1.91263938797883        3.01658762327703
C            0.21273512614467        5.50086066357994        2.34765104514621
C           -6.06660304520411       -2.17604633098929        5.80641622556876
H            1.41756699010566        4.38133362238595        4.66974005703471
H           -1.82880610647429        4.11982501512100        2.06992133318584
H            3.26888037378556        0.32655662585251        6.31721410015598
H            0.87146188387207       -3.08471526305024        6.57830423410869
H           -3.67716811065157       -3.05999292755990        5.83019634570050
H           -5.77379677507622        0.43595144608221        4.71017130754348
O            1.34459852619901        5.82615848916894        2.44941456579099
O           -0.74718748219123        6.07961784856304        1.59848183464284
C           -0.21473095568964        7.24015934882472        1.05753806029483
C            3.53228080814219       -2.00967610361154        7.02506769044485
O            3.64093082622715       -3.14437803815732        7.50071391725347
O            4.56565258381079       -1.22937033368332        6.69086985080897
C            5.72579357310716       -1.80692399125161        7.22246151275881
O           -7.04801223588612       -1.95726935745904        5.14194115322235
O           -6.01514389321278       -2.93743591896022        6.94765316328794
C           -7.21292732384718       -3.62681918543340        7.15115816329978
C           -4.95459780685163        2.65960679932188        5.86868674392943
C           -3.68284113682406        2.59129188358641        2.05479246020704
H           -7.43119628931628       -4.22607794725959        6.20622607140901
H           -8.06548455146707       -2.91765848248592        7.29781126410398
H           -7.07314693247270       -4.33087306029711        7.91223421050944
H            6.57332189837178       -1.29353136199234        6.78341268688262
H            5.74663761932316       -2.84282155125561        6.88089468184451
H            5.69426191474290       -1.72781984964892        8.29460302186842
H           -4.10481209541493        3.44288266176275        2.60483747673152
H           -4.49244774344916        1.87419893016926        1.82433103764650
H           -3.18901540870812        2.85154642679373        1.06781919454921
H           -5.55414326821421        2.76698137191684        4.93950725322359
H           -4.78658370641210        3.62090640967288        6.25983200635257
H           -5.43485580473958        1.97242995129449        6.65265772412460
H            0.89164886030839        7.38838561720231        1.13776105146914
H           -0.62894889903848        8.04195665205089        1.64837664327952
H           -0.59282546386754        7.45699159724320        0.03719083132488
116
 energy: -22.748218899604 gnorm: 0.451263977213 xtb: 6.6.1 (8d0f1dd)
C           -2.34879451870039        0.48253963343246       -2.24074563286246
C           -1.91921160889863       -0.33339615844264       -1.15713135918270
C           -1.15950208897942        0.26706746474412       -0.15285474070119
C           -0.67055036478091        1.54375346610478       -0.37117188915919
C           -1.13122917495028        2.25431265803009       -1.50172615610852
C           -1.92621294827682        1.76877847278239       -2.46065730719286
C           -0.74096443307363       -0.53795428475601        1.00926132361367
C            0.29542566745709        0.02141063623691        1.68744460710472
C            0.84203861937635        1.25564030666926        1.29752853479171
N            0.25970922450986        2.07158433297115        0.45222050295145
C           -1.32349924241135       -1.77404092022063        1.48298840080613
C           -0.63455161755149       -2.33797364927895        2.60760882068343
N            0.50821154712982       -1.87891368606300        3.13725244654907
C            0.93725861427668       -0.71306470517339        2.77221212976948
C            2.13437453975220       -0.20923633615026        3.39578847422546
C            2.62563212307176        1.01809989492591        2.98206800850967
C            1.88043619398489        1.77648046925180        2.10936585991569
C           -2.75495368334154       -2.11146985536668        1.48132670356822
C           -3.20936648062542       -3.33444880651366        2.09502421912450
C           -2.32736561212996       -4.08608252658509        2.86917506831632
C           -1.04779931589395       -3.53452423803823        3.04869919874453
O           -3.64337155082884       -1.25971830569408        0.84125024044255
O           -2.21594912186882       -1.74970743174896       -1.18777793734903
C           -2.71204455023528        2.78026578944579       -3.23562055823754
C           -2.79599967288239       -5.29359824316458        3.59318446465271
H           -1.08833287190987        3.31258934093101       -1.48346031800505
H           -3.15660706448032       -0.00736041370751       -2.76420229726362
H            2.41450318335969        2.76927479933837        2.01750688311544
H            2.78903186177223       -0.79734641942164        4.05134284051652
H           -0.37664867417075       -4.11558346976981        3.69934685130183
H           -4.17748690250249       -3.76993901296222        1.88181553079558
O           -2.14539082284428        3.73343280979666       -3.79397039710173
O           -4.02832175711953        2.38118696061611       -3.55515919442684
C           -4.60773468065921        3.26196351744850       -4.49875450356560
C            3.68781941742902        1.59206628104688        3.77259734533416
O            4.60866128215858        1.03923543578868        4.40728050099887
O            3.68699359676184        2.95443796628995        3.65658239501080
C            4.76918676125117        3.43779754341663        4.35403286364633
O           -3.83965635837899       -5.50078606391797        4.23306588894259
O           -1.88865701573106       -6.36008600262643        3.25035715245672
C           -2.13686308904368       -7.65605420821473        3.80316085719231
C           -4.83138377498534       -1.25795051482529        1.49756238530365
C           -2.41803370327840       -2.45216053401436       -2.40434660288495
H           -3.16475980259603       -7.86621736923945        3.54410507585487
H           -2.25893118577773       -7.35787780079487        4.83986745306988
H           -1.45792332912174       -8.36242887001937        3.28502776548876
H            5.16879187332885        2.80888994938343        5.21214018328436
H            4.43980495339714        4.32331755654171        4.94752850461471
H            5.61717258895888        3.62282157698266        3.72010225315898
H           -2.84466509476707       -1.88652105520973       -3.22262870524267
H           -3.07755426501258       -3.30748659757670       -2.21115318963739
H           -1.53892447505275       -2.87566421869023       -2.87307559644210
H           -5.45370927822296       -2.03937317207298        1.22245389093988
H           -5.31319140980791       -0.35639439199949        1.25406600865874
H           -4.44863621098274       -1.27995540068061        2.64591419447533
H           -4.69074057912846        2.70483180635712       -5.45241863712123
H           -3.89784007533875        4.10702715350628       -4.73026594381228
H           -5.49537465605795        3.92860266176162       -4.09474921039216
C           -1.95380172963549        3.95687235817655        3.80948569609189
C           -2.11532999343616        2.81947439462360        4.51135078795787
C           -1.18046542529269        2.51487737428668        5.54779903605277
C            0.11343319328572        3.23258785508680        5.52946342617554
C            0.27208806877429        4.38986720054032        4.70822823599589
C           -0.77603413105071        4.70798856496623        3.81782488562471
C           -1.33733102202461        1.40756320677001        6.49973731773934
C           -0.08315686475327        0.75154285977439        6.74193370830794
C            1.17861492129896        1.34011143353582        6.38499604207857
N            1.22385074623386        2.63223844959946        6.02989008816618
C           -2.54773589383980        0.70343822090561        7.06062506865036
C           -2.43133313118496       -0.71627460139385        7.05902391364982
N           -1.25637590230390       -1.38999691764482        7.03554012037899
C           -0.12406207696017       -0.66072558486089        7.07487562923341
C            1.11649581886450       -1.27734792411204        7.39855907111658
C            2.32785565358452       -0.80860425298871        7.07325299137923
C            2.40236204176320        0.53332391320947        6.58257123152033
C           -3.85166632217159        1.28547634682036        7.03167290666778
C           -5.07038028395856        0.54647202406999        7.20126249472400
C           -4.83356224326926       -0.85779850215274        7.16031178682394
C           -3.61745994283431       -1.46442912606559        7.25746735827829
O           -3.88796522680932        2.77602751006386        7.18786316068901
O           -3.18497211329370        1.86506743224592        4.47548778932454
C           -0.50951037148869        5.83711086193942        2.74008877059175
C           -6.01785823230813       -1.62775098283552        6.73502579602256
H            1.18560641305253        4.78813181177115        4.54353305164549
H           -2.64152119938067        4.18752014063124        2.89607546586920
H            3.36669726025479        0.85510831224154        6.21756481913322
H            1.17009446170124       -2.32800606195254        7.57208074053690
H           -3.59312970060704       -2.55637177755827        6.96074825423524
H           -5.88579820335993        1.06580457183740        6.91203766823350
O            0.61023688876522        6.29840292110091        2.85059720785718
O           -1.09496448253857        5.74985782567657        1.45943166338212
C           -0.17667183540620        5.91747856523035        0.37522746981249
C            3.41985974068737       -1.76511858474783        6.79838400986775
O            3.17886549705847       -2.90769203751514        7.02089490483451
O            4.66352512087758       -1.34098133753754        6.33754838151767
C            5.42919157366404       -2.42829454619127        6.23503221714183
O           -7.16002758864875       -1.23303546071575        6.77729345489112
O           -5.71829809951512       -2.95115939858515        6.51378911422411
C           -6.89877169441704       -3.66313299168496        6.66981773535247
C           -4.09866313734133        3.06615067812287        8.56121182781413
C           -3.14008976248884        1.17307871240974        3.20456810407645
H           -7.05045110360560       -3.89428727838443        5.54120929918956
H           -7.78257887306053       -3.14731415546051        7.01797237926973
H           -6.75249146137298       -4.59586059692343        7.34956389488794
H            6.27090690829451       -2.08969906648834        5.49001843767533
H            4.82514961902455       -3.14570644607330        5.71321983985323
H            5.87913189449420       -2.75915888895869        7.22137864220585
H           -3.86608658656543        1.55114195608270        2.47069249953855
H           -3.53145741121824        0.14002812036452        3.23353460264202
H           -2.06681154656331        0.95184405347709        2.86001230901421
H           -3.30102821989726        3.72441380955961        8.86350135367711
H           -4.05843228138061        2.07561117145919        9.04326306862283
H           -5.00012322593310        3.36191263738723        8.89210195965491
H            0.34064042664693        5.03648266279731        0.38976141023635
H            0.53187245966431        6.83500585836284        0.55947474863306
H           -0.64786124688613        5.88395877062630       -0.62894917627808
116
 energy: -22.718237785745 gnorm: 0.468820501880 xtb: 6.6.1 (8d0f1dd)
C           -2.95659270675942        0.13594797253361       -2.50595577632843
C           -2.53513250622097       -0.43918477538841       -1.38577091512891
C           -1.92463833740929        0.32166757551380       -0.21144143826287
C           -1.28508138158544        1.51260438590259       -0.64034359379378
C           -1.75902160864289        2.11484009569438       -1.83374731690573
C           -2.56507718170362        1.48261654189446       -2.75690063056649
C           -1.34383116069481       -0.25701386351962        1.04256076245284
C           -0.10303164427187        0.28612658095229        1.43012324716468
C            0.48322574688306        1.42156842795405        0.86327174056333
N           -0.20741916473901        1.99482000220002       -0.01692646808385
C           -1.95907811503471       -1.13536776850914        1.96209609437321
C           -1.11668190364509       -1.82393618760365        2.83048962840590
N            0.20896779980656       -1.52494687007440        3.08678277234470
C            0.64130547096912       -0.39147226686480        2.50799633874610
C            1.84040273268758        0.27691202650897        3.02338178574768
C            2.36814394255689        1.33306369736860        2.27446305290016
C            1.69699291594368        1.91652370662099        1.22243138822350
C           -3.29179300068392       -1.71771876925390        1.67397071119337
C           -3.53499833326816       -3.04531560240197        2.04856117503307
C           -2.52573899065766       -3.88144527810899        2.64829734362562
C           -1.45347628425178       -3.15092412952798        3.05500521389999
O           -4.25228139898091       -0.93563520805674        0.94709781842641
O           -2.75336526733265       -1.86708750846759       -1.24011713354101
C           -3.06336564702111        2.16447979763866       -4.02001278051450
C           -2.68421269536133       -5.40413848398571        2.94213255438663
H           -1.64030500355842        3.21295378380156       -1.89554151944127
H           -3.48297277767383       -0.53019685002147       -3.21178132360946
H            1.97230015190792        2.82908085212166        0.73150360347277
H            2.34606131464450       -0.14397681785224        3.82126388002134
H           -0.66054261090596       -3.71858514530500        3.56034003033898
H           -4.37089134998818       -3.75072952610897        1.89530706921482
O           -3.11618495311762        3.32282577770304       -3.82318277172441
O           -3.12337394616150        1.44510332203816       -5.14232831473019
C           -3.35467898248818        2.35262487131882       -6.20343178937034
C            3.47528892055439        2.09783642203348        2.84671084796349
O            3.88244599810703        1.75083132094510        3.94203918698341
O            3.95970665192290        3.09560311638910        2.13463950404372
C            4.84796561594692        3.89534836340723        2.97035098157510
O           -3.87393640714221       -5.81516012351518        2.80539625283063
O           -1.62245825298504       -6.25460765752993        3.22880075534763
C           -2.00669918961495       -7.52536921862750        2.98378496021561
C           -5.54881256746391       -0.93550012853539        1.43020822856529
C           -2.19818532723044       -2.74748692195825       -2.27960972063330
H           -3.13036142428507       -7.42622652018711        3.17570649088927
H           -1.72042507632420       -8.18161572051923        3.83730227009411
H           -1.71360339751545       -7.93102454351330        2.03325279423274
H            4.38297008324932        4.01789669568018        3.97690115783029
H            4.89041269724262        4.81091526668468        2.48953620456475
H            6.01482633045313        3.68650172714685        3.22527751559780
H           -2.24048886396808       -2.62601071743902       -3.31868286751201
H           -2.46522631964566       -3.82424014033779       -1.96407318093643
H           -1.12504942784263       -2.56973672365257       -2.10360002976248
H           -5.74574428923906       -0.92848603764885        2.50105703236011
H           -5.94661378870298       -1.93710775005702        0.93342319559625
H           -6.20375072207380       -0.16891657722791        1.23973304028471
H           -2.90922156573217        3.34633718656737       -5.89736096460112
H           -4.39026409707144        2.26308594675310       -6.58281566569599
H           -2.58905634201869        1.96549617224930       -6.79919529679585
C           -1.65615202235584        3.50838489394593        3.48629956137153
C           -1.89364045788359        2.26804417876582        4.16314324715887
C           -0.72801238833967        1.58025077963911        4.92323740592405
C            0.52370214462904        2.14605494269716        4.85643262454482
C            0.65690561934860        3.41262214821698        4.28148969217821
C           -0.42973893796426        4.12140858853457        3.71331878685046
C           -0.92160598756043        0.50596295788948        5.90276020859462
C            0.18408923085803       -0.20036945321624        6.35422076585506
C            1.44740002608048        0.42497449153608        6.25691577530656
N            1.60753519969505        1.53295078583089        5.45674086433954
C           -2.17289272790101        0.19640815313334        6.53924969533965
C           -2.22266762794731       -1.07261916007734        7.24611018782406
N           -1.18687102140461       -1.82837650917179        7.56769310162999
C            0.01942761191501       -1.27001286539635        7.28346177280449
C            1.12900220692057       -1.76505169778644        7.89119891711482
C            2.39424265193764       -1.15371372461714        7.82800714477515
C            2.50695279314856       -0.05008869308836        6.99525319078427
C           -3.29844755287825        1.19465967309806        6.68686893687391
C           -4.55427997243522        0.69300802752041        6.87924322038800
C           -4.64567401104194       -0.59637639101692        7.27583469193359
C           -3.55460249235245       -1.47735146647726        7.43176499353721
O           -3.04788067526842        2.53819252059555        6.58378494208277
O           -3.04308877270377        1.62118460818720        4.14976042694247
C           -0.13810074154268        5.59346073388482        3.52877436369863
C           -5.92893772713131       -1.27548830438172        7.30631352536840
H            1.54704933107738        4.07104785904214        4.30575414164355
H           -2.37224472614288        4.00071862229645        2.75120607963808
H            3.36617922852548        0.50217360232734        7.25089554548996
H            1.04458760801820       -2.62557226334439        8.52580838664115
H           -3.84284350194177       -2.51528485046480        7.56736533254150
H           -5.57757486638523        1.25525968186091        6.97564989687420
O            1.00031472144304        5.99527064874212        3.80090517836573
O           -1.24520092336800        6.33239027473800        3.29062581560078
C           -0.92502239367365        7.57772579855734        3.63023400540983
C            3.58061521350327       -1.74253062173603        8.47846829454291
O            3.71681952055969       -2.92199590538615        8.77600988202445
O            4.67442791301451       -0.94796387617234        8.60372202239928
C            5.90049834692177       -1.51173922075589        9.30036869241849
O           -7.00203977108132       -0.63285462246383        7.32287413609239
O           -5.86536161414695       -2.73170362843813        7.12184796206395
C           -7.01275691450695       -3.46463824138815        6.70509363052059
C           -2.01832214830376        2.93515201396578        7.56702859574671
C           -3.82151719656344        2.14650366052607        3.19683124719613
H           -6.83206320729862       -4.44957758066183        6.55977628747415
H           -7.51756247754607       -3.16947879338219        5.79274907785909
H           -7.78522914160127       -3.32490389177707        7.45135183318987
H            6.50189485235965       -1.75058641023288        8.38687326415343
H            5.69180447673048       -2.39136045951394        9.86557572205719
H            6.10168136675491       -0.65354084232003        9.99168159286205
H           -3.24743140390816        2.10623126527120        2.19292405509172
H           -3.88018581709272        3.26248110744965        3.18686214829356
H           -4.91136806313246        1.73500951186404        3.28357645068501
H           -1.52548928109078        3.85339060138462        7.28670049548087
H           -1.52075525038994        2.08723271689195        8.04241413805627
H           -2.71444206188946        3.38332464231123        8.34039672664645
H            0.18734646716351        7.66980769804871        3.62447373368864
H           -1.38975704522847        7.71833939675804        4.60153356047201
H           -1.28078675989679        8.23898553401232        2.77945631051330
116
 energy: -22.732566185380 gnorm: 0.456835893652 xtb: 6.6.1 (8d0f1dd)
C           -3.04744501227102       -0.05257883672261       -2.94684542024118
C           -2.44219244937604       -0.66689925949855       -1.79859924714520
C           -1.70990451684958        0.23491070629808       -0.84759452384378
C           -1.56722174276567        1.58489960113311       -1.04351481666684
C           -2.18174198997569        2.16803589261750       -2.15308588465235
C           -2.95733777990240        1.33969945820485       -2.98565474967331
C           -1.09767272520101       -0.44573395759065        0.25506232009958
C           -0.08175114164956        0.39160145919350        0.77065041725676
C            0.31409131421212        1.65364024848893        0.25221344536992
N           -0.66629116428277        2.34470059857835       -0.33965899234249
C           -1.66118389764494       -1.37419755567078        1.19558504440903
C           -0.75406372914814       -1.96247230477392        2.09695860688603
N            0.48420604853070       -1.47286537987891        2.42789817987111
C            0.75149549586418       -0.21966651516658        1.79929069697576
C            1.89530279398691        0.45358737424168        2.33776703661918
C            2.28392992959767        1.59944674713513        1.67593617702956
C            1.50217557663754        2.20386645361558        0.74810151751717
C           -3.04600558960596       -1.77908766582909        1.39843778496743
C           -3.42423698889673       -2.80192380373176        2.30273412768469
C           -2.41461898946400       -3.45400899290426        2.94055267181389
C           -1.08192392743143       -3.06286136267117        2.84270412448371
O           -3.93698173084031       -1.20242618324853        0.50855403362354
O           -2.21975051810448       -2.02493001355323       -1.69005307662485
C           -3.53784695931899        2.02473435026872       -4.16375057341140
C           -2.83183412610274       -4.58614847896520        3.89928787578112
H           -1.91589645754176        3.22805879027341       -2.31358244855438
H           -3.39423646720995       -0.75473084145140       -3.75129931877867
H            1.72001896854525        3.27095497885460        0.76200882687134
H            2.37065021872853       -0.03205072513016        3.12495048331542
H           -0.44032423584780       -3.61016102451001        3.46292132407836
H           -4.39139689708898       -3.28159419077706        2.19386164595835
O           -3.59283496139659        3.28239398129774       -4.43055051947380