116
 energy: -22.928061455056 gnorm: 0.329736929581 xtb: 6.6.1 (8d0f1dd)
C           -3.31122850772930        0.79849766164622       -0.92477639677520
C           -2.44380812530352       -0.12270372891954       -0.27661132624697
C           -1.41337090092821        0.39579727573559        0.56335275196199
C           -0.89266158675590        1.65801491088749        0.27377586709581
C           -1.72665675402493        2.51431363229076       -0.49448366572522
C           -2.95444148494349        2.13954154133227       -1.01494489940871
C           -0.74098268209890       -0.43411532818871        1.49825021926784
C            0.56872586496315        0.03782116815119        1.86248088067890
C            1.03782416582094        1.29402317993033        1.50887470833621
N            0.31238977034758        2.07067427098208        0.65193736800696
C           -1.29695700510141       -1.39996043042223        2.41574187746061
C           -0.38243517664656       -2.18060797534842        3.13232615520648
N            0.91308504082021       -1.90366887689689        3.30325166013478
C            1.37712470144904       -0.74872102533751        2.81811050966982
C            2.52149331701875       -0.17739833758153        3.39379298866852
C            2.95849061756259        1.02681208890480        2.95105897606587
C            2.24288949469137        1.78498308775960        2.03503020483770
C           -2.74860936222260       -1.74497937691422        2.38401158947411
C           -3.09416315450955       -2.91614440870436        3.00571134491758
C           -2.16786021984049       -3.77788778654213        3.63251872101904
C           -0.85708937311598       -3.40495313382985        3.68547234358092
O           -3.71994433332149       -0.94984598373544        1.67726658385724
O           -2.55702603277562       -1.47241711578389       -0.57241635275616
C           -3.84297843593025        3.13357444054366       -1.60938954875544
C           -2.68769581069131       -5.03867041417370        4.30484659386931
H           -1.39666850744143        3.51251503834900       -0.76806311868865
H           -4.27662633836220        0.55105838579656       -1.33106614114542
H            2.66329581305412        2.73912661909249        1.72562431984580
H            3.05775395548473       -0.69369546277216        4.16536137542516
H           -0.24710966264510       -4.12034095424229        4.22946223699121
H           -4.11477991332403       -3.04712728052358        3.03244694615357
O           -4.21824883374556        4.03433712717988       -0.87713382485991
O           -4.44510595673734        2.90643496899600       -2.81853501752979
C           -5.44216520282800        3.83300025693726       -3.02488532025093
C            4.23586651889298        1.50004220933226        3.59165660008449
O            5.05927614697201        0.66079890002952        3.91714215179376
O            4.47001334453535        2.86385149488593        3.72605651435371
C            5.79457498613219        3.08584475587818        4.15829123132174
O           -3.82227255313510       -5.27347675879771        4.16636005494405
O           -1.85023202017753       -5.79767454267276        5.06656077253571
C           -2.55119635829503       -6.86252441382958        5.62930343183426
C           -5.07197156564436       -1.42399175670916        1.58830531863830
C           -1.33089900128490       -2.23622472573986       -0.99264499351172
H           -2.54510546830388       -7.76426885143998        4.99136022291012
H           -3.57194749219491       -6.44405511486021        5.74196173723541
H           -2.09133598235598       -7.02043774843818        6.64022264233588
H            5.72707967266424        3.46798026205549        5.10135971236643
H            6.34060091246885        3.78468702308830        3.50069950143490
H            6.17933064298187        2.03010500085905        4.19342358084693
H           -0.91862729772622       -2.57650129080332       -0.01361370304871
H           -0.49769766914251       -1.60651221708571       -1.34094446550576
H           -1.52632419730509       -2.94569707152159       -1.75361447637286
H           -5.11788846557077       -2.41810833635233        1.17520213188926
H           -5.67929807973498       -0.69619639428435        1.04301666067831
H           -5.57598832326623       -1.42383358739762        2.57928294206544
H           -6.13050215934830        3.76035386975488       -2.23272855695873
H           -5.86615610071888        3.45938329385866       -4.02668959924245
H           -5.13479557532099        4.87790991548477       -2.98314551356402
C           -1.38192942069774        3.73616555005018        2.91232598411686
C           -1.84821468128685        2.59982427735607        3.49755545445181
C           -1.05946531454833        2.05730632010638        4.60922730982276
C            0.19893954712228        2.69376791964407        4.86302140881997
C            0.50425395911860        3.94630308659851        4.28768785650746
C           -0.26031777722226        4.46998310053134        3.25072669343212
C           -1.20488993561782        0.74454293276906        5.14851520323437
C           -0.06287609782692        0.02744069315890        5.60930570802864
C            1.19208754369866        0.71421540266195        5.78882868583885
N            1.19428660993148        2.06344359410476        5.62744624321596
C           -2.41361422770794        0.07928500213936        5.25249410304426
C           -2.45851584031083       -1.32662100968547        5.60237876023992
N           -1.29466212405906       -1.98318595734370        5.89916817085159
C           -0.14475655767527       -1.32117560077092        5.98824682881008
C            0.97209270935794       -1.98958449505532        6.53157704134458
C            2.21982707914082       -1.36973967291181        6.68703967237737
C            2.30561929262884       -0.09745313075593        6.26436900324455
C           -3.73018485967715        0.71367583494582        5.25810242262992
C           -4.89964478833448       -0.06184623426677        5.21204641615509
C           -4.82617965800088       -1.39228978090841        5.46901303780036
C           -3.67144193418464       -1.98914944386360        5.67265433266067
O           -3.75568638935321        2.07705011038914        5.52067969627343
O           -2.94192434743730        1.91263938797883        3.01658762327703
C            0.21273512614467        5.50086066357994        2.34765104514621
C           -6.06660304520411       -2.17604633098929        5.80641622556876
H            1.41756699010566        4.38133362238595        4.66974005703471
H           -1.82880610647429        4.11982501512100        2.06992133318584
H            3.26888037378556        0.32655662585251        6.31721410015598
H            0.87146188387207       -3.08471526305024        6.57830423410869
H           -3.67716811065157       -3.05999292755990        5.83019634570050
H           -5.77379677507622        0.43595144608221        4.71017130754348
O            1.34459852619901        5.82615848916894        2.44941456579099
O           -0.74718748219123        6.07961784856304        1.59848183464284
C           -0.21473095568964        7.24015934882472        1.05753806029483
C            3.53228080814219       -2.00967610361154        7.02506769044485
O            3.64093082622715       -3.14437803815732        7.50071391725347
O            4.56565258381079       -1.22937033368332        6.69086985080897
C            5.72579357310716       -1.80692399125161        7.22246151275881
O           -7.04801223588612       -1.95726935745904        5.14194115322235
O           -6.01514389321278       -2.93743591896022        6.94765316328794
C           -7.21292732384718       -3.62681918543340        7.15115816329978
C           -4.95459780685163        2.65960679932188        5.86868674392943
C           -3.68284113682406        2.59129188358641        2.05479246020704
H           -7.43119628931628       -4.22607794725959        6.20622607140901
H           -8.06548455146707       -2.91765848248592        7.29781126410398
H           -7.07314693247270       -4.33087306029711        7.91223421050944
H            6.57332189837178       -1.29353136199234        6.78341268688262
H            5.74663761932316       -2.84282155125561        6.88089468184451
H            5.69426191474290       -1.72781984964892        8.29460302186842
H           -4.10481209541493        3.44288266176275        2.60483747673152
H           -4.49244774344916        1.87419893016926        1.82433103764650
H           -3.18901540870812        2.85154642679373        1.06781919454921
H           -5.55414326821421        2.76698137191684        4.93950725322359
H           -4.78658370641210        3.62090640967288        6.25983200635257
H           -5.43485580473958        1.97242995129449        6.65265772412460
H            0.89164886030839        7.38838561720231        1.13776105146914
H           -0.62894889903848        8.04195665205089        1.64837664327952
H           -0.59282546386754        7.45699159724320        0.03719083132488
116
 energy: -22.579725800195 gnorm: 0.539010400499 xtb: 6.6.1 (8d0f1dd)
C           -2.97921468690122        0.13267327998576       -1.74308125731821
C           -2.69699825619074       -0.21248591905850       -0.40253834187475
C           -1.84710636726845        0.53742035073141        0.46245881955138
C           -1.14364160411589        1.52985393695072       -0.16072163432829
C           -1.65790117028549        2.01811092612657       -1.35247927562044
C           -2.62088104547222        1.36328830143836       -2.14237883815419
C           -1.20456830773260       -0.14957875873057        1.57506551494955
C            0.10343742458483        0.22987742837360        1.85945897996878
C            0.48482633189916        1.46421374400190        1.47458674978346
N           -0.10820678258093        2.09936572626212        0.40749207191595
C           -1.80691120947717       -1.19997606088628        2.28933909968651
C           -0.92653353279213       -2.08302723360003        2.91571715131505
N            0.41626049401715       -1.81900163878871        3.15380280694630
C            0.83209197453572       -0.61247998242765        2.73384453080802
C            2.06321677710360       -0.13952032000052        3.14220140078683
C            2.40990541635528        1.18259260694497        2.84965505823499
C            1.69926855971391        2.05117571442560        1.97277217732291
C           -3.17835060313610       -1.60580901829444        2.21888640146455
C           -3.68711842644021       -2.86747999098515        2.62415108405501
C           -2.70409576226459       -3.90095068399928        2.98871681469413
C           -1.39693697938387       -3.30668783564448        3.26091686588400
O           -4.03465713544510       -0.55699524450674        1.77003137211296
O           -2.71188528878687       -1.57964846522165       -0.20142102178008
C           -3.10089958479970        1.71554481138317       -3.48463876484295
C           -2.91397819400287       -5.31246811055005        3.36674230890232
H           -1.02359884417455        2.89955429629573       -1.77611411260666
H           -3.39288565260236       -0.49836234381143       -2.39692987195312
H            2.10633249877712        2.97527059995706        1.62648923413620
H            2.68282038343233       -0.81060238066735        3.68074836901502
H           -0.83050757972815       -3.79159691054481        4.02787193935411
H           -4.68698348265084       -3.08375295304285        2.56831611928134
O           -2.16972071898424        2.13934181704327       -4.13058036774449
O           -4.49523468570273        1.60283595477026       -3.62303914990060
C           -5.17457187740997        2.26133471773712       -4.72073772377836
C            3.69060538450343        1.52758881812351        3.62627125629511
O            4.14233058163656        1.27722174959254        4.67643280362484
O            4.50943214165559        2.33376239325088        2.76173561879628
C            5.88661194125820        2.40205207005193        3.18914954872966
O           -4.10338457858420       -5.65664776036512        3.25403418847181
O           -1.80673357101399       -6.05780781749254        3.71763508513459
C           -2.20607913952257       -7.08501383908219        4.63385149847933
C           -5.40310673761452       -0.78065595829832        1.80574711165223
C           -1.57732754084211       -2.43399523830465       -0.38716827050581
H           -3.33592837156830       -7.31428073352145        4.69103808666935
H           -1.97422308325207       -6.83040472028626        5.62401082408677
H           -1.82489520886897       -8.04318577808652        4.23534033779551
H            6.34593108472656        3.06846670388670        3.96744238839751
H            6.46022199159457        2.70245674928189        2.23728048436598
H            6.01985329093187        1.28335397409824        3.14228511691653
H           -0.54777244293379       -1.74015864750407       -0.51664764446924
H           -1.55986943921132       -3.07414592197463       -1.26329889210732
H           -1.42463074152507       -3.37060506293909        0.13121921240737
H           -5.66554320539258       -1.32694095749429        0.85889870102322
H           -5.85905651370553        0.18490600566353        2.18587672801768
H           -5.37008622343460       -1.34236466287470        2.66423790371541
H           -4.80179501001547        3.21249332653643       -4.89572976520561
H           -6.32194715714161        2.42002786207991       -4.55732892220739
H           -5.14842668392711        1.61690678482220       -5.48565747517805
C           -1.53024027637688        3.76351615030060        3.80799217252446
C           -1.62822367131215        2.52763530419730        4.49385952439542
C           -0.81164076301527        2.28309479022708        5.61215208539051
C            0.36254085040155        3.05107268068316        5.58240654693743
C            0.51748090706635        4.30447600022833        4.92072071445232
C           -0.52457681180058        4.74607814660303        4.11268890615942
C           -0.99443237895550        1.13583716193223        6.48560672987859
C            0.11716984389068        0.25051867092387        6.40047610599180
C            1.35819614860083        0.96946459996082        6.37241323723796
N            1.53277666366728        2.30215377821188        6.03264672157212
C           -2.32813809982568        0.46473190324803        6.59430325604851
C           -2.37776530474908       -0.98924437159657        6.38868855570087
N           -1.18116991209019       -1.76660829821157        6.37980351938440
C            0.04104350844449       -1.14120485616668        6.55727472207737
C            1.35344791059869       -1.75376161170091        6.85440276879866
C            2.52377120590075       -1.02109764142210        6.84455761212259
C            2.62193414965472        0.35891670637819        6.75430340456960
C           -3.57220118181474        1.08595692660461        6.72792869266285
C           -4.67805801887061        0.37166479842882        6.43867979349352
C           -4.65994214481876       -0.81431979181363        5.71620221933247
C           -3.49503158180290       -1.54275383062814        5.83288560611697
O           -3.75277970610442        2.42959540435022        6.97165237084799
O           -2.54913605097018        1.61661335080040        4.11520918383195
C           -0.43726575672739        5.98773305712531        3.55810035598083
C           -5.96990355554804       -1.50251514462163        5.42910448324286
H            1.47087224671461        4.70501301008584        5.01759487086451
H           -1.69097723829245        3.66508926042038        2.75394922170656
H            3.51075673241197        0.86119570360063        6.78113623222023
H            1.50234238716646       -2.75681540435843        6.64179874037002
H           -3.36423996157082       -2.56928190592276        5.36469641782338
H           -5.53875427138001        0.99185774390565        6.22124888413473
O            0.51870902006787        6.68661373248133        3.90154727088841
O           -1.48758839729181        6.31522615267896        2.73608719977343
C           -1.13157248915882        7.55970304139852        2.12196733863255
C            3.79034302729247       -1.71893635101633        7.08013970806428
O            3.83877308988919       -2.59228863986047        7.94306392870488
O            4.81821369432335       -1.32990170294017        6.05591807168197
C            5.85854354632221       -2.17627171974993        6.59282666802941
O           -6.83756333938125       -0.89851176205456        4.77678797185315
O           -6.18143297772044       -2.76642195414290        5.72699732451776
C           -6.42449783974253       -3.44535216188401        4.55389578971415
C           -3.09538628241000        2.76911425637991        8.21380315341948
C           -3.51844695153691        2.13623995150366        3.22869721580918
H           -7.21853856880045       -2.95854414831231        3.97282278536577
H           -6.74845998313622       -4.44317776600902        4.76101027512269
H           -5.49382376007553       -3.65031944454237        3.84833176769977
H            5.52780038568443       -2.20550592468647        7.66931356889877
H            6.87685846818979       -1.70191760197104        6.55160411550183
H            5.93585089684089       -3.24520619870657        6.08746151773602
H           -4.56443024513961        1.66364775517604        3.32697352549198
H           -3.42790586484558        2.22754467854625        2.09718906146578
H           -3.69903230867036        3.05339910392542        3.64712980663730
H           -2.18765965151398        2.25110910371780        8.29448691641818
H           -3.74625959947646        2.46564576791567        9.09957835433917
H           -3.16675309694737        3.82466301478574        8.00476605874399
H           -0.97639342989849        7.95276588822022        3.19977423355093
H           -2.06650790342632        7.92825986889041        1.57839172242518
H           -0.39430574992170        7.11940137775099        1.43641416417677
116
 energy: -22.583577330175 gnorm: 0.600144214037 xtb: 6.6.1 (8d0f1dd)
C           -3.17866229058463        0.02187418262668       -2.42300779782660
C           -2.79652128942418       -0.64595714342140       -1.29311018337833
C           -2.19438248834551        0.18021348513431       -0.30629917602528
C           -1.91402501253421        1.59980114692873       -0.36357612990212
C           -2.30905208887074        2.24936830883182       -1.61302783507171
C           -2.94446194901548        1.50407056074600       -2.51191609160510
C           -1.50874475405502       -0.43962133562587        0.89907079973351
C           -0.23089582315527        0.06598264592888        1.20699924171396
C            0.12674569196319        1.33712452833761        0.83929175797919
N           -0.72139313734641        2.11118450275501        0.16683303862080
C           -1.96034144260807       -1.45173479753845        1.66471310567116
C           -0.89857770374696       -2.21014424794590        2.34245933993856
N            0.40882990304670       -1.81399765448797        2.67843244516369
C            0.65376870907818       -0.64579008785625        2.10248628721530
C            1.95487904514944       -0.07091874957161        2.57996118152147
C            2.24518969387146        1.16848654961151        2.18034691937460
C            1.32194170600404        1.89861884163147        1.38032262881345
C           -3.34315650339131       -1.64275854525085        2.01226529398650
C           -3.64935828021017       -2.88786457141022        2.57657381964459
C           -2.60976881915424       -3.72588874413481        3.12655577883547
C           -1.27243295595529       -3.38421718677526        3.08297094460762
O           -4.02039189647231       -0.50030464725630        1.76032357913936
O           -2.81641361582067       -2.08904560661095       -1.28212384133686
C           -3.28802344814233        2.20116313547735       -3.82827341167093
C           -3.21572717346234       -4.83140178194264        3.97425457015004
H           -2.37319479468915        3.40031631303387       -1.61284630538750
H           -3.57073506822231       -0.57584261465202       -3.20089274875273
H            1.54020490413467        2.86433473855182        1.21527891355866
H            2.54245463616308       -0.66527772689681        3.19810285571386
H           -0.82036232031507       -3.62684307724877        4.09785808488706
H           -4.58911559937438       -3.22457515451305        2.78611628721045
O           -4.03632019573108        3.16821843309420       -4.06984645548449
O           -2.75914246153838        1.55862240500741       -4.93153323476825
C           -3.23353968939538        2.05190184502430       -6.06959305391167
C            3.55290305593176        1.77728228039710        2.60291616346131
O            4.54775602924733        0.96154315829299        2.88581500712628
O            3.69684204180208        3.07574163053594        2.53936899306818
C            4.85370772029082        3.62165039277238        3.16643272573321
O           -4.17165853214848       -5.55319050030007        3.74724665484937
O           -2.26365762951862       -4.94944353764996        5.00212262743018
C           -2.58924263613051       -6.18866897626782        5.70698019854784
C           -5.27683734458856       -0.86506169738448        1.30047697407030
C           -1.62755053799779       -2.76290301273490       -1.02767617813007
H           -1.69257953571450       -6.78311802404368        5.87454223120960
H           -3.62562089847265       -6.54188571528222        5.46246254960489
H           -2.54692997756891       -5.89912762883927        6.83396400402147
H            5.78109132074509        3.85354854460635        2.46586044698794
H            5.09830168980769        3.02917557423709        3.95855827566531
H            4.71732058301190        4.62303290604159        3.62384696655440
H           -0.89983811390075       -2.68478382159252       -1.98110154968102
H           -1.95109631007735       -3.73627711557932       -0.73514881693371
H           -1.22487778706187       -2.51713200122706       -0.20502873579780
H           -5.16242251397275       -1.71502231399105        0.67131126110705
H           -5.76660018698526        0.08471089533396        1.06337813338443
H           -6.02670702974317       -1.10478755846971        2.23744954778976
H           -4.28487705762526        1.93230559538270       -6.09875215911849
H           -2.53473276704784        1.79114786419464       -6.88310915799804
H           -3.20490313149691        3.18205706862659       -5.84680459968533
C           -1.27802759543589        4.15933873600889        4.02839962976643
C           -1.62470695068290        2.86161433116020        4.41800620750748
C           -0.72252128612853        2.18040780820289        5.32313011735907
C            0.57233565418786        2.73875417988132        5.66961677007231
C            0.91512272647438        4.00380180792120        5.21156188458980
C           -0.13345890524970        4.77232424312423        4.70726336076547
C           -1.01005376639482        0.81917985771019        5.68161661855482
C            0.22755759322245        0.18879143776695        6.06832795149448
C            1.50258693626957        0.84805689736033        6.35748149463279
N            1.70290550927673        2.22363542330902        6.35090244182409
C           -2.17401670988664        0.12996408213592        6.20876722567070
C           -2.08803950975665       -1.21638936243025        6.46713422767714
N           -0.90534565044608       -1.82427732332028        6.52506359999490
C            0.22390205622368       -1.16280844761040        6.44869377859659
C            1.36991894801594       -1.99622939777294        6.77799487044239
C            2.52447587633425       -1.32166568863095        6.79842090521246
C            2.61097608251180        0.02443355182383        6.68939898532637
C           -3.58422103143082        0.73228400894168        6.55946525956052
C           -4.64791670550341       -0.15722545119232        6.65184844233957
C           -4.47047277111695       -1.50029524901939        6.43846887156212
C           -3.25729826671720       -2.00702486060653        6.36324086475243
O           -3.89331088872634        1.99820466479432        6.65877303969279
O           -2.74991089492099        2.04071261962662        3.99634211603352
C            0.14836380863135        6.22364074060791        4.41521153897732
C           -5.64748323844301       -2.36525103178733        6.45776304506791
H            1.93201034726750        4.43076605947886        5.61859488544555
H           -1.85215616821327        5.00443364083391        3.62608668342336
H            3.43184328929613        0.45078585714523        7.05880435962656
H            1.29564347789634       -3.08680988513421        6.83245340785709
H           -3.15399478790300       -3.07733058299330        6.55106780012868
H           -5.63657484568038        0.08946092883748        6.52059936566809
O            1.28439927250087        6.62409487646989        4.59945897541077
O           -0.90370378543190        6.98859380148011        3.87845369185201
C           -0.39609453424655        8.16439193860251        3.80592197019362
C            3.69809148709208       -2.05909948890725        7.16428387614166
O            3.78448852317390       -3.26946532710106        6.99960878075215
O            4.49248044901042       -1.28012983152290        7.98121005438088
C            5.45681845254719       -2.05805933088921        8.49206032139234
O           -5.93680584619930       -2.82074698951763        7.65614276440297
O           -6.26020879078747       -2.72133178403844        5.20679996486256
C           -6.54666891520751       -4.17166541235825        5.38275181527745
C           -3.11012644454829        3.17702139762228        7.10794726754447
C           -3.44377735586726        2.39313660073961        2.91631274863250
H           -7.37310765064334       -4.53166983872031        4.72951443586909
H           -6.88662797083448       -4.04078317714593        6.50316450734551
H           -5.67869112906340       -4.82714491060399        5.31552305046083
H            6.10085462237061       -1.33543645656935        8.96692304075738
H            5.90575218717090       -2.62876828092737        7.67674667782153
H            4.89858310777080       -2.39997111959728        9.49717106391929
H           -4.16229294425793        1.63028390285384        2.70691473400136
H           -2.72069442291156        2.29368977044917        2.09624853150917
H           -3.94717006768671        3.46347564312191        3.11481045838403
H           -3.81775803633215        3.44799305975906        7.85899915702588
H           -2.96015752748297        4.00824823834343        6.50747075450373
H           -2.11901082281277        2.95994550009666        7.61556950618880
H           -0.12097582261224        8.10909634887169        2.75766524615378
H            0.21203148934580        8.29461726310275        4.74927075388045
H           -1.35678391749862        8.90448308671249        3.92914673536567
116
 energy: -22.649161702635 gnorm: 0.541983223926 xtb: 6.6.1 (8d0f1dd)
C           -3.07225094920526       -0.20229002400747       -2.29755357649687
C           -2.34844555865865       -0.90821948030582       -1.25967924366205
C           -1.45307343392690       -0.06612706407461       -0.39049050984563
C           -1.10921222552085        1.24435369858038       -0.74794572296800
C           -1.80529597157338        1.84401222402768       -1.74864956471335
C           -2.82842315309983        1.17064294110760       -2.34919403701645
C           -1.07738367185591       -0.55171018631093        0.85981027893630
C           -0.00858995653400        0.03350224164686        1.39581061587013
C            0.42744229345275        1.34790224029860        0.86389746499578
N           -0.19139906160148        1.96797498435738       -0.12856617631390
C           -1.64072056857102       -1.54443149368293        1.73500701666781
C           -0.78967768997487       -2.27431071358092        2.62322030193585
N            0.41789762974246       -1.76799424492997        3.15860503887242
C            0.66461651241915       -0.59439698229685        2.57200562198114
C            1.66664178531035        0.21623451863492        3.16437156750905
C            2.13178054577089        1.47293374687586        2.65345831632963
C            1.39362808413332        2.01486535599877        1.51527218323848
C           -3.09084323080272       -1.75082665565905        1.77335273609446
C           -3.58783140211569       -2.76493037726508        2.52451833023979
C           -2.73549385154472       -3.72768264969193        3.06458319298025
C           -1.35942126411642       -3.43092216879007        3.01509641639692
O           -3.86847933282900       -0.85770121606258        1.08636897212147
O           -2.23983602651164       -2.22753390159189       -1.00966270316792
C           -3.65179372750554        1.90144024451403       -3.47622109993822
C           -3.25220699974733       -4.87436952329197        3.85310049697860
H           -1.46419286518084        2.81485128340830       -2.22279974454312
H           -3.38314294262425       -0.45439137657099       -3.35306794204238
H            1.67440402377351        2.95298716367400        1.17917851657211
H            1.98757855879145       -0.32229344298266        4.05629290991915
H           -0.65634305754600       -4.19258207163175        3.38373801260453
H           -4.55598473445705       -2.75365470059390        2.79851369578123
O           -3.25276951894758        2.82714090158293       -4.12401507805355