116
 energy: -22.928061455056 gnorm: 0.329736929581 xtb: 6.6.1 (8d0f1dd)
C           -3.31122850772930        0.79849766164622       -0.92477639677520
C           -2.44380812530352       -0.12270372891954       -0.27661132624697
C           -1.41337090092821        0.39579727573559        0.56335275196199
C           -0.89266158675590        1.65801491088749        0.27377586709581
C           -1.72665675402493        2.51431363229076       -0.49448366572522
C           -2.95444148494349        2.13954154133227       -1.01494489940871
C           -0.74098268209890       -0.43411532818871        1.49825021926784
C            0.56872586496315        0.03782116815119        1.86248088067890
C            1.03782416582094        1.29402317993033        1.50887470833621
N            0.31238977034758        2.07067427098208        0.65193736800696
C           -1.29695700510141       -1.39996043042223        2.41574187746061
C           -0.38243517664656       -2.18060797534842        3.13232615520648
N            0.91308504082021       -1.90366887689689        3.30325166013478
C            1.37712470144904       -0.74872102533751        2.81811050966982
C            2.52149331701875       -0.17739833758153        3.39379298866852
C            2.95849061756259        1.02681208890480        2.95105897606587
C            2.24288949469137        1.78498308775960        2.03503020483770
C           -2.74860936222260       -1.74497937691422        2.38401158947411
C           -3.09416315450955       -2.91614440870436        3.00571134491758
C           -2.16786021984049       -3.77788778654213        3.63251872101904
C           -0.85708937311598       -3.40495313382985        3.68547234358092
O           -3.71994433332149       -0.94984598373544        1.67726658385724
O           -2.55702603277562       -1.47241711578389       -0.57241635275616
C           -3.84297843593025        3.13357444054366       -1.60938954875544
C           -2.68769581069131       -5.03867041417370        4.30484659386931
H           -1.39666850744143        3.51251503834900       -0.76806311868865
H           -4.27662633836220        0.55105838579656       -1.33106614114542
H            2.66329581305412        2.73912661909249        1.72562431984580
H            3.05775395548473       -0.69369546277216        4.16536137542516
H           -0.24710966264510       -4.12034095424229        4.22946223699121
H           -4.11477991332403       -3.04712728052358        3.03244694615357
O           -4.21824883374556        4.03433712717988       -0.87713382485991
O           -4.44510595673734        2.90643496899600       -2.81853501752979
C           -5.44216520282800        3.83300025693726       -3.02488532025093
C            4.23586651889298        1.50004220933226        3.59165660008449
O            5.05927614697201        0.66079890002952        3.91714215179376
O            4.47001334453535        2.86385149488593        3.72605651435371
C            5.79457498613219        3.08584475587818        4.15829123132174
O           -3.82227255313510       -5.27347675879771        4.16636005494405
O           -1.85023202017753       -5.79767454267276        5.06656077253571
C           -2.55119635829503       -6.86252441382958        5.62930343183426
C           -5.07197156564436       -1.42399175670916        1.58830531863830
C           -1.33089900128490       -2.23622472573986       -0.99264499351172
H           -2.54510546830388       -7.76426885143998        4.99136022291012
H           -3.57194749219491       -6.44405511486021        5.74196173723541
H           -2.09133598235598       -7.02043774843818        6.64022264233588
H            5.72707967266424        3.46798026205549        5.10135971236643
H            6.34060091246885        3.78468702308830        3.50069950143490
H            6.17933064298187        2.03010500085905        4.19342358084693
H           -0.91862729772622       -2.57650129080332       -0.01361370304871
H           -0.49769766914251       -1.60651221708571       -1.34094446550576
H           -1.52632419730509       -2.94569707152159       -1.75361447637286
H           -5.11788846557077       -2.41810833635233        1.17520213188926
H           -5.67929807973498       -0.69619639428435        1.04301666067831
H           -5.57598832326623       -1.42383358739762        2.57928294206544
H           -6.13050215934830        3.76035386975488       -2.23272855695873
H           -5.86615610071888        3.45938329385866       -4.02668959924245
H           -5.13479557532099        4.87790991548477       -2.98314551356402
C           -1.38192942069774        3.73616555005018        2.91232598411686
C           -1.84821468128685        2.59982427735607        3.49755545445181
C           -1.05946531454833        2.05730632010638        4.60922730982276
C            0.19893954712228        2.69376791964407        4.86302140881997
C            0.50425395911860        3.94630308659851        4.28768785650746
C           -0.26031777722226        4.46998310053134        3.25072669343212
C           -1.20488993561782        0.74454293276906        5.14851520323437
C           -0.06287609782692        0.02744069315890        5.60930570802864
C            1.19208754369866        0.71421540266195        5.78882868583885
N            1.19428660993148        2.06344359410476        5.62744624321596
C           -2.41361422770794        0.07928500213936        5.25249410304426
C           -2.45851584031083       -1.32662100968547        5.60237876023992
N           -1.29466212405906       -1.98318595734370        5.89916817085159
C           -0.14475655767527       -1.32117560077092        5.98824682881008
C            0.97209270935794       -1.98958449505532        6.53157704134458
C            2.21982707914082       -1.36973967291181        6.68703967237737
C            2.30561929262884       -0.09745313075593        6.26436900324455
C           -3.73018485967715        0.71367583494582        5.25810242262992
C           -4.89964478833448       -0.06184623426677        5.21204641615509
C           -4.82617965800088       -1.39228978090841        5.46901303780036
C           -3.67144193418464       -1.98914944386360        5.67265433266067
O           -3.75568638935321        2.07705011038914        5.52067969627343
O           -2.94192434743730        1.91263938797883        3.01658762327703
C            0.21273512614467        5.50086066357994        2.34765104514621
C           -6.06660304520411       -2.17604633098929        5.80641622556876
H            1.41756699010566        4.38133362238595        4.66974005703471
H           -1.82880610647429        4.11982501512100        2.06992133318584
H            3.26888037378556        0.32655662585251        6.31721410015598
H            0.87146188387207       -3.08471526305024        6.57830423410869
H           -3.67716811065157       -3.05999292755990        5.83019634570050
H           -5.77379677507622        0.43595144608221        4.71017130754348
O            1.34459852619901        5.82615848916894        2.44941456579099
O           -0.74718748219123        6.07961784856304        1.59848183464284
C           -0.21473095568964        7.24015934882472        1.05753806029483
C            3.53228080814219       -2.00967610361154        7.02506769044485
O            3.64093082622715       -3.14437803815732        7.50071391725347
O            4.56565258381079       -1.22937033368332        6.69086985080897
C            5.72579357310716       -1.80692399125161        7.22246151275881
O           -7.04801223588612       -1.95726935745904        5.14194115322235
O           -6.01514389321278       -2.93743591896022        6.94765316328794
C           -7.21292732384718       -3.62681918543340        7.15115816329978
C           -4.95459780685163        2.65960679932188        5.86868674392943
C           -3.68284113682406        2.59129188358641        2.05479246020704
H           -7.43119628931628       -4.22607794725959        6.20622607140901
H           -8.06548455146707       -2.91765848248592        7.29781126410398
H           -7.07314693247270       -4.33087306029711        7.91223421050944
H            6.57332189837178       -1.29353136199234        6.78341268688262
H            5.74663761932316       -2.84282155125561        6.88089468184451
H            5.69426191474290       -1.72781984964892        8.29460302186842
H           -4.10481209541493        3.44288266176275        2.60483747673152
H           -4.49244774344916        1.87419893016926        1.82433103764650
H           -3.18901540870812        2.85154642679373        1.06781919454921
H           -5.55414326821421        2.76698137191684        4.93950725322359
H           -4.78658370641210        3.62090640967288        6.25983200635257
H           -5.43485580473958        1.97242995129449        6.65265772412460
H            0.89164886030839        7.38838561720231        1.13776105146914
H           -0.62894889903848        8.04195665205089        1.64837664327952
H           -0.59282546386754        7.45699159724320        0.03719083132488
116
 energy: -22.392701054217 gnorm: 0.600437422595 xtb: 6.6.1 (8d0f1dd)
C           -2.41241779831618        0.84264462751307       -1.49468081530574
C           -1.41836815185211       -0.11366048163394       -0.87092775148091
C           -0.56403823428575        0.31575703422032        0.16669148595253
C           -0.34901070145667        1.65564346337543        0.44557839055386
C           -1.37841247204092        2.43252245820124       -0.15433530286512
C           -2.45514495418241        2.09326092174328       -0.97344928229583
C           -0.04563774664173       -0.61905297872839        0.99361849920668
C            1.10986378813571       -0.11127145515002        1.52537508746500
C            1.67605004667580        1.24163306219381        1.40639726118809
N            0.93558996885106        2.16632984946708        0.68688337215936
C           -0.60968118433654       -2.01278839134031        1.40082594756632
C            0.35254175519344       -2.85943207984203        2.00649344724203
N            1.69585453818624       -2.51260467095107        1.96284359477586
C            2.06103089460060       -1.10529889835179        2.06446001495371
C            3.27961657544895       -0.64605278497984        2.63824005507580
C            3.75890706101931        0.60713312846043        2.59958456045465
C            3.12053787735685        1.51308924837955        1.69046596065051
C           -2.03409528475708       -2.36875626880575        1.46332621913815
C           -2.33550286624545       -3.61106845881996        2.15262607868913
C           -1.29605917105492       -4.49597108281102        2.71245427871348
C            0.06469601353779       -4.02190146379569        2.75138368106924
O           -3.07874310118773       -1.74141804833519        0.65629228621036
O           -1.02989435373712       -1.38196731019677       -1.49927897294806
C           -3.20990242507242        3.31018134884733       -1.36296026364466
C           -1.75028934241387       -5.37240749809658        3.87408817540578
H           -1.23091623205178        3.49249564521834        0.24586229093475
H           -3.13951097662778        0.65841196025324       -2.34041752824345
H            3.57636597961859        2.43829863422239        1.46776694951666
H            3.44794486214065       -1.32810597623061        3.64805778992510
H            0.90500660800652       -4.55696303449256        3.11645862525870
H           -3.45200354853972       -3.51089563894807        2.40254937113983
O           -2.80750561258725        4.07661469674832       -2.28896280978434
O           -4.50331021082607        3.44457868404128       -0.81072146259140
C           -5.17518849745328        4.60739585220670       -1.18348152013234
C            4.52374637121766        1.02983782510677        3.70416730782833
O            5.03779121006468        0.37219710222128        4.57663700604429
O            4.78263071141613        2.30987085246559        3.49808280516174
C            5.60027734513787        2.83954174958699        4.50822474140216
O           -3.01708343193293       -5.54380732503618        3.85920859882940
O           -0.87798429807472       -6.00110566711599        4.66482630540756
C           -1.50099436098808       -6.11291970526984        6.05229677135047
C           -4.05426951892561       -2.46899458148167        0.10509516332738
C           -1.21074814978331       -1.24989374533373       -2.96131683723581
H           -2.59049363295540       -6.16784340184418        5.99586355566467
H           -1.39091994479054       -5.13901583504175        6.68439040120111
H           -0.77424844742818       -6.91007282977100        6.35516594498205
H            5.77186883886606        2.05568057600161        5.30403670878107
H            5.39010739656112        3.91086370299975        4.90045402980943
H            6.72652590171164        2.80790110236640        4.15070716995792
H           -0.25375997360406       -0.81498148536312       -3.28432563011963
H           -1.84561052390933       -0.48116812854755       -3.46893385516950
H           -1.30207156455458       -2.18759188567836       -3.48585571524153
H           -4.55808488568473       -1.81725742698303       -0.65451946598233
H           -4.81228912289641       -2.64161903135090        0.90838551253541
H           -3.68498773653079       -3.40616300520005       -0.32755519490831
H           -6.32501445718999        4.47600283634760       -1.30365607289634
H           -4.65072393299083        5.46283235669752       -1.70664068676030
H           -4.76428390690741        4.98845201349453       -0.10309558634914
C           -2.37656673338564        3.38933691289339        3.57487591693579
C           -2.67371514312048        2.34722331391597        4.43075934820563
C           -1.61717458545694        2.05579096916186        5.24393361902988
C           -0.31468663524657        2.60952196742286        4.82418982473924
C           -0.14375392532796        3.98542118703833        4.35165362711816
C           -1.27663168439475        4.34143875581281        3.52784380220727
C           -1.73531927708392        0.87654002835068        5.84807153211291
C           -0.54963985209506        0.09433046635591        5.92962929223391
C            0.68107680352110        0.60110515126456        5.51151753920543
N            0.89952648631903        1.81930393827185        4.97807829449334
C           -3.03706323912042        0.32815807934860        6.37346881522758
C           -2.89754111539573       -1.10226490019622        6.33659817904800
N           -1.75696839196880       -1.88092276742403        6.47472461395818
C           -0.59813908340560       -1.26183153656453        6.29843092278267
C            0.64356859562304       -2.16857525728482        6.33102245236502
C            1.79427533464382       -1.45359785270207        6.16471287404495
C            1.75965666124279       -0.15347510967480        5.76968546529148
C           -4.09623583010267        1.20766160227527        6.95005683385896
C           -5.38450087970975        0.64840459818010        6.98999734334947
C           -5.39392964264134       -0.64622963593761        6.30952978170807
C           -4.32033586791000       -1.59136800494090        6.41058221012476
O           -3.84274337073803        2.50280298128278        7.35981969837850
O           -4.00833737459718        1.93624514158712        3.87754977099726
C           -1.32786988978973        5.52188501798433        2.59428292246679
C           -6.75720035568689       -1.32677133192790        6.07283113553432
H            0.70398940975626        4.65833715716671        4.58813162896327
H           -3.35569361423027        3.68320051722271        3.15399101404815
H            2.81813037611080        0.30122492211590        5.73917231750391
H            0.82926434410034       -3.19255209651109        6.68801434886871
H           -4.72340989136624       -2.61156467713063        6.67977133662684
H           -6.31658444999917        1.28989191296558        7.31176873363622
O           -1.23582042473547        6.53527038246808        3.18869023563876
O           -1.77547108586908        5.71377082261209        1.27412851208059
C           -1.13826012977248        6.17589611211026        0.07806615485945
C            3.18966345466746       -1.92380805041343        6.74948035645516
O            3.44595220364551       -3.11097715109812        6.78823739529463
O            3.87311112204050       -0.98947837610746        7.44979375744710
C            5.26026401927492       -1.39425654066991        7.75355659919879
O           -7.08804183891798       -1.15435376889394        4.91899787440122
O           -7.33135108765755       -1.90591566188473        7.23357518326678
C           -8.47346596804482       -2.26249867929249        6.71339184515376
C           -4.52672382640705        3.58396273680817        6.87227004660188
C           -4.28742270536055        1.00239630648965        2.99810823191003
H           -8.90600151108538       -3.35254309544577        7.17505019389507
H           -8.37515613289148       -2.29219904626771        5.51204500863832
H           -9.37905333762825       -1.57512617876090        6.84836152154091
H            5.81935188251345       -0.52510587602169        7.69556692586494
H            5.31878079647947       -2.17439327201582        7.02124527892450
H            5.39915287213114       -1.72543010047135        8.70424034021284
H           -4.73521023176718        1.53755932674763        2.00809574169977
H           -4.88964661986972        0.10947371873043        3.24640234394543
H           -3.22308468756406        0.70675238174904        2.58371458300399
H           -5.55615423992403        3.35284574357520        6.90113617735874
H           -4.24288887108006        3.77433797576737        5.81321961172801
H           -4.33223327807434        4.42521064557137        7.47023916058274
H           -1.34541966190096        7.23760572344117        0.06897651815091
H           -1.64514432413048        5.65637362789923       -0.74268923402652
H           -0.24077552703076        5.66777043974964        0.09850170350633
116
 energy: -22.544387906515 gnorm: 0.524848129937 xtb: 6.6.1 (8d0f1dd)
C           -2.24374035326658        0.35931968783862       -1.08437055109633
C           -1.45604729526127       -0.59108526973900       -0.34169286678197
C           -0.55396145491176       -0.01374421267302        0.61779917872817
C           -0.23059299565664        1.39829793219397        0.60463708566847
C           -1.07155362669752        2.27715870345205        0.06360654039070
C           -2.10714031133234        1.77401421482353       -0.69105322871190
C            0.12217137143268       -0.71265445336449        1.78820665463361
C            1.41864323901974       -0.20913764504622        2.20412371463151
C            1.70984910822370        1.13314121155084        1.80248841832980
N            0.81773919607673        1.90299571441243        1.07992457264680
C           -0.06274892777574       -1.99579308164109        2.45092340333670
C            1.11801202479407       -2.76644821531711        2.76922487828142
N            2.41469945738482       -2.33443861443881        3.00567846633436
C            2.49033444942437       -1.05980409871842        2.69502503625062
C            3.58457207285345       -0.24538802582051        3.14457237338332
C            3.89483835921562        1.10166111412379        2.93967953902237
C            2.96136553548116        1.75420936445613        2.13535602072960
C           -1.33094421915055       -2.48479520786189        2.99743553874623
C           -1.59354516399415       -3.83068781961609        3.46500168560281
C           -0.58907266273377       -4.70163152738061        3.29793845500095
C            0.79026622331054       -4.15049247106329        3.29301311507023
O           -2.43615043957816       -1.61041037042251        3.06417769934493
O           -1.64764402563809       -1.98598511711266       -0.29288425738742
C           -2.97142327900365        2.77732980499613       -1.56942116109694
C           -0.68819681538179       -5.89346317303803        2.36432273795831
H           -0.68444571028348        3.26416264180046        0.02238364200530
H           -3.39452595577179        0.02888646443242       -1.18504659512829
H            3.14114182327418        2.60315113363570        1.50682766039364
H            4.37861586539265       -0.67482093288916        3.75372017273225
H            1.32741705164866       -5.09515307778407        3.77858378262583
H           -2.56472986943345       -4.34525452264140        3.36030002965625
O           -4.16989373351685        2.45499620830823       -1.50470009501009
O           -2.49768660868348        3.88242634407610       -2.15479159818248
C           -3.53321329843277        4.35012981016892       -2.85965459624736
C            5.31856222184427        1.56184752604102        3.27806046928751
O            5.86205657137935        0.80224965234801        4.05116525661954
O            5.85172432512785        2.76859750481780        2.83277514994083
C            7.23820001682006        2.90733334512381        2.98905920816221
O           -1.77626364143715       -6.14640711588239        1.79408739062979
O            0.35930676209888       -6.77904915985110        2.52511261884038
C           -0.02163235888603       -8.04521641637379        1.98131148233866
C           -3.78664113335996       -2.01602335167034        2.62036333477540
C           -1.54298215331167       -2.37705097366061       -1.59770260234948
H           -1.14375002324212       -8.25278556460497        1.92801286491865
H            0.61337728382389       -8.87661142928245        2.51413047209057
H            0.37783934329729       -7.80378298881771        0.94001734048144
H            7.75414505704208        3.73278221922364        2.55345931026015
H            7.55162091151941        2.00010796304525        2.33783893952696
H            7.54908410641693        2.59401943308501        3.99483370257841
H           -1.26121096450177       -3.50859834619331       -1.85818182653731
H           -0.71171344708438       -1.76240133838087       -1.96977803917099
H           -2.47191562215653       -2.06210092391183       -2.06257110924020
H           -4.79530937273328       -1.47678665832267        2.52393100358184
H           -4.10213990890501       -2.98735235299291        3.11425239525437
H           -3.64456242279790       -2.18664027845533        1.53726678690998
H           -4.11627957366277        4.80435425741023       -2.18067701386975
H           -4.04632076914895        3.52243057558232       -3.33058564769365
H           -3.09140715293541        4.94610377706435       -3.65473384444429
C           -2.71464739079570        4.30216627004855        2.94083072485778
C           -3.07150294781419        3.08409423193638        3.52371826101656
C           -2.21014115056349        2.48700206721478        4.64702373264154
C           -0.88356806104346        3.04402706353761        4.73910845919297
C           -0.48798567614995        4.04649151049667        3.86437939806344
C           -1.44044839703111        4.87778634398564        3.07825956062678
C           -2.53226056633766        1.47158999394070        5.70176806226027
C           -1.33216193147812        0.74574577194566        6.07666586217097
C           -0.00000342672517        1.19809834612121        5.83795157607125
N            0.22769894557007        2.35979419642318        5.22264142293083
C           -3.75967200677563        0.91606363642921        5.99543699069027
C           -3.84421697187748       -0.48664679231404        6.47374776638997
N           -2.69126440202783       -1.11760461864247        6.73699176868420
C           -1.53092401870751       -0.64566712481340        6.27431872525889
C           -0.31985575159302       -1.42359551776543        6.52860674229990
C            1.03597844167182       -0.95120940542168        6.47140812376816
C            1.19620469341720        0.34669023023493        6.05342877359262
C           -5.14666062589393        1.60178956815850        5.98927782343554
C           -6.17574198851002        0.79879897783804        6.35568863867734
C           -6.15727903679259       -0.65747357909246        6.78501806700349
C           -4.92986302616250       -1.21038418058718        6.88312867757729
O           -5.58608685168231        2.93203062509064        5.74303259301427
O           -4.30917909790451        2.38818148004643        3.43056467487932
C           -0.93108390616538        6.26311935092122        2.57189495266132
C           -7.39205465857940       -1.37396081713343        7.07606122990015
H            0.59169581835266        4.41221823077762        3.73493270482758
H           -3.34691233698061        4.51506393093788        2.02354067175190
H            2.08514015737394        0.68872909943555        5.50019397180441
H           -0.64494834319028       -2.40274015121587        6.99699499218714
H           -4.54079459546267       -2.25130872391876        7.17475835921129
H           -7.08278897047696        1.17432931506022        6.29698426503907
O            0.23527272815638        6.15390107070252        2.22117622148824
O           -1.98049216403996        7.18707195528540        2.45364179352938
C           -1.55891679935625        8.09954577015170        1.43941838021420
C            2.00896636191083       -2.00676059924027        6.85794690780473
O            1.55018850325151       -3.08181596517225        7.29246866244279
O            3.36689500859625       -1.98468607848228        6.64329125739133
C            3.82192954178666       -3.21548507677113        6.27197926738771
O           -8.57005685504148       -0.90297418070714        7.03762093159206
O           -7.07769925170248       -2.67305095975701        7.43377567339297
C           -8.21208667922568       -3.34561640794729        8.06115592197075
C           -4.73256753410406        3.88283900254524        6.34546244273228
C           -4.12576057120709        1.34453886552629        2.35633185551701
H           -9.10775469718989       -3.23619019723466        7.41006402563554
H           -8.48769640015008       -2.76924370630772        9.03018057050223
H           -7.94282415439495       -4.44457897142165        8.44995219320019
H            3.62969928766676       -3.90433634276608        7.20034503542402
H            4.80750673590846       -3.36748749182783        5.76928432169897
H            3.19904386610273       -3.48155279019660        5.36249362058909
H           -3.36320795853560        0.51637704247912        2.29353645493193
H           -3.97334890072645        2.04847154401862        1.55917858325762
H           -5.01495562911250        0.86423219381036        1.92088775632658
H           -3.80896479396332        4.00628804500176        5.91441782054213
H           -4.41802790468105        3.60474364111664        7.34222065795955
H           -5.11691340804735        4.95748680788806        6.53896798037509
H           -1.60178463883005        9.00402270192782        2.09718902655822
H           -2.31394021660846        8.32060102454654        0.70128823940047
H           -0.40705338237124        7.83783957704036        1.15069467313091
116
 energy: -22.530658453060 gnorm: 0.599081431110 xtb: 6.6.1 (8d0f1dd)
C           -2.65563768426581        0.46329262570083        0.00522578709145
C           -2.05073390322141       -0.57506690768277        0.55049328046417
C           -0.68079208002728       -0.00614775026521        1.11989466788902
C           -0.18463826203296        1.33827288659646        1.25939051057782
C           -1.00215653991510        2.38781874714516        0.50366900331980
C           -2.00419392740191        1.73205740206240       -0.15416073962768
C            0.21308942488800       -1.06645305314398        1.63941876144856
C            1.63413764607258       -0.60502768219544        1.99075936651007
C            1.86786853118209        0.77651356665189        2.06722839260351
N            1.04700668033261        1.74316881614335        1.62480136698987
C            0.13883703907972       -2.50372397012932        2.09340183986628
C            1.41801374741831       -3.18361851675668        2.28376716897945
N            2.73248065566008       -2.65938415741264        2.34254734811473
C            2.86109071512886       -1.30917301555569        2.31671450910969
C            4.21809587639149       -0.68090818034430        2.46264835552173
C            4.31733329661573        0.70685439536337        2.62157944571083
C            3.13713642067434        1.43939555130109        2.36908309478377
C           -1.09489345587703       -3.21708081381717        2.50035212106173
C           -0.97844700782126       -4.68756954745266        2.40556162632274
C            0.31810357400069       -5.36060561305388        2.14817744888229
C            1.46481613242196       -4.55892845527090        2.17217108345989
O           -2.09855423621193       -2.49097980671048        3.21961624145543
O           -2.30530735642941       -1.97572535636410        0.50872811356557
C           -2.64236479086989        2.56097232313301       -1.20227293781930
C            0.55187319373997       -6.82939828286582        1.92124180414513
H           -0.92342824440068        3.39282017495989        0.29896558646573
H           -3.74873584056585        0.22893933787277       -0.37107691038482
H            3.35021752808976        2.54351530518641        2.28567713488485
H            5.03398849258204       -1.19719717388826        2.71472144534717
H            2.09576018951031       -5.33341251231545        1.79517960367789
H           -1.63562881138359       -5.49097224634633        2.50642740608221
O           -2.77328918947517        3.70854354630570       -0.79455046810080