116
 energy: -22.927942554801 gnorm: 0.329724053885 xtb: 6.6.1 (8d0f1dd)
C           -3.31122850772930        0.79849766164622       -0.92477639677520
C           -2.44380812530352       -0.12270372891954       -0.27661132624697
C           -1.41337090092821        0.39579727573559        0.56335275196199
C           -0.89266158675590        1.65801491088749        0.27377586709581
C           -1.72665675402493        2.51431363229076       -0.49448366572522
C           -2.95444148494349        2.13954154133227       -1.01494489940871
C           -0.74098268209890       -0.43411532818871        1.49825021926784
C            0.56872586496315        0.03782116815119        1.86248088067890
C            1.03782416582094        1.29402317993033        1.50887470833621
N            0.31238977034758        2.07067427098208        0.65193736800696
C           -1.29695700510141       -1.39996043042223        2.41574187746061
C           -0.38243517664656       -2.18060797534842        3.13232615520648
N            0.91308504082021       -1.90366887689689        3.30325166013478
C            1.37712470144904       -0.74872102533751        2.81811050966982
C            2.52149331701875       -0.17739833758153        3.39379298866852
C            2.95849061756259        1.02681208890480        2.95105897606587
C            2.24288949469137        1.78498308775960        2.03503020483770
C           -2.74860936222260       -1.74497937691422        2.38401158947411
C           -3.09416315450955       -2.91614440870436        3.00571134491758
C           -2.16786021984049       -3.77788778654213        3.63251872101904
C           -0.85708937311598       -3.40495313382985        3.68547234358092
O           -3.71994433332149       -0.94984598373544        1.67726658385724
O           -2.55702603277562       -1.47241711578389       -0.57241635275616
C           -3.84297843593025        3.13357444054366       -1.60938954875544
C           -2.68769581069131       -5.03867041417370        4.30484659386931
H           -1.39666850744143        3.51251503834900       -0.76806311868865
H           -4.27662633836220        0.55105838579656       -1.33106614114542
H            2.66329581305412        2.73912661909249        1.72562431984580
H            3.05775395548473       -0.69369546277216        4.16536137542516
H           -0.24710966264510       -4.12034095424229        4.22946223699121
H           -4.11477991332403       -3.04712728052358        3.03244694615357
O           -4.21824883374556        4.03433712717988       -0.87713382485991
O           -4.44510595673734        2.90643496899600       -2.81853501752979
C           -5.44216520282800        3.83300025693726       -3.02488532025093
C            4.23586651889298        1.50004220933226        3.59165660008449
O            5.05927614697201        0.66079890002952        3.91714215179376
O            4.47001334453535        2.86385149488593        3.72605651435371
C            5.79457498613219        3.08584475587818        4.15829123132174
O           -3.82227255313510       -5.27347675879771        4.16636005494405
O           -1.85023202017753       -5.79767454267276        5.06656077253571
C           -2.55119635829503       -6.86252441382958        5.62930343183426
C           -5.07197156564436       -1.42399175670916        1.58830531863830
C           -1.33089900128490       -2.23622472573986       -0.99264499351172
H           -2.54510546830388       -7.76426885143998        4.99136022291012
H           -3.57194749219491       -6.44405511486021        5.74196173723541
H           -2.09133598235598       -7.02043774843818        6.64022264233588
H            5.72707967266424        3.46798026205549        5.10135971236643
H            6.34060091246885        3.78468702308830        3.50069950143490
H            6.17933064298187        2.03010500085905        4.19342358084693
H           -0.91862729772622       -2.57650129080332       -0.01361370304871
H           -0.49769766914251       -1.60651221708571       -1.34094446550576
H           -1.52632419730509       -2.94569707152159       -1.75361447637286
H           -5.11788846557077       -2.41810833635233        1.17520213188926
H           -5.67929807973498       -0.69619639428435        1.04301666067831
H           -5.57598832326623       -1.42383358739762        2.57928294206544
H           -6.13050215934830        3.76035386975488       -2.23272855695873
H           -5.86615610071888        3.45938329385866       -4.02668959924245
H           -5.13479557532099        4.87790991548477       -2.98314551356402
C           -1.38192942069774        3.73616555005018        2.91232598411686
C           -1.84821468128685        2.59982427735607        3.49755545445181
C           -1.05946531454833        2.05730632010638        4.60922730982276
C            0.19893954712228        2.69376791964407        4.86302140881997
C            0.50425395911860        3.94630308659851        4.28768785650746
C           -0.26031777722226        4.46998310053134        3.25072669343212
C           -1.20488993561782        0.74454293276906        5.14851520323437
C           -0.06287609782692        0.02744069315890        5.60930570802864
C            1.19208754369866        0.71421540266195        5.78882868583885
N            1.19428660993148        2.06344359410476        5.62744624321596
C           -2.41361422770794        0.07928500213936        5.25249410304426
C           -2.45851584031083       -1.32662100968547        5.60237876023992
N           -1.29466212405906       -1.98318595734370        5.89916817085159
C           -0.14475655767527       -1.32117560077092        5.98824682881008
C            0.97209270935794       -1.98958449505532        6.53157704134458
C            2.21982707914082       -1.36973967291181        6.68703967237737
C            2.30561929262884       -0.09745313075593        6.26436900324455
C           -3.73018485967715        0.71367583494582        5.25810242262992
C           -4.89964478833448       -0.06184623426677        5.21204641615509
C           -4.82617965800088       -1.39228978090841        5.46901303780036
C           -3.67144193418464       -1.98914944386360        5.67265433266067
O           -3.75568638935321        2.07705011038914        5.52067969627343
O           -2.94192434743730        1.91263938797883        3.01658762327703
C            0.21273512614467        5.50086066357994        2.34765104514621
C           -6.06660304520411       -2.17604633098929        5.80641622556876
H            1.41756699010566        4.38133362238595        4.66974005703471
H           -1.82880610647429        4.11982501512100        2.06992133318584
H            3.26888037378556        0.32655662585251        6.31721410015598
H            0.87146188387207       -3.08471526305024        6.57830423410869
H           -3.67716811065157       -3.05999292755990        5.83019634570050
H           -5.77379677507622        0.43595144608221        4.71017130754348
O            1.34459852619901        5.82615848916894        2.44941456579099
O           -0.74718748219123        6.07961784856304        1.59848183464284
C           -0.21473095568964        7.24015934882472        1.05753806029483
C            3.53228080814219       -2.00967610361154        7.02506769044485
O            3.64093082622715       -3.14437803815732        7.50071391725347
O            4.56565258381079       -1.22937033368332        6.69086985080897
C            5.72579357310716       -1.80692399125161        7.22246151275881
O           -7.04801223588612       -1.95726935745904        5.14194115322235
O           -6.01514389321278       -2.93743591896022        6.94765316328794
C           -7.21292732384718       -3.62681918543340        7.15115816329978
C           -4.95459780685163        2.65960679932188        5.86868674392943
C           -3.68284113682406        2.59129188358641        2.05479246020704
H           -7.43119628931628       -4.22607794725959        6.20622607140901
H           -8.06548455146707       -2.91765848248592        7.29781126410398
H           -7.07314693247270       -4.33087306029711        7.91223421050944
H            6.57332189837178       -1.29353136199234        6.78341268688262
H            5.74663761932316       -2.84282155125561        6.88089468184451
H            5.69426191474290       -1.72781984964892        8.29460302186842
H           -4.10481209541493        3.44288266176275        2.60483747673152
H           -4.49244774344916        1.87419893016926        1.82433103764650
H           -3.18901540870812        2.85154642679373        1.06781919454921
H           -5.55414326821421        2.76698137191684        4.93950725322359
H           -4.78658370641210        3.62090640967288        6.25983200635257
H           -5.43485580473958        1.97242995129449        6.65265772412460
H            0.89164886030839        7.38838561720231        1.13776105146914
H           -0.62894889903848        8.04195665205089        1.64837664327952
H           -0.59282546386754        7.45699159724320        0.03719083132488
116
 energy: -22.698891281945 gnorm: 0.510094761247 xtb: 6.6.1 (8d0f1dd)
C           -2.65357461149081        0.78289735516557       -1.25375187156901
C           -1.81961885096527       -0.15311098669548       -0.52004867510837
C           -0.86587836679538        0.24955742258651        0.49012702329605
C           -0.55383721566085        1.59607006995175        0.35120469482370
C           -1.39631136954632        2.50616907093661       -0.51739013678043
C           -2.42883082057304        2.17103512937234       -1.34680168066849
C           -0.15203304825440       -0.42466759754348        1.57542845090431
C            0.98470646358603        0.26298109375974        2.11664448688870
C            1.17794563421662        1.55274889274748        1.85135229374569
N            0.30311469618373        2.35790607485590        1.13836311584070
C           -0.73819959246898       -1.54713690280117        2.32125025209357
C            0.22432384511114       -2.20548829909988        3.15005537219234
N            1.48911574690275       -1.75841846814030        3.41674762771648
C            1.91336727597285       -0.61453453733818        2.85601944948380
C            3.22976148877621       -0.15676514191459        3.10877737670649
C            3.49237563037434        1.24693697810385        2.93401568388725
C            2.44570238480809        2.07139018573497        2.42273144309767
C           -2.10834394635499       -2.12091300843601        2.11438185430073
C           -2.32502088932054       -3.44379885813524        2.58374560419214
C           -1.28685544217827       -3.99530191280800        3.36747175524525
C           -0.03535084672209       -3.45023842242185        3.59296593889891
O           -3.24820717879771       -1.41371379748423        1.55767781860642
O           -1.89403541275350       -1.57595047048497       -1.08347234097005
C           -3.52853743520339        2.94253660783741       -2.09449519811132
C           -1.57779645646323       -5.32436741449611        3.86199441345840
H           -1.11009588825037        3.48479037477813       -0.32508108863861
H           -3.33230824298133        0.28278463730411       -1.90819884764781
H            2.61315823202769        3.06770446594428        2.45475761485436
H            3.98377032830246       -0.69835872257707        3.73492032394137
H            0.78565177266848       -3.95434082863947        3.99257891308480
H           -3.22084391497242       -3.95354821698099        2.68670091637438
O           -3.14361999737858        3.88399514833161       -2.74997042661734
O           -4.87983446906927        2.57462714275884       -2.10271717601686
C           -5.54885745036412        3.75921841305965       -2.20959002572341
C            4.87366423127332        1.80566248325945        2.82802587336048
O            5.81232058612418        1.12277443073609        3.30885902791607
O            5.01598018195330        2.84214335575752        2.01693695571961
C            6.40305184504498        3.13368296531467        1.92537456357495
O           -2.64199518378516       -5.79068889926087        3.64975048331131
O           -0.59265482745862       -6.01698914111842        4.48201991858351
C           -0.89428898410185       -7.33951486854855        4.85148472377862
C           -3.31828117899456       -0.11891732730696        2.06264266109519
C           -0.81413556922980       -2.47663169353101       -1.33088982047203
H           -1.99340554854106       -7.45170909976702        4.86946018933317
H           -0.49815014093830       -7.46456394917966        5.80762394383400
H           -0.47461190885911       -8.02841998858666        3.99904355484900
H            6.86027625674688        3.01114690182060        2.90316379039533
H            6.52422451431676        4.11840164496432        1.30573082739306
H            6.62239389976150        2.47360084710564        1.12545044374499
H           -1.10143052071245       -3.44336811194732       -1.26351846571174
H           -0.18671187390845       -2.20367198615088       -0.47938363998461
H           -0.40243106406465       -2.53635206986835       -2.34168756186222
H           -3.61314251066402       -0.30614635297590        3.13777448240468
H           -4.06109572783406        0.47156617387462        1.51283219589116
H           -2.41145668456784        0.38481173512426        2.17491778490338
H           -5.41596367999776        4.29323177643626       -1.24819929781426
H           -6.57411161199380        3.57300595082111       -2.57867319220568
H           -5.00132441294253        4.42784896326839       -2.92487951800544
C           -2.17493450500853        3.86697168133117        3.26360398270649
C           -2.49271162597730        2.63676496754234        3.94500659821230
C           -1.50763307850916        1.98406096019513        4.65937708495014
C           -0.11054654540830        2.48126594831548        4.58880262158832
C            0.19940217339390        3.53961566583368        3.82709904115900
C           -0.85598611968465        4.13301422576717        3.05620714418468
C           -1.75105395090133        0.82118203825995        5.36321728959277
C           -0.61924269432229        0.06301381203914        5.76732732267548
C            0.67879530925180        0.45401187788845        5.61771394502482
N            0.92760922325098        1.65169508427374        5.00860283455429
C           -3.07578904384747        0.36724531582257        5.73076214636455
C           -3.15254193711000       -0.94456130628468        6.35329255121929
N           -1.97353484154437       -1.73327560713937        6.54534134499482
C           -0.82751074503465       -1.19367353733133        6.50102125111227
C            0.20887393965772       -1.96838490711494        6.79946808375022
C            1.54379329569296       -1.61265802853429        6.69594289482414
C            1.73263885261371       -0.40509687923713        6.02442389052239
C           -4.02367114251089        1.36012855492070        6.14487935074865
C           -5.28777069097487        0.81807054449189        6.12860666082614
C           -5.53815729561215       -0.56518059265757        6.27236747777732
C           -4.49330219435224       -1.42737768872391        6.61028318901846
O           -3.63253497328219        2.68854344525571        6.49282947457751
O           -3.67430637239124        2.02047678308549        3.73918368626060
C           -0.48434488900439        5.07438834267703        2.01488275930671
C           -6.90952403330163       -1.15992844461360        6.56132937401236
H            1.18667899680537        3.96213165687940        3.92389527808663
H           -2.84302111001692        4.30077501630315        2.53400825881148
H            2.75244586046488        0.02022967087625        5.65885164793728
H            0.03875324966098       -2.93568071396105        7.25506491643674
H           -4.71991232000114       -2.43163061894871        7.02524067793046
H           -6.26047189648581        1.40249065446483        6.06052700234760
O            0.57027533311983        5.69450117234821        2.11040868085699
O           -1.44979942371335        5.13967016373883        1.05859470181082
C           -1.06971283160095        6.03919948210307        0.09314114979548
C            2.64142732619442       -2.49390597815332        7.08978214209553
O            2.73260093992151       -3.66911177571356        6.75067408111088
O            3.41530081567665       -1.80792841305360        7.98506927305984
C            4.40138877590126       -2.76441091997626        8.42361713589333
O           -8.03358400377607       -0.72525933147815        6.77633227141064
O           -6.99110212836737       -2.49539065460407        6.20463786955771
C           -8.19380147708971       -3.12689488996223        6.03168666379026
C           -4.23902886904094        3.11512298544956        7.75079055387720
C           -4.72458424648627        2.71243242230255        3.15115584115556
H           -8.61119077960421       -3.30890333245412        7.02984463988706
H           -8.08208448403809       -3.89754388053778        5.16519936712973
H           -8.86303445695096       -2.46559048923774        5.54067406290419
H            4.37751154501216       -2.66261886810065        9.56107697474243
H            5.21537889117085       -2.42375835606697        7.95599663614559
H            4.35356959973115       -3.76855747422618        8.11362020418330
H           -4.92368982200484        3.79960849282856        3.38953923237224
H           -5.56156423415977        2.15197716424591        3.08583301036258
H           -4.63215825984705        3.04266175855770        2.11166552854747
H           -3.60808902714651        2.98871077172150        8.61569448189343
H           -5.20512720775061        2.45899631184879        7.93282763482049
H           -4.59883997715171        4.10066314868414        7.62245749157878
H           -0.31179227002767        5.38841111592331       -0.59612483163215
H           -0.62799281413535        7.04365633962029        0.54250083578169
H           -1.88876228723137        6.30098036214596       -0.57492193533240
116
 energy: -22.688960253107 gnorm: 0.526753648282 xtb: 6.6.1 (8d0f1dd)
C           -2.59110540276518        0.24974302462824       -0.60134403863159
C           -1.58998784855180       -0.59762271572858       -0.47107232916351
C           -0.46838770298919       -0.14581555799672        0.31714031443842
C           -0.34971708272645        1.30878563288086        0.44639607716454
C           -1.36159947237890        2.18544824776801        0.04214546745234
C           -2.57397253619946        1.58403273762387       -0.42438643618906
C            0.41416595497725       -0.94682470624027        1.24392638418875
C            1.62129472252241       -0.34433636516569        1.67208165391859
C            1.72126379034439        1.03881689764515        1.47584953340880
N            0.75466314716878        1.83322759931847        0.96949470851526
C            0.08432099614580       -2.18500905965379        1.87897749217024
C            1.20777827499799       -2.98911684153466        2.38675637328912
N            2.50931800904536       -2.47885398099733        2.45058450421414
C            2.68368316706176       -1.19823331286735        2.20318786786456
C            3.77896349538264       -0.37726631452948        2.73170679297638
C            3.76536977660666        0.97419089334456        2.63961094717490
C            2.79004603799858        1.73390425457390        1.94424892762181
C           -1.22952845924781       -2.63583353701221        2.08728250665433
C           -1.38260613586331       -3.93801298823284        2.60307916778950
C           -0.31350446677212       -4.66660314396566        2.99167761828774
C            0.98952813586306       -4.29157747596583        2.83488361788266
O           -2.43660109790276       -1.85955035109173        1.85347276475163
O           -1.70164201209893       -1.91351527107238       -1.06115224068822
C           -3.70347526649265        2.34456201595915       -0.89448110690455
C           -0.51750739120944       -5.93658972150476        3.83835405825667
H           -1.04525200423529        3.19290693100740       -0.29487196309876
H           -3.57509874811293       -0.29300733573388       -0.78573267418548
H            2.77914020642030        2.72374134959263        1.71995718724028
H            4.29284043869964       -1.06260142338412        3.45291541229435
H            1.73568820053535       -4.92499681141708        3.47850662905892
H           -2.30082936866272       -4.47513280028485        2.82279916984997
O           -4.22051259377681        3.36990298304398       -0.34100749790542
O           -4.35641723969045        1.69594206071028       -1.81343816883537
C           -5.47379906954366        2.43330324931493       -2.28028863676698
C            4.98450045139861        1.68935190749533        2.81971463241001
O            5.81600995054054        1.05675233135708        3.51739907987090
O            5.17529636131687        2.77390290821554        2.03806293878390
C            6.54665876966165        2.99174575091999        2.12215230555339
O           -1.58489882959004       -6.57653607872140        4.10029309587930
O            0.73648160192017       -6.26063819276846        4.23810920731057
C            0.83287022334693       -7.34079184270953        5.11579566751902
C           -2.60555697964709       -0.95091656322654        2.89019648993453
C           -0.47038563601386       -2.37422585240792       -1.54501715720911
H            0.17152455991586       -7.09977820586236        6.03269791256176
H            1.82237157581717       -7.77683773079582        5.32944320359603
H            0.45753732194146       -8.31421465329305        4.62445303225080
H            6.95588648634269        2.78307476543048        3.11641639812008
H            6.72403496539483        3.95760847138147        1.65015533869945
H            7.22478499460636        2.32595943558283        1.46674694959878
H           -0.19719318416033       -1.56432599320356       -2.15329537652063
H           -0.54964036660469       -3.08630999891195       -2.37225623028511
H            0.47191205465594       -2.28073888333936       -0.80267989837132
H           -2.44405998452445       -1.29684704352287        3.87495993255805
H           -3.69042373412435       -0.74044292901483        3.02401508698437
H           -2.06313706684673        0.03597136335376        2.76531815996939
H           -5.46497392270956        3.43622995260375       -1.88612601244894
H           -6.40087712799847        1.82259273619595       -1.97686629017909
H           -5.36094896056226        2.51062438644618       -3.37012489215591
C           -2.44952779068089        4.47336083807227        3.65501417219692
C           -2.93324416553035        3.22275006135407        3.97057819764403
C           -1.94746849305072        2.27171061145344        4.58365744860153
C           -0.55639459573499        2.48342400233348        4.44608574028133
C           -0.26053711752958        3.74777875811563        3.71441270042824
C           -1.08426508779915        4.67829934770784        3.21953205139309
C           -2.22968394414880        1.23349174407703        5.44902629731946
C           -1.18330796483444        0.23150176600214        5.61658528983026
C            0.18131322359747        0.65366080561026        5.32551045227415
N            0.50786830942466        1.81850722349458        4.73243778515186
C           -3.50286699970216        0.97285008068247        6.12739825756223
C           -3.78229487168109       -0.38432929669649        6.55945233232014
N           -2.74091306447207       -1.33962413205282        6.60830687994336
C           -1.53059946692909       -1.02127661822504        6.09277477438669
C           -0.59070846403218       -1.99202412094483        6.24219181196294
C            0.78067853621702       -1.70953096995528        6.03708171190069
C            1.09061420031276       -0.43625254892796        5.51032670883027
C           -4.58253493009934        1.90933687463216        6.33394015188991
C           -5.89278030730295        1.43331766987442        6.47616698348171
C           -6.13169406203401        0.14108251002844        6.74291930185271
C           -5.15389138493173       -0.79640124215667        6.65700490769721
O           -4.10181568261119        3.12730839000033        6.29757740990165
O           -4.20530797269889        2.98534417305400        3.65274648672487
C           -0.57893583040256        5.68606681120003        2.16272842945444
C           -7.57361292006969       -0.22989577207284        6.76407448616643
H            0.84452370938817        3.88093178305020        3.58456902999400
H           -3.09731038843174        5.31030707409944        3.28105758193491
H            2.21404771491800       -0.48118902854015        5.36590773601241
H           -0.94670575866532       -2.97323395039332        6.52520693106397
H           -5.39462645426796       -1.82338423051702        6.76538513409812
H           -6.82681278573836        2.00636976511526        6.45178082954363
O            0.56187438905714        6.03118944749136        2.08436527586117
O           -1.57603164166179        6.44530433109663        1.50984384028611
C           -1.03367235704907        7.67032631400725        1.09232209087681
C            1.77089611232319       -2.76068634630054        6.42599076421472
O            1.59490327695226       -3.87383936024666        5.96328864811111
O            2.74978986814346       -2.40739011104872        7.29154890113111
C            3.56060867013825       -3.46699989102521        7.66029600525202
O           -8.42831698939432        0.43319243302033        7.36729444353317
O           -7.73282764819047       -1.55316190629315        6.38154292330873
C           -8.97957241171470       -2.30203402396905        6.69855026500761
C           -4.90284961531034        4.08915880749307        6.93662974318086
C           -4.66238183024611        3.62525392710973        2.48184998771769
H           -8.64534812161861       -2.25955475812729        7.79143148052003
H           -8.82468014525436       -3.17023977323325        5.97171996793707
H           -9.62126674855761       -1.52587394642653        6.38973531304478
H            4.45699169656577       -3.25957223789189        7.05903321401833
H            3.10086866660735       -4.35242409996087        7.16025344399929
H            3.75200961486747       -3.66085772408378        8.61988302041439
H           -4.70391587600231        4.64526165783873        2.58630334631088
H           -5.47277479723192        3.13523736758390        2.13130168848210
H           -3.90888789169046        3.25630175425449        1.70094181579520
H           -5.47077472645121        4.77449341899753        6.24201569711358
H           -4.27965744949895        4.68943921683265        7.51507744682774
H           -5.62086697962539        3.52735340047370        7.67070163729553
H           -1.35067450625498        8.61357829566905        1.71308946105923
H           -1.54620529648552        7.73317033589369        0.00578356766562
H            0.10912491840053        7.49192966527753        1.06040995324617
116
 energy: -22.702778065053 gnorm: 0.526585852206 xtb: 6.6.1 (8d0f1dd)
C           -2.48465013712989       -0.33352346001469       -0.59678889988057
C           -1.65531940685801       -1.03476239677910        0.28856368493192
C           -0.71085128793639       -0.26801191558473        1.07093921445818
C           -0.52930556860862        1.10875997751200        0.80887984025403
C           -1.44188340980038        1.73518701797363       -0.12262947990593
C           -2.50949181759593        1.03131063830688       -0.54132712992727
C            0.27255476640844       -0.97342503941160        1.78263938649613
C            1.43342872359753       -0.28236637221965        2.06260482890454
C            1.52190070771791        1.04769111088408        1.73628602983093
N            0.66817448053658        1.76872682241233        1.03442701303547
C            0.19464987840622       -2.23226324794963        2.33705268440997
C            1.46615462867595       -2.89769885890534        2.72350712184393
N            2.63468385549372       -2.26425847784605        2.75554635714729
C            2.59841871219630       -0.92610951629725        2.60634707624747
C            3.80756809826381       -0.14397246581547        2.70143447921728
C            3.83258769142461        1.17358845979566        2.52291787809367
C            2.73420567091104        1.79865642145121        2.00157945166721
C           -1.12890554442373       -2.88586194813262        2.60098775562367
C           -1.16456262370026       -4.24298453725851        2.76942088360028
C            0.02419936060523       -4.97993337227503        2.75161985248900
C            1.23144466572753       -4.35748645936926        2.67161076789228
O           -2.13129993041268       -2.10328615331757        3.02578212603700
O           -1.47156008024237       -2.42121435997840        0.20206282879853
C           -3.52707601953723        1.75235189207429       -1.37710681311545
C            0.01793110960639       -6.40901462259429        3.10218325832709
H           -1.09446877412244        2.72876070831360       -0.38134476919462
H           -3.21229672394319       -0.84776427611560       -1.28883109522469
H            2.85001618459624        2.78273478106157        2.15083550821357
H            4.77404107205838       -0.51834681099543        3.08836560291561
H            2.14562973054327       -4.97494570692567        2.65809756079995
H           -2.04603786434428       -4.82753162625010        2.88524747434411
O           -3.46549698475429        2.91002814418114       -1.65166620251688