116
 energy: -22.928061455056 gnorm: 0.329736929581 xtb: 6.6.1 (8d0f1dd)
C           -3.31122850772930        0.79849766164622       -0.92477639677520
C           -2.44380812530352       -0.12270372891954       -0.27661132624697
C           -1.41337090092821        0.39579727573559        0.56335275196199
C           -0.89266158675590        1.65801491088749        0.27377586709581
C           -1.72665675402493        2.51431363229076       -0.49448366572522
C           -2.95444148494349        2.13954154133227       -1.01494489940871
C           -0.74098268209890       -0.43411532818871        1.49825021926784
C            0.56872586496315        0.03782116815119        1.86248088067890
C            1.03782416582094        1.29402317993033        1.50887470833621
N            0.31238977034758        2.07067427098208        0.65193736800696
C           -1.29695700510141       -1.39996043042223        2.41574187746061
C           -0.38243517664656       -2.18060797534842        3.13232615520648
N            0.91308504082021       -1.90366887689689        3.30325166013478
C            1.37712470144904       -0.74872102533751        2.81811050966982
C            2.52149331701875       -0.17739833758153        3.39379298866852
C            2.95849061756259        1.02681208890480        2.95105897606587
C            2.24288949469137        1.78498308775960        2.03503020483770
C           -2.74860936222260       -1.74497937691422        2.38401158947411
C           -3.09416315450955       -2.91614440870436        3.00571134491758
C           -2.16786021984049       -3.77788778654213        3.63251872101904
C           -0.85708937311598       -3.40495313382985        3.68547234358092
O           -3.71994433332149       -0.94984598373544        1.67726658385724
O           -2.55702603277562       -1.47241711578389       -0.57241635275616
C           -3.84297843593025        3.13357444054366       -1.60938954875544
C           -2.68769581069131       -5.03867041417370        4.30484659386931
H           -1.39666850744143        3.51251503834900       -0.76806311868865
H           -4.27662633836220        0.55105838579656       -1.33106614114542
H            2.66329581305412        2.73912661909249        1.72562431984580
H            3.05775395548473       -0.69369546277216        4.16536137542516
H           -0.24710966264510       -4.12034095424229        4.22946223699121
H           -4.11477991332403       -3.04712728052358        3.03244694615357
O           -4.21824883374556        4.03433712717988       -0.87713382485991
O           -4.44510595673734        2.90643496899600       -2.81853501752979
C           -5.44216520282800        3.83300025693726       -3.02488532025093
C            4.23586651889298        1.50004220933226        3.59165660008449
O            5.05927614697201        0.66079890002952        3.91714215179376
O            4.47001334453535        2.86385149488593        3.72605651435371
C            5.79457498613219        3.08584475587818        4.15829123132174
O           -3.82227255313510       -5.27347675879771        4.16636005494405
O           -1.85023202017753       -5.79767454267276        5.06656077253571
C           -2.55119635829503       -6.86252441382958        5.62930343183426
C           -5.07197156564436       -1.42399175670916        1.58830531863830
C           -1.33089900128490       -2.23622472573986       -0.99264499351172
H           -2.54510546830388       -7.76426885143998        4.99136022291012
H           -3.57194749219491       -6.44405511486021        5.74196173723541
H           -2.09133598235598       -7.02043774843818        6.64022264233588
H            5.72707967266424        3.46798026205549        5.10135971236643
H            6.34060091246885        3.78468702308830        3.50069950143490
H            6.17933064298187        2.03010500085905        4.19342358084693
H           -0.91862729772622       -2.57650129080332       -0.01361370304871
H           -0.49769766914251       -1.60651221708571       -1.34094446550576
H           -1.52632419730509       -2.94569707152159       -1.75361447637286
H           -5.11788846557077       -2.41810833635233        1.17520213188926
H           -5.67929807973498       -0.69619639428435        1.04301666067831
H           -5.57598832326623       -1.42383358739762        2.57928294206544
H           -6.13050215934830        3.76035386975488       -2.23272855695873
H           -5.86615610071888        3.45938329385866       -4.02668959924245
H           -5.13479557532099        4.87790991548477       -2.98314551356402
C           -1.38192942069774        3.73616555005018        2.91232598411686
C           -1.84821468128685        2.59982427735607        3.49755545445181
C           -1.05946531454833        2.05730632010638        4.60922730982276
C            0.19893954712228        2.69376791964407        4.86302140881997
C            0.50425395911860        3.94630308659851        4.28768785650746
C           -0.26031777722226        4.46998310053134        3.25072669343212
C           -1.20488993561782        0.74454293276906        5.14851520323437
C           -0.06287609782692        0.02744069315890        5.60930570802864
C            1.19208754369866        0.71421540266195        5.78882868583885
N            1.19428660993148        2.06344359410476        5.62744624321596
C           -2.41361422770794        0.07928500213936        5.25249410304426
C           -2.45851584031083       -1.32662100968547        5.60237876023992
N           -1.29466212405906       -1.98318595734370        5.89916817085159
C           -0.14475655767527       -1.32117560077092        5.98824682881008
C            0.97209270935794       -1.98958449505532        6.53157704134458
C            2.21982707914082       -1.36973967291181        6.68703967237737
C            2.30561929262884       -0.09745313075593        6.26436900324455
C           -3.73018485967715        0.71367583494582        5.25810242262992
C           -4.89964478833448       -0.06184623426677        5.21204641615509
C           -4.82617965800088       -1.39228978090841        5.46901303780036
C           -3.67144193418464       -1.98914944386360        5.67265433266067
O           -3.75568638935321        2.07705011038914        5.52067969627343
O           -2.94192434743730        1.91263938797883        3.01658762327703
C            0.21273512614467        5.50086066357994        2.34765104514621
C           -6.06660304520411       -2.17604633098929        5.80641622556876
H            1.41756699010566        4.38133362238595        4.66974005703471
H           -1.82880610647429        4.11982501512100        2.06992133318584
H            3.26888037378556        0.32655662585251        6.31721410015598
H            0.87146188387207       -3.08471526305024        6.57830423410869
H           -3.67716811065157       -3.05999292755990        5.83019634570050
H           -5.77379677507622        0.43595144608221        4.71017130754348
O            1.34459852619901        5.82615848916894        2.44941456579099
O           -0.74718748219123        6.07961784856304        1.59848183464284
C           -0.21473095568964        7.24015934882472        1.05753806029483
C            3.53228080814219       -2.00967610361154        7.02506769044485
O            3.64093082622715       -3.14437803815732        7.50071391725347
O            4.56565258381079       -1.22937033368332        6.69086985080897
C            5.72579357310716       -1.80692399125161        7.22246151275881
O           -7.04801223588612       -1.95726935745904        5.14194115322235
O           -6.01514389321278       -2.93743591896022        6.94765316328794
C           -7.21292732384718       -3.62681918543340        7.15115816329978
C           -4.95459780685163        2.65960679932188        5.86868674392943
C           -3.68284113682406        2.59129188358641        2.05479246020704
H           -7.43119628931628       -4.22607794725959        6.20622607140901
H           -8.06548455146707       -2.91765848248592        7.29781126410398
H           -7.07314693247270       -4.33087306029711        7.91223421050944
H            6.57332189837178       -1.29353136199234        6.78341268688262
H            5.74663761932316       -2.84282155125561        6.88089468184451
H            5.69426191474290       -1.72781984964892        8.29460302186842
H           -4.10481209541493        3.44288266176275        2.60483747673152
H           -4.49244774344916        1.87419893016926        1.82433103764650
H           -3.18901540870812        2.85154642679373        1.06781919454921
H           -5.55414326821421        2.76698137191684        4.93950725322359
H           -4.78658370641210        3.62090640967288        6.25983200635257
H           -5.43485580473958        1.97242995129449        6.65265772412460
H            0.89164886030839        7.38838561720231        1.13776105146914
H           -0.62894889903848        8.04195665205089        1.64837664327952
H           -0.59282546386754        7.45699159724320        0.03719083132488
116
 energy: -22.539011216277 gnorm: 0.562808102187 xtb: 6.6.1 (8d0f1dd)
C           -2.96223625621527        0.55517830151595       -0.85343330605053
C           -2.17790199599775       -0.25716733906846       -0.08025371655945
C           -1.07944923498250        0.16948391491095        0.66998713312696
C           -0.74066241591776        1.52522058529649        0.58857432320037
C           -1.62893946317302        2.33379228115188       -0.15099063459648
C           -2.78598623710145        1.90218549224748       -0.86281732505886
C           -0.24419064013123       -0.85569654461076        1.34435192386260
C            1.10888775648219       -0.41500933681946        1.36444696053300
C            1.40360393049447        0.96988477762541        1.38722672650330
N            0.47928965115989        1.89642871185109        0.92445094174494
C           -0.39750727036523       -2.28829192492180        1.78561693862488
C            0.80538571012703       -3.03504468939514        2.18926228705797
N            2.15528946655734       -2.63075021122377        2.08508225528113
C            2.27199985847842       -1.26262982090055        1.93947137322737
C            3.60996400841101       -0.72288389745109        2.11278736267707
C            3.73238868752227        0.68230799485189        2.12844922353562
C            2.71283142116582        1.53195522380986        1.70444255992137
C           -1.61317904899118       -2.67926974019338        2.23494217060433
C           -1.77527173056991       -4.10462362852264        2.57891305530380
C           -0.68927722504281       -4.92154361264423        3.04014690745830
C            0.53030889510063       -4.38384820354722        2.58692150027939
O           -2.68326182147645       -1.82839157302073        2.51692277095990
O           -2.27340595448714       -1.72956014368730       -0.20541919996076
C           -3.66832285129425        2.82631497943892       -1.62809479178033
C           -0.97566689555142       -6.22136526203491        3.66383631783411
H           -1.58470504007727        3.35242955618792       -0.16634150284379
H           -3.63680391440367        0.00762222814611       -1.54229785940974
H            3.08749569216865        2.57781108603323        1.88190839968320
H            4.61651300794492       -1.14940889951374        2.49268155837392
H            1.36288269439463       -5.10953547539544        2.63238817538485
H           -2.72355345593161       -4.38377364414892        2.71648893139287
O           -4.44596982786462        2.31877892725023       -2.49536130345733
O           -4.04475515131716        3.96572669821959       -1.09252564349046
C           -5.01035268527084        4.59723494495875       -1.93518815987226
C            5.05007075077698        1.29999571731442        2.12860337462206
O            5.35521825246043        2.46663493794957        2.61000957617568
O            6.11519554157521        0.63737853307948        1.36500832575042
C            7.11790548817488        1.57423043597142        1.11434608850341
O           -2.19365021859469       -6.54848791999708        3.74024688268220
O           -0.05694224068798       -6.87111490030614        4.42972582521214
C           -0.58361076216302       -8.07141660179439        4.89211975869558
C           -4.06241810113605       -2.39371062691406        2.31961421082782
C           -2.49926672983734       -2.29009735901583       -1.45173079687617
H           -0.71994725283491       -7.85934461207210        6.08519380085227
H            0.03123746210804       -8.95010643762076        4.59610685250368
H           -1.46830847078511       -8.51160809009722        4.34240300245712
H            6.62711119316798        2.47535758972948        0.65013343478850
H            7.94283303417392        1.51195563073588        0.50996676454037
H            7.70572148400121        1.91589325638824        2.02024139419731
H           -2.75826655291540       -3.32328389840433       -1.48607361341761
H           -1.58968006929226       -2.26720932172004       -2.02176807997601
H           -3.49004643239396       -2.12304134054046       -1.89042468255589
H           -4.20065745974123       -2.36964377942881        1.19653249679542
H           -4.90632503537640       -1.68973520111293        2.72659227783842
H           -4.34754156643833       -3.28300964310179        2.84399518598071
H           -5.69239651664293        3.79490564723586       -1.86705550138651
H           -4.53794361676885        5.28945754124497       -2.75045897163351
H           -5.29835716217116        5.42578029044850       -1.33081113535322
C           -2.18532772851911        4.13758215470762        3.34913889797735
C           -2.55410769559644        3.01952988327258        4.11026748162568
C           -1.68522334721512        2.46114585484310        5.20177602562766
C           -0.34352848506308        2.98328828717082        5.12334339207872
C            0.07204321348553        4.05330401989562        4.22844630538689
C           -0.86338401883721        4.64490086438948        3.43885996192934
C           -1.89403828874700        1.51055950072865        6.27801873594902
C           -0.89567577555817        0.62037535561596        6.84039758472050
C            0.32930045656717        1.14432918161277        6.46088402195707
N            0.49489305209210        2.44245687546718        6.12001052644012
C           -3.28832101231837        1.04376696051591        6.56627468507808
C           -3.43208112791070       -0.32284831413263        6.87429441554757
N           -2.53852756959420       -1.09469555238664        7.49906703110743
C           -1.22346822483844       -0.77970041920266        7.20717405474200
C           -0.07411192946474       -1.46902912448149        7.56648356269731
C            1.25131687584433       -0.91394868099755        7.52782398446068
C            1.40431074930209        0.32746539302823        6.86260413358733
C           -4.45343999189772        1.91754340382104        6.39352379511486
C           -5.67724745327078        1.28233400728401        5.97227423114726
C           -5.72066192260697       -0.14386154047518        5.99514432060594
C           -4.70482497653905       -0.87787637276872        6.48465506535148
O           -4.42095347651841        3.35598036003968        6.37071678986030
O           -3.76160919412040        2.29613071631865        3.94181452862953
C           -0.89313648657980        5.89600882706109        2.75288821145160
C           -6.98884775365922       -0.70543824886198        5.62526694277088
H            1.16013364738439        4.06082886638522        4.19744450561801
H           -2.89337801735814        4.75652960758012        2.69297583149244
H            2.44706177313250        0.68364434686553        6.72340617237343
H            0.00012935509684       -2.43488992823643        8.09180385365316
H           -4.64150402700778       -1.96169390332570        6.56263647649062
H           -6.39451674692296        1.60918232373299        5.32619260349558
O           -1.80939112534890        5.97349414321092        1.90447269717630
O            0.10816390165385        6.88426915707083        2.77804872086972
C            0.13435034580301        7.98395549629754        1.86524563675928
C            2.55823816683778       -1.63694356499975        7.89869553287127
O            2.87168170059332       -2.34231081252969        8.90945354891901
O            3.49761409479002       -1.44743335646216        6.90230118812839
C            4.71063753182318       -2.32972071783096        7.19221995729959
O           -7.76770495149192       -0.09962597633573        4.91287576547722
O           -7.10293487139199       -2.05165616047726        5.70346537585860
C           -7.73561758708399       -2.84872418793501        4.80788009809106
C           -5.40331478909459        3.98294687840013        5.55437376410698
C           -3.76881220520919        0.96959416791882        3.35633277664635
H           -6.95809149023602       -3.09213531011244        4.01613943584362
H           -8.51380307884135       -2.37822417960936        4.38454993944507
H           -8.07528736102107       -3.92733677875963        5.14726789216224
H            4.46768478760852       -3.06028993755602        7.88046621902112
H            5.42945006124290       -1.66111767686929        7.39040323230046
H            4.94634260235189       -2.89552502123355        6.19342718680849
H           -4.71536063149929        0.41330849807602        3.03407020752652
H           -3.31665356771613        0.43876855137211        4.18045731815097
H           -2.99447008293817        1.26515039892423        2.55385604830168
H           -6.21696629793161        3.39878074947537        5.87400922464121
H           -5.29405662398544        3.94023510009793        4.41713769465502
H           -5.38161414347636        4.97278753210727        5.82178121470861
H            0.05104153335347        8.99216836112174        2.26909657586374
H           -0.79926222258757        7.82225260396865        1.26830457130108
H            0.91696483453373        7.60134462699870        1.26679840699548
116
 energy: -22.527470505109 gnorm: 0.578375363630 xtb: 6.6.1 (8d0f1dd)
C           -2.88341275143269       -0.10530247993794        0.29221867314433
C           -1.84371601456376       -1.00096878942234        0.61881648385192
C           -0.58983323239888       -0.48251207751855        1.08275392729278
C           -0.29727259292795        0.87804398829610        0.79181619719147
C           -1.36683409259314        1.76743542161617        0.49828754429339
C           -2.58597972744554        1.28386006863435        0.21456021529311
C            0.47635130201672       -1.23017487824412        1.79633247464937
C            1.82522286032669       -0.73949149689977        1.69610350001759
C            1.91020394952378        0.61473174654050        1.10001232494343
N            0.94315618280943        1.36787007171380        0.64452802867341
C            0.30350002843213       -2.40356089534769        2.51414324178977
C            1.46636908988752       -3.19122365783757        2.47598467825853
N            2.71277690074007       -2.72727927371553        2.39614469887561
C            2.96084904402945       -1.31289991798422        2.24322049769302
C            4.20862604261301       -0.61623928988048        2.18232964263752
C            4.36404183377555        0.63833346765326        1.51813963074106
C            3.22231600922232        1.10269255374214        0.76053912626356
C           -0.93437091826972       -2.93713928796177        2.94211203002586
C           -0.84931129959066       -4.18022680011167        3.61053613282568
C            0.10285334700215       -5.19256497660545        3.13995077953319
C            1.24659716899570       -4.59047446664479        2.58413416665516
O           -1.91625451458909       -2.02316178013127        3.05827393583385
O           -1.89721027591962       -2.39002361920997        0.43067296661415
C           -3.67027102732240        2.10351472098910       -0.51156687423275
C           -0.09142178079766       -6.72734731718742        2.98532598465493
H           -1.14373991725008        2.73741189275859        0.07760108312104
H           -3.81372982065408       -0.54256888998927       -0.29115347345012
H            3.23124321535924        2.11886410902314        0.61518068863476
H            4.87690774877613       -1.39238146513978        2.40778815760267
H            2.04731029163527       -5.28773892782536        2.21583790471499
H           -1.68030487306347       -4.51398837148037        4.03374035043288
O           -3.96375232831411        3.19413483034882        0.11074922422825
O           -4.50871235778115        1.46984428605738       -1.41218115052428
C           -5.50420069507572        2.41423318062406       -1.80783283368167
C            5.77016843841724        1.22551962963622        1.48005352269638
O            5.77709995333487        2.25694180158473        0.89788782689753
O            6.82963412226701        0.35924075632752        1.81373784285068
C            8.04072011760073        0.99853172283049        1.48065717074999
O           -1.10870589341168       -7.30409201014711        2.80052012515167
O            1.10793446410844       -7.33109856967268        3.07454426289330
C            0.98735749197599       -8.78405196200592        2.78784423348020
C           -3.28148340617938       -2.63133638795428        3.23042107069059
C           -3.26123249741139       -2.77674141317222       -0.03510340594083
H            0.61983583933550       -9.35279838793781        3.70626013551135
H            1.93178137086415       -9.06952257512346        2.36440927035370
H            0.26493511397337       -8.64991952203735        2.07188835123718
H            8.51153797465835        0.13871640052269        1.30302948185875
H            8.36534018599703        1.56084061157767        2.42918335246453
H            8.05785442475977        1.61058416653082        0.59501132799275
H           -3.35202061417900       -3.81304444157980       -0.01487606992491
H           -3.54430956108374       -2.56591413040514       -1.16116762574030
H           -3.87334961850524       -2.46936746881932        0.77422927404763
H           -4.04526644500293       -2.53745341807950        2.47446739445459
H           -3.80810297306261       -1.97888159581732        3.90554867135860
H           -3.47518277027577       -3.53813886296560        3.81037177963950
H           -5.91185709052571        1.97334698226148       -2.70207971755663
H           -5.14792703986770        3.38352303072169       -2.40609028622664
H           -6.10314135154918        2.80175869674296       -0.93224697513261
C           -2.42572177581405        5.04034314721255        3.65841613277889
C           -2.89942764875442        3.81569793320241        4.11491530362982
C           -1.92869572850409        2.90856087606523        4.57167814883711
C           -0.52760275259796        3.10239427031016        4.55671341663330
C           -0.10098976096343        4.29491078210650        3.91071783580557
C           -1.05802370881715        5.31950974686716        3.45731265929362
C           -2.34377755061279        1.78842918561318        5.39854200939175
C           -1.37136010264734        0.88341235731407        5.67343408864363
C            0.01405624776891        1.25919697446277        5.63368322693794
N            0.37057038368874        2.37776444070911        5.15762980679250
C           -3.63971853173244        1.31688131275694        5.62943114593626
C           -3.82447448776001       -0.18520740532686        5.45758766562132
N           -2.85543700964091       -1.09362773781744        5.68407074065901
C           -1.65661349935325       -0.49463033811958        5.76061249522553
C           -0.64180190139153       -1.34642605224381        6.39281080419286
C            0.52954770451608       -0.90103581174187        6.97421899292643
C            0.92569827673039        0.35009843507257        6.22120337797796
C           -4.75164898072357        2.16266375369484        6.20372409820968
C           -5.98373132373911        1.61799056505325        5.83995478050366
C           -6.19302626377275        0.26085525589590        5.25402934033044
C           -5.17625292245611       -0.64074034880229        5.19372787357344
O           -4.43265446238135        3.21635871542793        7.09828919624787
O           -4.33377961883150        3.53453704917823        4.03721639790725
C           -0.46171286426828        6.66396505379353        3.06699406029504
C           -7.69101794961961       -0.26933095034872        5.49204990886644
H            0.82252927120654        4.79580309446060        3.95617355868031
H           -3.25781582766996        5.80636954105684        3.33297800560081
H            1.89855742952503        0.22766265577830        5.84632423069033
H           -1.18039211731487       -2.28771052865169        6.61125506200379
H           -5.53907812792446       -1.65477816092114        4.92136331958025
H           -6.79193658701246        2.21848561332119        5.66527968465099
O            0.06968149693222        7.44590363730668        3.83679570600632
O           -0.74525919070580        6.97163968264933        1.83913970268923
C           -0.13387365286927        8.19952800042820        1.32233750040616
C            1.63163993621680       -1.81289498660524        7.65173534681924
O            1.33474430679441       -2.85352662655391        8.04212507017579
O            2.84985058245174       -1.17340152282097        7.82187336006213
C            3.90137616258600       -1.95532350085354        8.47413268986185
O           -8.06570019285912       -0.13248790254969        6.66896401129842
O           -8.37586799067959       -0.72376669159936        4.49438842268370
C           -9.73170649250739       -0.97877959561451        5.03993470696784
C           -5.62799997772905        3.57365813519882        7.66878404619500
C           -5.23361237104259        3.76717156921147        2.94247932693544
H           -9.47007896779354       -1.47459129395980        6.03377287660406
H          -10.22724369664612       -1.63017099718799        4.17097564072558
H          -10.36674256171325       -0.09542334914963        4.60854851693299
H            4.03587369524341       -3.03961829882183        8.15665273094090
H            3.90625451986433       -1.83846416061149        9.50838711434949
H            4.79124766721033       -1.35181667144973        8.10631566290934
H           -4.70314685817328        3.27982429038952        2.00797116510367
H           -4.90117485053281        4.92132276283009        2.75124771879413
H           -6.25996156017490        3.32385757229221        2.76743751166618
H           -6.04944045810058        2.79168680818246        8.14437246989315
H           -6.37898605880590        3.70196378512700        6.77873673052627
H           -5.46828824999385        4.53981460253628        8.34357239319011
H           -0.83407527406581        9.04248094758731        1.09222193711305
H            0.55161728276865        8.06508673947649        0.37860532302077
H            0.48442679896258        8.63379149808246        2.15133394494401
116
 energy: -22.577850132268 gnorm: 0.557320512211 xtb: 6.6.1 (8d0f1dd)
C           -2.35670413298489       -0.55548678868886       -0.34295948599310
C           -1.39034371695391       -1.43060363781838        0.12444772178033
C           -0.50305933446492       -0.84602385206151        1.18366401908051
C           -0.41715031829516        0.49561517613542        1.25420810842926
C           -1.39815903244630        1.34254938165923        0.84410919761207
C           -2.39712678339551        0.77597856459710        0.10365757068448
C            0.57928891573385       -1.52165244042722        1.82309452067819
C            1.65983499006655       -0.74754958772943        2.21637290688450
C            1.84878485439820        0.70827002616495        1.84121088480588
N            0.58859473514796        1.25432764833768        1.76726222065727
C            0.55282748298165       -3.00979042271951        1.95272864787488
C            1.93828625043698       -3.57921313960954        2.27829780543722
N            3.04706898631383       -2.85708819149369        2.48328750990979
C            2.80215415497567       -1.49502833747003        2.64412320363325
C            4.15713834074425       -0.81933987842251        2.68313396652003
C            4.25295849676384        0.53453721191026        2.40678443993929
C            3.04515750071586        1.33510301330267        2.20779633564505
C           -0.53458460975586       -3.90955504514197        2.10927561480706
C           -0.32395778630293       -5.29283698326465        2.39964931278980
C            1.00462561751063       -5.69789829923374        2.62921551833025
C            2.10804582848231       -4.88660541077300        2.43494326399900
O           -1.91660787424572       -3.43656426804436        2.08443717258550
O           -1.09138110683185       -2.61387725356797       -0.35635216566719
C           -3.38418126873737        1.73443115749508       -0.17807370810868
C            1.48990176583465       -7.11616514353455        3.01391383531249
H           -1.44148635530134        2.26028514731970        1.47216803398825
H           -3.01123589441756       -0.91894563203812       -1.22080132005708
H            3.30422397609571        2.39692739314408        1.93977175867127
H            5.06874208550758       -1.40212408061363        3.17123695498512
H            3.09859743962006       -5.24746955785493        2.66360583402226
H           -1.19869964424750       -5.84819589106467        2.58714116970149
O           -3.79419850306418        2.61208311540564        0.62947766684261