116
 energy: -22.928061455056 gnorm: 0.329736929581 xtb: 6.6.1 (8d0f1dd)
C           -3.31122850772930        0.79849766164622       -0.92477639677520
C           -2.44380812530352       -0.12270372891954       -0.27661132624697
C           -1.41337090092821        0.39579727573559        0.56335275196199
C           -0.89266158675590        1.65801491088749        0.27377586709581
C           -1.72665675402493        2.51431363229076       -0.49448366572522
C           -2.95444148494349        2.13954154133227       -1.01494489940871
C           -0.74098268209890       -0.43411532818871        1.49825021926784
C            0.56872586496315        0.03782116815119        1.86248088067890
C            1.03782416582094        1.29402317993033        1.50887470833621
N            0.31238977034758        2.07067427098208        0.65193736800696
C           -1.29695700510141       -1.39996043042223        2.41574187746061
C           -0.38243517664656       -2.18060797534842        3.13232615520648
N            0.91308504082021       -1.90366887689689        3.30325166013478
C            1.37712470144904       -0.74872102533751        2.81811050966982
C            2.52149331701875       -0.17739833758153        3.39379298866852
C            2.95849061756259        1.02681208890480        2.95105897606587
C            2.24288949469137        1.78498308775960        2.03503020483770
C           -2.74860936222260       -1.74497937691422        2.38401158947411
C           -3.09416315450955       -2.91614440870436        3.00571134491758
C           -2.16786021984049       -3.77788778654213        3.63251872101904
C           -0.85708937311598       -3.40495313382985        3.68547234358092
O           -3.71994433332149       -0.94984598373544        1.67726658385724
O           -2.55702603277562       -1.47241711578389       -0.57241635275616
C           -3.84297843593025        3.13357444054366       -1.60938954875544
C           -2.68769581069131       -5.03867041417370        4.30484659386931
H           -1.39666850744143        3.51251503834900       -0.76806311868865
H           -4.27662633836220        0.55105838579656       -1.33106614114542
H            2.66329581305412        2.73912661909249        1.72562431984580
H            3.05775395548473       -0.69369546277216        4.16536137542516
H           -0.24710966264510       -4.12034095424229        4.22946223699121
H           -4.11477991332403       -3.04712728052358        3.03244694615357
O           -4.21824883374556        4.03433712717988       -0.87713382485991
O           -4.44510595673734        2.90643496899600       -2.81853501752979
C           -5.44216520282800        3.83300025693726       -3.02488532025093
C            4.23586651889298        1.50004220933226        3.59165660008449
O            5.05927614697201        0.66079890002952        3.91714215179376
O            4.47001334453535        2.86385149488593        3.72605651435371
C            5.79457498613219        3.08584475587818        4.15829123132174
O           -3.82227255313510       -5.27347675879771        4.16636005494405
O           -1.85023202017753       -5.79767454267276        5.06656077253571
C           -2.55119635829503       -6.86252441382958        5.62930343183426
C           -5.07197156564436       -1.42399175670916        1.58830531863830
C           -1.33089900128490       -2.23622472573986       -0.99264499351172
H           -2.54510546830388       -7.76426885143998        4.99136022291012
H           -3.57194749219491       -6.44405511486021        5.74196173723541
H           -2.09133598235598       -7.02043774843818        6.64022264233588
H            5.72707967266424        3.46798026205549        5.10135971236643
H            6.34060091246885        3.78468702308830        3.50069950143490
H            6.17933064298187        2.03010500085905        4.19342358084693
H           -0.91862729772622       -2.57650129080332       -0.01361370304871
H           -0.49769766914251       -1.60651221708571       -1.34094446550576
H           -1.52632419730509       -2.94569707152159       -1.75361447637286
H           -5.11788846557077       -2.41810833635233        1.17520213188926
H           -5.67929807973498       -0.69619639428435        1.04301666067831
H           -5.57598832326623       -1.42383358739762        2.57928294206544
H           -6.13050215934830        3.76035386975488       -2.23272855695873
H           -5.86615610071888        3.45938329385866       -4.02668959924245
H           -5.13479557532099        4.87790991548477       -2.98314551356402
C           -1.38192942069774        3.73616555005018        2.91232598411686
C           -1.84821468128685        2.59982427735607        3.49755545445181
C           -1.05946531454833        2.05730632010638        4.60922730982276
C            0.19893954712228        2.69376791964407        4.86302140881997
C            0.50425395911860        3.94630308659851        4.28768785650746
C           -0.26031777722226        4.46998310053134        3.25072669343212
C           -1.20488993561782        0.74454293276906        5.14851520323437
C           -0.06287609782692        0.02744069315890        5.60930570802864
C            1.19208754369866        0.71421540266195        5.78882868583885
N            1.19428660993148        2.06344359410476        5.62744624321596
C           -2.41361422770794        0.07928500213936        5.25249410304426
C           -2.45851584031083       -1.32662100968547        5.60237876023992
N           -1.29466212405906       -1.98318595734370        5.89916817085159
C           -0.14475655767527       -1.32117560077092        5.98824682881008
C            0.97209270935794       -1.98958449505532        6.53157704134458
C            2.21982707914082       -1.36973967291181        6.68703967237737
C            2.30561929262884       -0.09745313075593        6.26436900324455
C           -3.73018485967715        0.71367583494582        5.25810242262992
C           -4.89964478833448       -0.06184623426677        5.21204641615509
C           -4.82617965800088       -1.39228978090841        5.46901303780036
C           -3.67144193418464       -1.98914944386360        5.67265433266067
O           -3.75568638935321        2.07705011038914        5.52067969627343
O           -2.94192434743730        1.91263938797883        3.01658762327703
C            0.21273512614467        5.50086066357994        2.34765104514621
C           -6.06660304520411       -2.17604633098929        5.80641622556876
H            1.41756699010566        4.38133362238595        4.66974005703471
H           -1.82880610647429        4.11982501512100        2.06992133318584
H            3.26888037378556        0.32655662585251        6.31721410015598
H            0.87146188387207       -3.08471526305024        6.57830423410869
H           -3.67716811065157       -3.05999292755990        5.83019634570050
H           -5.77379677507622        0.43595144608221        4.71017130754348
O            1.34459852619901        5.82615848916894        2.44941456579099
O           -0.74718748219123        6.07961784856304        1.59848183464284
C           -0.21473095568964        7.24015934882472        1.05753806029483
C            3.53228080814219       -2.00967610361154        7.02506769044485
O            3.64093082622715       -3.14437803815732        7.50071391725347
O            4.56565258381079       -1.22937033368332        6.69086985080897
C            5.72579357310716       -1.80692399125161        7.22246151275881
O           -7.04801223588612       -1.95726935745904        5.14194115322235
O           -6.01514389321278       -2.93743591896022        6.94765316328794
C           -7.21292732384718       -3.62681918543340        7.15115816329978
C           -4.95459780685163        2.65960679932188        5.86868674392943
C           -3.68284113682406        2.59129188358641        2.05479246020704
H           -7.43119628931628       -4.22607794725959        6.20622607140901
H           -8.06548455146707       -2.91765848248592        7.29781126410398
H           -7.07314693247270       -4.33087306029711        7.91223421050944
H            6.57332189837178       -1.29353136199234        6.78341268688262
H            5.74663761932316       -2.84282155125561        6.88089468184451
H            5.69426191474290       -1.72781984964892        8.29460302186842
H           -4.10481209541493        3.44288266176275        2.60483747673152
H           -4.49244774344916        1.87419893016926        1.82433103764650
H           -3.18901540870812        2.85154642679373        1.06781919454921
H           -5.55414326821421        2.76698137191684        4.93950725322359
H           -4.78658370641210        3.62090640967288        6.25983200635257
H           -5.43485580473958        1.97242995129449        6.65265772412460
H            0.89164886030839        7.38838561720231        1.13776105146914
H           -0.62894889903848        8.04195665205089        1.64837664327952
H           -0.59282546386754        7.45699159724320        0.03719083132488
116
 energy: -22.752479719826 gnorm: 0.475260937361 xtb: 6.6.1 (8d0f1dd)
C           -3.34902745531663        0.51370022901279       -1.42806673166514
C           -2.55743418920385       -0.28908253144471       -0.52215826812459
C           -1.76722679309667        0.47970135842662        0.42116756888251
C           -1.39590237971775        1.81194681216398        0.00590416009079
C           -2.27213791848651        2.51825922837493       -0.84859253106393
C           -3.24119856774856        1.93011937635948       -1.59173777701490
C           -0.95192914316519       -0.22695204707570        1.47589942988861
C            0.39288789098548        0.25865399530351        1.57028657609203
C            0.56406724695823        1.61604993474662        1.03994841132269
N           -0.32771684410632        2.49677807353533        0.50999753556529
C           -1.39100556727685       -1.33842099646912        2.26813594630101
C           -0.32845347197408       -2.06924627785512        2.92789112501135
N            0.91044789917605       -1.46125380984194        3.19057073589839
C            1.27586158221160       -0.35676059269961        2.51381265412665
C            2.45522550611635        0.36563441265279        2.86854867171022
C            2.72232925549971        1.54283650539220        2.29479852927309
C            1.78135611430212        2.16328785160806        1.49983312329328
C           -2.60375437997057       -2.11182881297366        2.13328789204571
C           -2.75123952348106       -3.42079469793443        2.55468733073956
C           -1.74088800096476       -3.98647188310005        3.28152359943416
C           -0.53026136838914       -3.31090981756169        3.47730904391245
O           -3.66052069341001       -1.26775333380090        1.57753073824532
O           -2.73301421581800       -1.73184465495832       -0.62683375708030
C           -4.15813418793285        2.77085262208356       -2.42384092034353
C           -2.06440375573137       -5.27673268038615        3.83718341418176
H           -2.12062004894499        3.59670223958827       -1.12458113597594
H           -4.03070925531113       -0.20786369125363       -1.96981954850917
H            2.03654378259618        3.27773399739186        1.28204971407448
H            3.21394054040178       -0.02504175665665        3.67088584228820
H            0.32645005626788       -3.67358333433486        4.05285734108488
H           -3.73307105608911       -3.98504319299808        2.25799151731364
O           -3.67195793399411        3.35538738883588       -3.34019583002858
O           -5.48140982916935        2.83339106368194       -2.07107747948628
C           -6.17563322192701        3.72584941267748       -2.92427770860556
C            3.80486031001003        2.22809351021779        2.88466407594265
O            4.70314936443876        1.55544711962912        3.40271204329815
O            3.82508374182357        3.54147447869766        2.56544129103315
C            5.00297394886664        4.24712437162642        2.95283060601289
O           -3.22633323842433       -5.70824283570425        4.00221708477070
O           -0.95839771405697       -6.10520808392919        4.04568339927905
C           -1.21657517806512       -7.48926829545704        4.26586924149439
C           -4.82245351884495       -1.82660221449472        0.97299103238005
C           -2.15964169509763       -2.42177740741350       -1.72651570253850
H           -2.27384061332522       -7.65917084778321        4.57555352134501
H           -0.42987362886659       -7.92650185877574        4.85556524858926
H           -1.06313877346179       -7.87071274823427        3.15757914410635
H            5.66853028955899        3.93742679170002        2.03562126740984
H            5.36848012287887        3.92949778578027        3.96234874441807
H            4.67105203628652        5.31505840788991        2.88555373872098
H           -2.87613572209816       -2.88820602383117       -2.37315699679215
H           -1.53587655633984       -3.14655522117979       -1.11561204984700
H           -1.39236091041360       -1.96720220028544       -2.23545890573488
H           -4.43988377596368       -2.84026679019315        0.65316302990032
H           -5.37888696084104       -1.06667143305870        0.37664310085777
H           -5.43793744599305       -2.21272265654124        1.74618522418914
H           -5.64690032179242        4.68931517743828       -2.89084974004928
H           -7.22955922081964        3.51225492797809       -2.59862878237808
H           -5.84047147053323        3.40922608873617       -3.85479363087204
C           -1.26073528255430        3.57746458605047        3.30663412698112
C           -1.48949601871615        2.30213012335866        3.71556518832375
C           -0.60580741783486        1.68777040248581        4.64479143735454
C            0.73767609178278        2.15968905489732        4.86290826942620
C            0.93778130935738        3.41556384962585        4.41057511345536
C            0.00351067829656        4.15456430870861        3.66222791997913
C           -0.88937151192350        0.41495201254767        5.29751203679960
C            0.20991815358986       -0.41304868423066        5.81520418034549
C            1.49464357668493        0.18050427052750        5.93324177651717
N            1.72233410641221        1.54977328922400        5.67117697559941
C           -2.22531453645968        0.05866020994403        5.75981002988693
C           -2.35253667010098       -1.33451797196805        6.01767066060906
N           -1.36576384378158       -2.19066638623822        6.44315505013813
C           -0.09350009306957       -1.62994489439486        6.49981185581372
C            0.80818041282598       -2.08430719009414        7.50891766302277
C            2.03422188569937       -1.54968767580072        7.51180280751459
C            2.44472294199894       -0.46392224900443        6.81370092227618
C           -3.30877198362207        0.96667174492069        5.80544120340812
C           -4.61327583673570        0.55190691856944        5.99561141902930
C           -4.89499189228471       -0.78659978682470        5.82791046646011
C           -3.76878619853076       -1.71681367983945        6.02224930182975
O           -3.08674290922263        2.33740857051483        5.82079296001812
O           -2.54993495151983        1.68922095684760        3.10093663368901
C            0.41644933516583        5.32345113084071        2.87309999303306
C           -6.33782891922642       -1.33930161447337        5.91143996701141
H            1.83122790131141        3.96241995835834        4.56390629256144
H           -1.74838170650781        4.04823021018961        2.48364326396504
H            3.44687054749943       -0.22195465323716        6.87018042207408
H            0.48736672677207       -2.90734148053689        8.12563024611859
H           -3.94263497395460       -2.75520729376200        5.70736891480321
H           -5.37911688649918        1.12583689912744        6.04420724475663
O            1.27193993723298        6.12667348098589        3.26881591910647
O           -0.26697907995243        5.41375905426289        1.65154870884322
C            0.05435814726434        6.66363119819619        1.11516590638215
C            2.97287306996199       -1.98281493712730        8.55874854280395
O            2.95989876292548       -3.13496644915177        8.97019179717429
O            3.91331541332882       -1.07485333994892        9.04014341647107
C            4.76943755908222       -1.69346462592687        9.89644860780679
O           -7.29733103847934       -0.60080253792105        6.31306596962384
O           -6.62614209859799       -2.60313485837308        5.41867065550428
C           -7.97710573803106       -2.91462541205784        5.32991395176213
C           -2.45699028945529        2.64733689589471        7.06262979812335
C           -3.93638954772876        2.10435924693643        3.00126593012556
H           -8.02141670038133       -3.92233752713125        5.72385768201373
H           -8.48700523151010       -2.77865620957315        4.32733094023583
H           -8.50802643218312       -2.09362220209613        5.90820278990722
H            5.27264970292562       -2.55226104498441        9.41041033062738
H            4.31971438830645       -2.09149158770814       10.81219404824629
H            5.53629182424442       -0.89639104913220       10.06931146715512
H           -4.63406321927165        1.32464689041554        2.82244279036032
H           -3.92428419862679        2.87842873437634        2.17216586201397
H           -4.24974008617145        2.67720664429483        4.01071521803618
H           -3.09448792071845        2.27960576761379        7.74973938348468
H           -2.13405208994588        3.72831551250756        7.16802901679253
H           -1.49589338888252        2.02040249061382        7.18514587447862
H            1.08658319708280        6.72146057476767        1.07267043786136
H           -0.43706462751138        7.35446379931591        1.75279102385974
H           -0.33251024132830        6.88896586717476        0.21449012015971
116
 energy: -22.787987285140 gnorm: 0.452493729880 xtb: 6.6.1 (8d0f1dd)
C           -3.48322477234356       -0.01107120602640       -2.06847876993751
C           -2.64239996728670       -0.50557310578322       -1.06310925153048
C           -1.74715700017150        0.38639899918972       -0.19763047518546
C           -1.43660160595676        1.61612048378668       -0.71591612204585
C           -2.33833597598680        2.09815702402493       -1.68312974658845
C           -3.32830178116416        1.38254743901052       -2.23652865419830
C           -0.95069955794554       -0.16736240849013        0.86083788232628
C            0.27419614628943        0.37732013446700        1.12690196501430
C            0.47892284549893        1.71720527403641        0.68840675715684
N           -0.51240344456592        2.36237371702286       -0.00198974835758
C           -1.09522700682011       -1.29838457057497        1.65559791060992
C           -0.07313783966293       -2.02184849607777        2.41092934213107
N            1.00896033397139       -1.34631609945425        2.71331656360988
C            1.23189380909070       -0.22183741363795        2.00017375583209
C            2.28066709713210        0.64828334408870        2.43691578803611
C            2.51512753639022        1.81300890532812        1.91638877650839
C            1.58575303918659        2.42543097487331        1.04547369253232
C           -2.43991606492750       -1.66670134815119        2.07121902284624
C           -2.66306107569435       -2.79529534478163        2.91346401102780
C           -1.61876152727499       -3.65752937016843        3.33666546770800
C           -0.34539090919964       -3.23934111854006        3.07165879716192
O           -3.38558721894969       -0.78558990470155        1.49978538803753
O           -2.71587130189706       -1.82203862255018       -0.69695773491680
C           -4.48218386083744        2.19017300710910       -2.76890976352850
C           -1.92080179308791       -4.88238022143956        4.02036918858292
H           -2.59053304248190        3.19374198304874       -1.72155122103838
H           -4.41269604032719       -0.52168278972752       -2.46406050918017
H            1.73791685860303        3.47179001723727        0.76199038331218
H            2.94439334407016        0.30816997530025        3.25669428408713
H            0.47390534548996       -3.67361638114708        3.60474450903801
H           -3.73061874202546       -3.03764881544294        3.41413393356085
O           -4.47290268479495        3.38700999270954       -2.78281615972449
O           -5.39379952012540        1.52311039337220       -3.41599939272996
C           -6.56620516781475        2.18680424338332       -3.76298706953544
C            3.66591417178177        2.76858763475814        2.18053233624575
O            4.06700834169007        2.88228798920373        3.32905583933621
O            4.37398662129615        3.29099057243001        1.15085379122887
C            5.60279418044062        3.81002593997468        1.68729323916259
O           -3.06778517494209       -5.24270741355943        4.22889666279866
O           -0.72252398029829       -5.48344559391881        4.53354829957136
C           -0.78724165202202       -6.51818380707128        5.52655777019795
C           -4.50667146386253       -0.75733013874334        2.30219458904110
C           -3.30594583855964       -2.72312015014383       -1.60576742127264
H           -0.25155854419986       -7.38579637758252        5.12607495717800
H           -1.85558071370251       -6.82084866301757        5.54183666738758
H           -0.27352790777139       -6.20734938064145        6.39012119009712
H            6.20342768601271        4.23335083069050        0.85648552679162
H            6.19676028193354        3.06672030919181        2.20260725104037
H            5.41825169441814        4.51106660524563        2.40781987564970
H           -4.39580406783687       -2.82529044673281       -1.62960834938147
H           -2.68821976790517       -3.64690702837025       -1.68389555340334
H           -3.22876708932280       -2.40619786441880       -2.69856317924731
H           -5.03814395103533       -1.69320426850294        2.46373896268094
H           -5.16751125150697       -0.11837288732438        1.78037599307599
H           -4.05506553465702       -0.42620154652114        3.33234706484922
H           -6.92076423976335        2.82767814405067       -2.87471935776205
H           -7.31096359113921        1.36698413706388       -3.94645254596174
H           -6.36692648774287        2.92531359960192       -4.64218841479438
C           -0.91690464758635        3.65209045296084        3.82735660518303
C           -1.32508492727866        2.46399013376044        4.45568082541142
C           -0.80542783891018        1.94157881610074        5.73804513759353
C            0.43644066452673        2.41239418786423        6.22403188727521
C            0.87234921314469        3.62986041169109        5.50310543649004
C            0.24403963487547        4.22712852967380        4.37153671999818
C           -1.19212327974637        0.70238938443127        6.28902947807264
C           -0.23442007929766       -0.07536257611054        6.86139323735756
C            1.02758793077077        0.49604238110156        7.18016883457956
N            1.38043267118181        1.76894805135584        6.92293458091395
C           -2.50840704831797        0.05921920743605        6.33173689613320
C           -2.53602830766416       -1.34164866855567        6.57259635114082
N           -1.56204531866381       -2.03138922685226        7.08555422352259
C           -0.41561230450604       -1.36822030283710        7.25904630949831
C            0.49936527483174       -1.98701754393661        8.07453230117370
C            1.78083678805309       -1.52523563581434        8.23726855044448
C            2.03005860794588       -0.28022572013167        7.82258024945756
C           -3.70289305163748        0.74251604397767        5.92429731124292
C           -4.80980031165177        0.05355031966607        5.39047637479964
C           -4.65499066430752       -1.31401659623935        5.50869562537171
C           -3.58190452545625       -2.02515961911274        6.03026387792332
O           -3.96914615535553        2.09550306229006        6.03321303194443
O           -2.22096433638791        1.62387232108732        3.83759854420160
C            0.95665853854421        5.41164193550747        3.62541806604232
C           -5.80196781579121       -1.95511485947048        4.74906283580752
H            1.77119905373789        4.16621930322802        5.86724755748798
H           -1.18256187586954        4.02424273043254        2.84326021268306
H            2.91606763794203        0.20978134390759        8.11535858952092
H            0.18402329831815       -2.96321537095700        8.42276250883889
H           -3.71571602065575       -3.07361300168789        6.03634660853685
H           -5.75105574735265        0.48948905506319        5.10368434987836
O            2.08110958620870        5.74966342364853        3.84660073152049
O            0.14167301677157        5.93775683093121        2.53845416303165
C            0.92479492790194        6.90941421538763        2.00816304184712
C            2.90286420102606       -2.34915375783572        8.79021964634593
O            2.70130468657703       -3.50099240287569        9.12093977594065
O            4.11936620628672       -1.81151104988242        8.67749530861506
C            5.01320714565891       -2.86164119305777        8.91272589281218
O           -5.62990537712049       -2.70553133159941        3.86361323248623
O           -7.07664282904112       -1.42787353991364        4.99223997932620
C           -8.04241331743734       -2.20696651914156        4.40194495665018
C           -3.51763472054542        2.62954833453586        7.28912431684699
C           -2.95971757155467        2.13157846496009        2.65080542384248
H           -7.82048946998940       -2.37267232853303        3.41366353349302
H           -8.91451695749427       -1.58918627452553        4.52428150721844
H           -8.31725654698111       -3.10981528714829        4.93484648387127
H            6.02129027568044       -2.38723279108521        8.71338138044202
H            4.88397761557435       -3.66573665184203        8.21142388012056
H            4.92316209690429       -3.01788427628074        9.96310236518566
H           -3.87010456820201        1.72312132013732        2.40834193315962
H           -2.33898617437442        2.49349059238334        1.82903005340822
H           -3.23843600419622        3.15432621862745        3.08593114635724
H           -3.81066916904435        3.70541115273616        7.42322640428181
H           -2.45995740054975        2.50872538543674        7.14978507131363
H           -3.87297201559831        2.08204702901479        8.25814566610530
H            1.95893828911555        6.49122091334744        1.81981482108813
H            1.15577017280959        7.79730931924275        2.56381214767194
H            0.39492800075521        7.24194293860872        1.02532066876651
116
 energy: -22.779484476274 gnorm: 0.495658229337 xtb: 6.6.1 (8d0f1dd)
C           -3.25319149114834       -0.01476075505418       -2.06510732039213
C           -2.57259104510776       -0.58464244927432       -0.98859822762466
C           -1.89912502964562        0.36467125079702       -0.11510543282600
C           -1.89777998739890        1.75472883420216       -0.50759782754986
C           -2.58322991557760        2.24642951573004       -1.67061547806619
C           -3.48610729577862        1.35615272462081       -2.34441141233643
C           -1.12730449492668        0.06577845794091        1.10261409151911
C           -0.09427921676159        0.95793518440768        1.34222451353352
C           -0.00097602529461        2.18593253560397        0.72409726818349
N           -1.03365492779349        2.63036736966851        0.02985594743284
C           -1.27423039808292       -1.04398751096831        1.99292542753376
C           -0.18107129067284       -1.44567923783818        2.66350449591822
N            1.01460166745700       -0.76452150792235        2.61361639848147
C            0.98771303202003        0.47629887143041        2.19986735737593
C            2.08208959141309        1.28775204039704        2.47492234869167
C            2.21281618813377        2.56280031295926        1.75872864392694
C            1.13814749453280        3.09966065174595        0.97695332877861
C           -2.58816092688882       -1.53116333828461        2.31772482658721
C           -2.65401918236048       -2.72477765256147        2.99304625790666
C           -1.57298989806149       -3.28759612659963        3.54904354684484
C           -0.29941253791549       -2.66330187263422        3.29156053730861
O           -3.77076302275424       -1.01874959100366        1.76879940153389
O           -2.42359825489133       -2.03815913702057       -0.70288958253381
C           -4.09159823900396        1.64655380578284       -3.68896294847093
C           -1.59194467535191       -4.48633641230261        4.42032011307988
H           -2.72745745398357        3.36425419383858       -1.78236526583083
H           -3.92193632634097       -0.83811050132302       -2.48104154658452
H            1.18954746641487        4.08566395426053        0.61787424972876
H            2.76288104273389        0.96009158192722        3.23714191827892
H            0.41678112320244       -3.32785084020009        3.73550806925525
H           -3.53294923303693       -3.46880670673619        2.82947866710099
O           -3.82803747569229        2.77261545409261       -4.11997909239446